Title
82257
    1SAPS     N    1   6.742   5.590  11.381  0.7466  0.2424  0.0122
    1SAPS   HN1    2   6.768   5.509  11.321  0.8323  0.2842 -0.0056
    1SAPS   HN2    3   6.693   5.559  11.468  2.6221 -1.3896  0.5360
    1SAPS   HN3    4   6.670   5.639  11.324 -2.3982 -1.5614  2.1076
    1SAPS   C12    5   6.868   5.669  11.409 -0.5878 -0.2658  0.8031
    1SAPS  H12A    6   6.841   5.757  11.465  0.4219 -0.7185  2.0528
    1SAPS   C13    7   6.971   5.595  11.499  0.0485  0.0051 -0.3679
    1SAPS  O13A    8   6.966   5.472  11.516  0.4501 -0.4220  0.0944
    1SAPS  O13B    9   7.083   5.652  11.528 -0.3960 -0.2491 -0.3866
    1SAPS   C11   10   6.942   5.698  11.270 -0.6716  0.0974 -0.4354
    1SAPS  H11A   11   6.942   5.621  11.190 -1.1854 -0.8197  0.4220
    1SAPS  H11B   12   7.041   5.741  11.298 -0.5405 -0.3648 -0.1638
    1SAPS     P   13   6.757   5.822  11.110 -0.0010  0.2341 -0.4404
    1SAPS   O13   14   6.640   5.768  11.183  0.0861 -0.1780  0.2315
    1SAPS   O14   15   6.749   5.962  11.059  0.2026  0.3562 -0.1753
    1SAPS   O12   16   6.874   5.815  11.216  0.0346  0.1216 -0.2273
    1SAPS   O11   17   6.806   5.718  11.000  0.1464 -0.0834 -0.2356
    1SAPS    C1   18   6.712   5.618  10.957  0.4099  0.2972 -1.0717
    1SAPS    HA   19   6.697   5.545  11.039  0.5218  0.0884 -1.2352
    1SAPS    HB   20   6.610   5.663  10.962  0.0789 -0.5520  2.9803
    1SAPS    C2   21   6.734   5.560  10.820  0.0381 -0.1241  0.0211
    1SAPS    HS   22   6.842   5.535  10.817 -0.0349 -0.3690 -1.3271
    1SAPS   O21   23   6.689   5.646  10.715  0.4926 -0.4340  0.2329
    1SAPS   C21   24   6.760   5.637  10.605  0.0110  0.3512 -0.5685
    1SAPS   O22   25   6.873   5.591  10.598 -0.0841  0.3105 -0.2516
    1SAPS   C22   26   6.697   5.715  10.498 -0.6589  0.7845  0.3118
    1SAPS   H2R   27   6.634   5.672  10.417  0.9361  0.1848 -0.6612
    1SAPS   H2S   28   6.622   5.777  10.551 -0.9294  0.7178  0.0078
    1SAPS    C3   29   6.653   5.426  10.806 -1.0979  0.4631  0.0321
    1SAPS    HX   30   6.549   5.448  10.773 -0.6884 -0.8279 -2.2803
    1SAPS    HY   31   6.631   5.383  10.906  0.2383  1.7746  0.9336
    1SAPS   O31   32   6.720   5.320  10.733  0.3717  0.0944  0.0444
    1SAPS   C31   33   6.692   5.319  10.604 -0.5352  0.6500  0.0749
    1SAPS   O32   34   6.617   5.389  10.539 -0.3768  0.4308  0.2729
    1SAPS   C32   35   6.780   5.213  10.537 -0.8311  0.1763 -0.3740
    1SAPS   H2X   36   6.721   5.120  10.530  1.0632 -1.2000  0.8670
    1SAPS   H2Y   37   6.873   5.191  10.594 -1.5050 -0.4544  0.5108
    1SAPS   C23   38   6.792   5.820  10.426 -0.1264  0.0810 -0.3185
    1SAPS   H3R   39   6.875   5.769  10.371  0.3847  1.2263 -0.6305
    1SAPS   H3S   40   6.846   5.887  10.495 -1.0918  1.2409 -0.6663
    1SAPS   C24   41   6.711   5.906  10.310 -0.3075  0.2762 -0.0543
    1SAPS   H4R   42   6.637   5.961  10.372  0.3302 -0.1240  1.0927
    1SAPS   H4S   43   6.657   5.839  10.239  0.2144 -0.3239  0.1111
    1SAPS   C25   44   6.802   6.005  10.237 -0.1038 -0.7776  0.5288
    1SAPS   H5R   45   6.871   6.056  10.307  0.3540 -1.0709  0.2951
    1SAPS   C26   46   6.821   6.008  10.106  0.5139 -0.2114 -0.7397
    1SAPS   H6R   47   6.885   6.089  10.067 -2.6361  1.3863 -2.9792
    1SAPS   C27   48   6.753   5.919  10.000  0.3408  0.1563  0.0921
    1SAPS   H7R   49   6.681   5.850  10.049  0.4885 -0.4430 -0.5096
    1SAPS   H7S   50   6.821   5.850   9.945  0.9618  1.4933 -0.8777
    1SAPS   C28   51   6.695   6.016   9.898  1.1659  0.0628  0.3026
    1SAPS   H8R   52   6.644   6.107   9.933 -0.8949 -1.1697  0.6999
    1SAPS   C29   53   6.701   6.007   9.761 -0.0946 -1.0393  0.2056
    1SAPS   H9R   54   6.661   6.094   9.707  1.6982 -0.9873 -1.1131
    1SAPS  C210   55   6.770   5.903   9.676  0.0618  0.0054  0.3138
    1SAPS  H10R   56   6.843   5.844   9.735 -0.6036 -0.5436  0.5903
    1SAPS  H10S   57   6.852   5.949   9.615  0.4573 -1.5445 -0.3769
    1SAPS  C211   58   6.682   5.822   9.584  0.9132 -0.0367 -0.3803
    1SAPS  H11R   59   6.608   5.759   9.636 -0.0403  0.2549 -1.3497
    1SAPS  C212   60   6.675   5.833   9.449  0.1877  0.6281  0.2920
    1SAPS  H12R   61   6.602   5.769   9.397 -0.1542 -0.2679  1.8219
    1SAPS  C213   62   6.760   5.915   9.361 -0.1851 -0.1573 -0.1636
    1SAPS  H13R   63   6.825   5.838   9.314 -0.6212  0.8371 -2.5144
    1SAPS  H13S   64   6.823   5.979   9.426  0.6487 -0.0286 -1.0803
    1SAPS  C214   65   6.692   5.987   9.251 -0.2136 -0.5039  0.5023
    1SAPS  H14R   66   6.679   6.094   9.274 -0.3348 -0.5091  0.4608
    1SAPS  C215   67   6.651   5.942   9.127  0.1160 -0.1503  0.2653
    1SAPS  H15R   68   6.600   6.014   9.062  0.2504  0.2578  0.6070
    1SAPS  C216   69   6.679   5.810   9.064 -0.4846  0.6675  1.3099
    1SAPS  H16R   70   6.581   5.762   9.041  0.0851 -0.6483  1.5139
    1SAPS  H16S   71   6.727   5.738   9.134 -1.7302 -0.2309  1.2680
    1SAPS  C217   72   6.761   5.826   8.933 -0.2194 -0.3855 -0.0272
    1SAPS  H17R   73   6.778   5.723   8.898 -2.2785 -0.3840 -1.1527
    1SAPS  H17S   74   6.863   5.869   8.947 -1.0967  1.7550  0.2188
    1SAPS  C218   75   6.688   5.898   8.816 -0.5361 -0.4329  0.5738
    1SAPS  H18R   76   6.753   5.891   8.727 -0.1181  1.0053  0.7470
    1SAPS  H18S   77   6.685   6.007   8.837  1.7162  0.2539 -2.0696
    1SAPS  C219   78   6.549   5.846   8.783 -0.9726 -0.2537 -0.4601
    1SAPS  H19R   79   6.467   5.856   8.857 -0.2541  1.0215  0.1904
    1SAPS  H19S   80   6.561   5.737   8.767 -1.7591 -0.5750  0.9686
    1SAPS  C220   81   6.492   5.900   8.649 -0.0975  0.1475  0.0938
    1SAPS  H20R   82   6.454   6.004   8.657 -0.5807 -0.1399  2.1011
    1SAPS  H20S   83   6.401   5.843   8.623  0.5568 -1.1895  0.6690
    1SAPS  H20T   84   6.556   5.882   8.560 -0.4740 -0.7422 -0.0008
    1SAPS   C33   85   6.843   5.229  10.399  0.4959 -1.1001 -0.0865
    1SAPS   H3X   86   6.918   5.310  10.390  0.6610 -0.9991  1.7873
    1SAPS   H3Y   87   6.760   5.250  10.329  0.4562 -0.8250  0.0435
    1SAPS   C34   88   6.912   5.103  10.344  0.0780  1.1644 -0.3974
    1SAPS   H4X   89   6.833   5.027  10.362  0.7600  1.2699  4.0069
    1SAPS   H4Y   90   6.996   5.086  10.415 -1.2698  1.4204  1.3106
    1SAPS   C35   91   6.964   5.094  10.200 -0.3290 -0.2269  0.0134
    1SAPS   H5X   92   7.056   5.155  10.193 -1.4911  1.5121 -1.0376
    1SAPS   H5Y   93   6.891   5.153  10.140 -1.6515  0.3046  2.0192
    1SAPS   C36   94   6.981   4.955  10.136  0.2516 -0.1450 -0.1031
    1SAPS   H6X   95   6.879   4.910  10.133 -0.6187  1.6719  0.4819
    1SAPS   H6Y   96   7.042   4.899  10.210 -0.7993  0.4764  1.2685
    1SAPS   C37   97   7.022   4.970   9.995 -0.2788  0.3430  0.0714
    1SAPS   H7X   98   7.021   4.869   9.949  0.1663 -0.3145  1.4449
    1SAPS   H7Y   99   7.127   5.005   9.993  0.2390 -0.8751  2.5299
    1SAPS   C38  100   6.916   5.038   9.904  0.1669 -0.1769  1.1222
    1SAPS   H8X  101   6.907   5.143   9.940 -1.6832 -0.1194  0.6109
    1SAPS   H8Y  102   6.817   4.989   9.918 -0.7772  1.1348 -0.6056
    1SAPS   C39  103   6.956   5.021   9.757  0.6331 -0.8808  0.3748
    1SAPS   H9X  104   6.976   4.915   9.730 -0.6811 -1.2436  0.7231
    1SAPS   H9Y  105   7.043   5.086   9.734  0.2261 -0.0669  1.0534
    1SAPS  C310  106   6.842   5.070   9.666  0.6445  0.2647 -0.4110
    1SAPS  H10X  107   6.847   5.181   9.671  1.6323  0.1870  0.6842
    1SAPS  H10Y  108   6.743   5.035   9.702 -0.1711 -0.4912 -3.1555
    1SAPS  C311  109   6.853   5.024   9.516  0.0277 -0.3869 -0.5174
    1SAPS  H11X  110   6.796   5.100   9.458 -0.0451 -0.4410 -0.5159
    1SAPS  H11Y  111   6.802   4.927   9.503 -0.3056 -0.4027  0.7757
    1SAPS  C312  112   7.001   5.026   9.463 -0.4182 -0.2736 -0.8756
    1SAPS  H12X  113   7.060   4.948   9.516 -0.1852 -0.4244 -1.3579
    1SAPS  H12Y  114   7.054   5.121   9.489 -1.3567 -0.1025  0.5578
    1SAPS  C313  115   7.000   5.017   9.316 -0.6155 -0.2395 -0.0731
    1SAPS  H13X  116   6.936   5.101   9.280 -0.6118  0.5432  1.6501
    1SAPS  H13Y  117   6.955   4.920   9.285  0.3617 -1.0948  1.0907
    1SAPS  C314  118   7.134   5.024   9.238 -0.3689 -0.0326  0.2333
    1SAPS  H14X  119   7.105   5.055   9.135 -0.2796  1.2099  0.5614
    1SAPS  H14Y  120   7.186   4.926   9.233 -2.7629 -1.3095 -1.5744
    1SAPS  C315  121   7.221   5.142   9.282  0.2175  0.9195 -1.1072
    1SAPS  H15X  122   7.237   5.126   9.391 -1.8353 -0.4612 -0.9541
    1SAPS  H15Y  123   7.158   5.234   9.283 -1.3770 -0.1405 -1.6411
    1SAPS  C316  124   7.345   5.149   9.197  0.2152  0.8462  0.9233
    1SAPS  H16X  125   7.309   5.157   9.091 -1.5398 -1.0307  1.3055
    1SAPS  H16Y  126   7.410   5.059   9.196  0.8282  1.2776 -0.2535
    1SAPS  C317  127   7.433   5.264   9.238 -0.2121 -0.6327 -0.1219
    1SAPS  H17X  128   7.390   5.366   9.228 -0.2065 -0.6155  0.0183
    1SAPS  H17Y  129   7.514   5.263   9.163 -0.4065  0.4144 -0.3539
    1SAPS  C318  130   7.491   5.248   9.380 -0.2003 -0.6659  0.0813
    1SAPS  H18X  131   7.410   5.243   9.456  0.1746  0.0940  0.5429
    1SAPS  H18Y  132   7.571   5.321   9.404 -0.5634 -0.3839  0.4496
    1SAPS  H18Z  133   7.546   5.151   9.382  0.0106 -0.5631 -0.5839
    2SAPS     N  134   4.934   4.782  10.918  0.1186  0.2267  0.0792
    2SAPS   HN1  135   5.037   4.777  10.910  0.2442  1.3262  0.8577
    2SAPS   HN2  136   4.884   4.800  10.828  0.3098 -0.9245 -0.2803
    2SAPS   HN3  137   4.903   4.863  10.975 -1.9679 -0.4459 -0.0060
    2SAPS   C12  138   4.886   4.657  10.990  0.3656  0.6529  0.3062
    2SAPS  H12A  139   4.941   4.660  11.083  1.0841 -2.7640  0.1081
    2SAPS   C13  140   4.736   4.668  11.019  0.3983  0.6689  0.0977
    2SAPS  O13A  141   4.660   4.765  10.991 -0.2285 -0.1340  0.0574
    2SAPS  O13B  142   4.679   4.572  11.083  0.0420  0.0243  0.4403
    2SAPS   C11  143   4.918   4.531  10.900 -1.2455 -1.1969  0.2428
    2SAPS  H11A  144   4.880   4.540  10.797  2.0749  2.3093 -0.9018
    2SAPS  H11B  145   4.870   4.444  10.950 -0.0742  0.0078  3.8092
    2SAPS     P  146   5.152   4.398  10.834  0.0316  0.3907  0.0626
    2SAPS   O13  147   5.291   4.449  10.817  0.2635  0.3778  0.1263
    2SAPS   O14  148   5.142   4.272  10.911 -0.2705  0.0393  0.2349
    2SAPS   O12  149   5.062   4.517  10.894 -0.7509  0.3629 -1.1008
    2SAPS   O11  150   5.080   4.369  10.696 -0.1649  0.5429  0.1104
    2SAPS    C1  151   5.163   4.325  10.584  0.2889 -0.3060  0.0386
    2SAPS    HA  152   5.273   4.324  10.598  0.2256 -0.9019  0.5443
    2SAPS    HB  153   5.133   4.220  10.567  1.3050 -1.2623  3.3337
    2SAPS    C2  154   5.127   4.420  10.457 -0.7193  0.9462  0.9385
    2SAPS    HS  155   5.016   4.423  10.450 -0.6789 -0.4800 -1.4513
    2SAPS   O21  156   5.183   4.360  10.338  0.1630  0.1782  0.2253
    2SAPS   C21  157   5.123   4.251  10.286 -0.2324  0.0470  0.5301
    2SAPS   O22  158   5.013   4.214  10.322  0.8770  0.1540  0.2991
    2SAPS   C22  159   5.202   4.190  10.172  0.5358  0.1742  0.1452
    2SAPS   H2R  160   5.284   4.128  10.213 -0.0016 -0.1660  0.7162
    2SAPS   H2S  161   5.134   4.125  10.112 -0.2890  2.2394 -1.2897
    2SAPS    C3  162   5.191   4.556  10.476  0.2166  0.3715  0.1630
    2SAPS    HX  163   5.298   4.550  10.503 -0.2276 -1.3878  1.7158
    2SAPS    HY  164   5.161   4.588  10.579  1.0156 -0.6212  0.7136
    2SAPS   O31  165   5.164   4.653  10.376  0.8720 -0.3047  0.9568
    2SAPS   C31  166   5.035   4.692  10.379 -0.3100  0.4150  0.2624
    2SAPS   O32  167   4.963   4.672  10.475 -0.6697  0.5652  0.0869
    2SAPS   C32  168   4.986   4.773  10.262  0.5591 -0.2869  0.2804
    2SAPS   H2X  169   5.014   4.878  10.286 -1.7705  0.0647  1.7658
    2SAPS   H2Y  170   4.875   4.770  10.270  0.1917  2.2295 -2.0370
    2SAPS   C23  171   5.264   4.296  10.070  0.3652 -0.2876 -0.6528
    2SAPS   H3R  172   5.370   4.322  10.090  1.0880 -1.5052 -2.5936
    2SAPS   H3S  173   5.207   4.391  10.079  2.5356  1.0595 -0.3738
    2SAPS   C24  174   5.266   4.253   9.927 -0.6587 -0.1214 -0.5581
    2SAPS   H4R  175   5.295   4.343   9.869  1.0593 -2.0801 -2.9934
    2SAPS   H4S  176   5.161   4.226   9.904 -0.7558 -0.8490  0.6620
    2SAPS   C25  177   5.381   4.150   9.903  0.1370  0.1146  0.2435
    2SAPS   H5R  178   5.379   4.076   9.986 -1.1584 -0.7948 -0.5683
    2SAPS   C26  179   5.472   4.139   9.804  0.4918 -0.2889  0.1390
    2SAPS   H6R  180   5.539   4.052   9.814 -1.6850 -1.8320  2.9694
    2SAPS   C27  181   5.504   4.240   9.696 -0.4953 -0.1384  0.8154
    2SAPS   H7R  182   5.470   4.345   9.713  2.1179  0.9356  0.0231
    2SAPS   H7S  183   5.449   4.202   9.608  0.2361 -0.3739  0.4479
    2SAPS   C28  184   5.651   4.234   9.670  0.6193  0.1530  0.3292
    2SAPS   H8R  185   5.712   4.204   9.756  2.6961  0.0652 -1.0807
    2SAPS   C29  186   5.706   4.248   9.550 -0.1219 -0.3740  0.1690
    2SAPS   H9R  187   5.816   4.241   9.547 -0.0628 -0.3181  1.4989
    2SAPS  C210  188   5.623   4.277   9.419 -0.5533 -0.3565  0.0491
    2SAPS  H10R  189   5.680   4.358   9.367 -0.2930 -0.8749 -0.4788
    2SAPS  H10S  190   5.522   4.316   9.445 -0.0503  2.0739 -1.2843
    2SAPS  C211  191   5.600   4.153   9.342 -0.8377  0.4368 -0.3045
    2SAPS  H11R  192   5.576   4.072   9.413  1.2271  0.2867  0.3007
    2SAPS  C212  193   5.612   4.141   9.208  0.4144 -0.2183 -0.1046
    2SAPS  H12R  194   5.605   4.043   9.158  0.2157 -0.7942  1.0121
    2SAPS  C213  195   5.637   4.267   9.123 -0.4250 -0.1787  0.0087
    2SAPS  H13R  196   5.578   4.354   9.160  0.3375  1.1433 -1.7413
    2SAPS  H13S  197   5.598   4.249   9.020  1.9840  0.1812 -1.0349
    2SAPS  C214  198   5.780   4.320   9.109  0.0425  0.1591  0.3725
    2SAPS  H14R  199   5.829   4.320   9.208 -1.8178 -1.7627  1.3750
    2SAPS  C215  200   5.842   4.363   8.998 -0.1840 -0.5233 -0.7944
    2SAPS  H15R  201   5.945   4.398   9.013 -1.1386  3.2935 -1.8595
    2SAPS  C216  202   5.789   4.379   8.855  0.3733  0.0226  0.2948
    2SAPS  H16R  203   5.787   4.486   8.826  0.0972  0.4010  1.6216
    2SAPS  H16S  204   5.692   4.330   8.833  0.5922 -0.7034  0.8945
    2SAPS  C217  205   5.894   4.310   8.775  0.2355  1.2754  0.2551
    2SAPS  H17R  206   5.894   4.203   8.804 -2.3387  1.5265  1.5319
    2SAPS  H17S  207   5.994   4.351   8.801 -0.3701  1.4201  2.6089
    2SAPS  C218  208   5.867   4.314   8.620  0.5905 -0.0785  0.1300
    2SAPS  H18R  209   5.848   4.420   8.593 -2.3278 -1.0313 -2.1450
    2SAPS  H18S  210   5.771   4.262   8.599 -0.6959  1.9707  0.6273
    2SAPS  C219  211   5.993   4.260   8.553 -0.7789  0.8438 -0.3131
    2SAPS  H19R  212   5.988   4.153   8.584 -1.0091  1.2141  0.9952
    2SAPS  H19S  213   6.091   4.301   8.586  0.2650 -0.6133 -1.4970
    2SAPS  C220  214   5.997   4.264   8.402  0.0076  0.4764  0.1849
    2SAPS  H20R  215   5.911   4.211   8.354  0.8409 -2.3808  1.6133
    2SAPS  H20S  216   6.093   4.232   8.358 -1.1448 -0.2220 -1.9836
    2SAPS  H20T  217   5.986   4.372   8.376  0.7644  0.7113  0.8141
    2SAPS   C33  218   5.037   4.721  10.125 -0.2719 -0.4964 -0.3005
    2SAPS   H3X  219   5.022   4.611  10.113 -1.5942 -0.5395  1.4334
    2SAPS   H3Y  220   5.139   4.765  10.118 -0.3781  0.0325  1.2879
    2SAPS   C34  221   4.958   4.789  10.010 -0.8132  0.2004 -0.4961
    2SAPS   H4X  222   4.950   4.897  10.034  0.6716 -0.2643  2.6319
    2SAPS   H4Y  223   4.855   4.749  10.005 -1.7803  1.1650  5.1429
    2SAPS   C35  224   5.028   4.776   9.875 -1.0248  0.3684  0.1648
    2SAPS   H5X  225   5.125   4.826   9.893 -0.3103 -0.5785 -0.8849
    2SAPS   H5Y  226   4.978   4.837   9.797  0.9260  1.0442 -0.6182
    2SAPS   C36  227   5.041   4.623   9.828  0.5040 -0.0517  0.0158
    2SAPS   H6X  228   4.950   4.559   9.828  0.7566 -0.4136 -0.1085
    2SAPS   H6Y  229   5.110   4.577   9.902 -0.4899 -0.6670  0.5748
    2SAPS   C37  230   5.084   4.600   9.679 -0.5731  0.3268  0.5494
    2SAPS   H7X  231   5.186   4.638   9.657 -0.4418  0.3708  1.2029
    2SAPS   H7Y  232   5.006   4.645   9.614 -1.9547 -2.1507  0.3881
    2SAPS   C38  233   5.076   4.459   9.633 -0.1214  0.1648 -0.5587
    2SAPS   H8X  234   4.976   4.417   9.661 -0.2335  0.2539 -0.8279
    2SAPS   H8Y  235   5.144   4.388   9.684 -1.6411 -1.2732 -0.4359
    2SAPS   C39  236   5.110   4.437   9.483 -0.3681  0.9398 -0.1299
    2SAPS   H9X  237   5.212   4.476   9.466 -0.3481  1.1267  0.4127
    2SAPS   H9Y  238   5.042   4.493   9.414 -1.5729  0.6747  0.8083
    2SAPS  C310  239   5.091   4.285   9.443  0.2791  0.9226  0.7693
    2SAPS  H10X  240   4.988   4.267   9.481 -0.7874  2.8527 -0.9568
    2SAPS  H10Y  241   5.168   4.221   9.491  0.3872 -0.1045 -0.7376
    2SAPS  C311  242   5.113   4.252   9.298 -0.1561 -0.6927  0.3005
    2SAPS  H11X  243   5.108   4.146   9.265 -0.7209 -0.0207 -1.8842
    2SAPS  H11Y  244   5.209   4.302   9.275  0.5830 -1.6063  1.2430
    2SAPS  C312  245   5.008   4.320   9.203  0.4013  0.2709 -0.4407
    2SAPS  H12X  246   5.004   4.431   9.209 -1.9472  0.3585 -2.2273
    2SAPS  H12Y  247   4.908   4.277   9.224  1.4271 -1.8343  0.4678
    2SAPS  C313  248   5.033   4.281   9.056  0.0586  0.4818  0.2259
    2SAPS  H13X  249   4.946   4.329   9.006  0.0299 -0.3240 -0.5192
    2SAPS  H13Y  250   5.033   4.170   9.054  0.9172  0.4886 -0.2586
    2SAPS  C314  251   5.171   4.314   9.000 -0.6643  0.2356  0.8125
    2SAPS  H14X  252   5.250   4.263   9.058  0.3148  2.0970  1.1876
    2SAPS  H14Y  253   5.198   4.421   9.015 -0.7846 -0.1205  4.4577
    2SAPS  C315  254   5.181   4.268   8.851 -0.4503  0.5447 -0.6123
    2SAPS  H15X  255   5.139   4.353   8.792  1.3914  1.5564 -0.5606
    2SAPS  H15Y  256   5.133   4.169   8.836  1.3422 -0.3486 -0.6867
    2SAPS  C316  257   5.327   4.245   8.815  0.1845 -0.4037  0.1200
    2SAPS  H16X  258   5.384   4.171   8.876 -0.6592 -1.0940  0.0854
    2SAPS  H16Y  259   5.371   4.345   8.836 -0.6061 -0.0195 -0.0269
    2SAPS  C317  260   5.341   4.197   8.672  0.3515 -0.2803  0.6952
    2SAPS  H17X  261   5.306   4.281   8.609  0.4139 -1.2764 -0.7021
    2SAPS  H17Y  262   5.266   4.116   8.658 -1.4523  1.5314 -0.7463
    2SAPS  C318  263   5.482   4.154   8.624  0.2837 -0.5004  0.4261
    2SAPS  H18X  264   5.560   4.232   8.639  0.0737  0.8376 -4.0097
    2SAPS  H18Y  265   5.470   4.125   8.518 -0.8305 -1.8616  0.8946
    2SAPS  H18Z  266   5.514   4.064   8.681  2.2569 -1.4435 -1.9823
    3SAPS     N  267   4.391   6.640  11.029  0.3300  0.3786  0.7717
    3SAPS   HN1  268   4.400   6.626  10.927  0.3512  1.4341  0.6144
    3SAPS   HN2  269   4.412   6.543  11.061  1.3565  0.8986  1.7827
    3SAPS   HN3  270   4.292   6.657  11.055  0.0888  0.1625  0.0022
    3SAPS   C12  271   4.471   6.745  11.097 -0.1295 -1.0025 -0.0659
    3SAPS  H12A  272   4.425   6.835  11.057  0.5703 -1.3065 -1.6425
    3SAPS   C13  273   4.452   6.749  11.247 -0.6548  0.2120 -0.6798
    3SAPS  O13A  274   4.402   6.650  11.308  0.3798 -0.4800  0.6298
    3SAPS  O13B  275   4.495   6.854  11.307  0.8285 -0.0693 -0.0366
    3SAPS   C11  276   4.623   6.720  11.054 -0.1415 -0.1201 -0.0286
    3SAPS  H11A  277   4.653   6.615  11.074  1.9397 -0.2872 -3.2105
    3SAPS  H11B  278   4.672   6.796  11.118  1.7731 -1.2815 -0.0341
    3SAPS     P  279   4.648   6.655  10.792 -0.0682 -0.0805  0.0738
    3SAPS   O13  280   4.748   6.547  10.816 -0.1159  0.9048  0.0244
    3SAPS   O14  281   4.509   6.604  10.788 -0.2398 -0.0801 -0.2076
    3SAPS   O12  282   4.658   6.759  10.916  0.2729  0.4252 -0.0515
    3SAPS   O11  283   4.683   6.751  10.676  0.3661  0.3026 -0.1150
    3SAPS    C1  284   4.607   6.872  10.641 -0.3916 -0.4656 -0.2403
    3SAPS    HA  285   4.580   6.935  10.729  2.4816 -0.4694  0.7461
    3SAPS    HB  286   4.668   6.943  10.581 -1.1355  1.6253  1.3205
    3SAPS    C2  287   4.487   6.827  10.551 -0.1815 -0.7315 -0.4765
    3SAPS    HS  288   4.427   6.748  10.601 -0.1613 -0.7328 -0.4554
    3SAPS   O21  289   4.547   6.776  10.425  0.2507 -0.3652 -0.3340
    3SAPS   C21  290   4.479   6.693  10.367  0.2520  0.3133  0.4073
    3SAPS   O22  291   4.367   6.644  10.395 -0.0530 -0.1756  0.2104
    3SAPS   C22  292   4.556   6.653  10.242 -0.2883  0.4525  0.3018
    3SAPS   H2R  293   4.649   6.709  10.220 -0.6259 -0.1562 -3.2041
    3SAPS   H2S  294   4.582   6.547  10.262  0.0040  0.1091 -1.6597
    3SAPS    C3  295   4.396   6.951  10.529 -0.4785  0.3086 -0.2230
    3SAPS    HX  296   4.449   7.047  10.512  0.5223 -0.4115 -1.3108
    3SAPS    HY  297   4.341   6.959  10.625 -1.7206 -0.5328 -0.8267
    3SAPS   O31  298   4.292   6.935  10.431 -0.2971 -0.1794 -0.1655
    3SAPS   C31  299   4.236   7.048  10.389 -0.1016 -0.1730  0.1813
    3SAPS   O32  300   4.262   7.158  10.432 -0.3674  0.1738 -0.1935
    3SAPS   C32  301   4.143   7.017  10.274  0.6058 -0.3251  0.2623
    3SAPS   H2X  302   4.040   7.009  10.316  0.9098  0.6137  1.2245
    3SAPS   H2Y  303   4.158   6.912  10.238 -2.6329 -0.1932 -1.8805
    3SAPS   C23  304   4.463   6.656  10.119 -0.2952  0.8516 -0.5390
    3SAPS   H3R  305   4.386   6.581  10.146  1.0704  0.0371  1.3587
    3SAPS   H3S  306   4.529   6.608  10.044  1.4178 -0.1340  1.4785
    3SAPS   C24  307   4.404   6.788  10.077  0.3760 -0.2688  0.3766
    3SAPS   H4R  308   4.343   6.819  10.164 -3.1569 -0.5430 -1.8004
    3SAPS   H4S  309   4.334   6.775   9.992  0.6605 -0.8986  0.2297
    3SAPS   C25  310   4.521   6.881  10.043 -0.4206 -0.4818  0.7826
    3SAPS   H5R  311   4.575   6.913  10.134 -0.8983 -0.4911  1.0748
    3SAPS   C26  312   4.566   6.923   9.926  0.2208 -0.0074  0.4083
    3SAPS   H6R  313   4.650   6.992   9.943 -1.8149  2.2233  2.2457
    3SAPS   C27  314   4.522   6.896   9.788 -0.0364  0.4230  0.6327
    3SAPS   H7R  315   4.440   6.821   9.785 -0.2515  0.6860 -0.1023
    3SAPS   H7S  316   4.603   6.851   9.727  0.6487 -1.4971  2.7889
    3SAPS   C28  317   4.467   7.027   9.730 -0.3679 -0.0707  0.2584
    3SAPS   H8R  318   4.498   7.120   9.779  0.2893  0.1090 -0.4816
    3SAPS   C29  319   4.368   7.044   9.639 -0.2936  0.1360  0.2230
    3SAPS   H9R  320   4.336   7.145   9.610  1.3091  0.7632  0.5730
    3SAPS  C210  321   4.296   6.935   9.564 -0.1810  0.1093  0.4668
    3SAPS  H10R  322   4.193   6.941   9.604  0.0522  1.6777  0.9169
    3SAPS  H10S  323   4.341   6.839   9.598 -0.8120  0.7147  3.3056
    3SAPS  C211  324   4.301   6.928   9.412 -0.3081 -0.1797  0.4321
    3SAPS  H11R  325   4.401   6.933   9.367 -0.5283  1.0804  0.0261
    3SAPS  C212  326   4.201   6.922   9.330  0.3907  0.0222 -1.2387
    3SAPS  H12R  327   4.227   6.903   9.225 -0.5572  0.1352 -1.5097
    3SAPS  C213  328   4.050   6.917   9.363  0.9139  0.0443  0.6103
    3SAPS  H13R  329   3.996   6.910   9.267 -1.8997 -0.6474  2.1449
    3SAPS  H13S  330   4.023   7.015   9.407 -0.4386 -0.0799  0.0850
    3SAPS  C214  331   4.003   6.804   9.449 -0.6978 -0.2241 -0.3553
    3SAPS  H14R  332   4.012   6.826   9.556 -0.1737  0.5382 -0.5501
    3SAPS  C215  333   3.972   6.677   9.413 -0.4566  0.3819  0.6824
    3SAPS  H15R  334   3.934   6.611   9.493  2.3143 -1.6786  0.4359
    3SAPS  C216  335   3.968   6.611   9.274 -0.2861  0.0799  0.2551
    3SAPS  H16R  336   4.011   6.509   9.282  2.7201  1.3079  1.6312
    3SAPS  H16S  337   4.034   6.668   9.205 -0.5320  0.0929  0.0311
    3SAPS  C217  338   3.818   6.601   9.230 -0.2076 -0.0929  0.4846
    3SAPS  H17R  339   3.769   6.699   9.247 -2.5684 -1.2345  0.6345
    3SAPS  H17S  340   3.760   6.537   9.301  1.6000 -0.4799  1.6945
    3SAPS  C218  341   3.800   6.548   9.081 -0.7445 -0.1673 -0.5501
    3SAPS  H18R  342   3.829   6.441   9.074 -1.6438 -0.3279 -2.3976
    3SAPS  H18S  343   3.860   6.609   9.010  0.3567 -1.8745 -1.1473
    3SAPS  C219  344   3.646   6.555   9.037 -0.3166  0.0593  0.1820
    3SAPS  H19R  345   3.600   6.654   9.058  0.2011  0.0417  1.4447
    3SAPS  H19S  346   3.588   6.471   9.081  2.7499 -1.1078  2.3420
    3SAPS  C220  347   3.657   6.534   8.882  0.6459  0.1487  0.0724
    3SAPS  H20R  348   3.555   6.552   8.841  2.2194  1.6589 -3.5855
    3SAPS  H20S  349   3.694   6.429   8.875  0.5880 -0.2984  4.0800
    3SAPS  H20T  350   3.726   6.603   8.829 -1.5685  0.1175 -3.1629
    3SAPS   C33  351   4.133   7.123  10.155 -0.0582  0.6254 -0.6430
    3SAPS   H3X  352   4.225   7.145  10.097 -0.3311  0.5200 -1.1300
    3SAPS   H3Y  353   4.101   7.219  10.201 -3.7338 -1.0752  0.7122
    3SAPS   C34  354   4.024   7.089  10.051 -0.0710  0.1143  0.3234
    3SAPS   H4X  355   4.005   7.174   9.982 -1.3776 -1.6037 -1.5523
    3SAPS   H4Y  356   3.928   7.060  10.098 -0.8822  1.8469 -0.1851
    3SAPS   C35  357   4.070   6.971   9.960  0.9312 -0.3875  0.6384
    3SAPS   H5X  358   4.068   6.878  10.020  3.3498 -1.2423 -0.4660
    3SAPS   H5Y  359   4.175   6.983   9.927  1.3078  0.5882  2.1104
    3SAPS   C36  360   3.980   6.943   9.834  0.0033  0.3337  0.2019
    3SAPS   H6X  361   4.046   6.882   9.768 -0.5417  0.4172 -0.4230
    3SAPS   H6Y  362   3.963   7.040   9.781 -1.1601 -1.0226 -2.0544
    3SAPS   C37  363   3.845   6.887   9.871  0.2594 -0.3563  0.6360
    3SAPS   H7X  364   3.794   6.975   9.916 -0.0164 -0.5017  0.6087
    3SAPS   H7Y  365   3.842   6.804   9.945  0.4973  1.5608  2.9215
    3SAPS   C38  366   3.768   6.861   9.742 -0.6828  0.4514  0.1805
    3SAPS   H8X  367   3.667   6.828   9.772 -0.1613 -0.7491  0.6748
    3SAPS   H8Y  368   3.824   6.773   9.703 -1.0056  0.2371  0.1966
    3SAPS   C39  369   3.747   6.971   9.641  0.0248  0.2093  0.1520
    3SAPS   H9X  370   3.841   7.007   9.595  0.0660 -0.8244 -0.6221
    3SAPS   H9Y  371   3.698   7.058   9.689 -2.2611 -0.1938 -1.3079
    3SAPS  C310  372   3.653   6.931   9.523  0.2225  0.1915  0.4636
    3SAPS  H10X  373   3.561   6.891   9.571 -1.7856  2.9075 -0.8445
    3SAPS  H10Y  374   3.694   6.852   9.457 -0.0842 -0.2556  0.8037
    3SAPS  C311  375   3.614   7.063   9.439 -0.5926  0.5246 -0.0429
    3SAPS  H11X  376   3.600   7.149   9.508 -0.8074  0.8904 -0.5408
    3SAPS  H11Y  377   3.511   7.042   9.404 -0.7372 -0.8655  1.1239
    3SAPS  C312  378   3.706   7.087   9.316  0.6617 -0.0382  0.2327
    3SAPS  H12X  379   3.804   7.047   9.350 -0.6832 -3.0154  0.9443
    3SAPS  H12Y  380   3.707   7.190   9.275 -2.5492 -0.0972 -0.1867
    3SAPS  C313  381   3.667   6.988   9.211  0.4196  0.5799  0.9016
    3SAPS  H13X  382   3.559   6.999   9.185  0.3740  0.0449  0.8707
    3SAPS  H13Y  383   3.677   6.884   9.248 -1.5999  0.7281  2.0218
    3SAPS  C314  384   3.755   7.014   9.087 -0.0703  0.5226 -0.2063
    3SAPS  H14X  385   3.862   7.018   9.118  0.3647 -0.8719 -1.4153
    3SAPS  H14Y  386   3.724   7.116   9.056 -0.1550  0.6567  0.3145
    3SAPS  C315  387   3.741   6.917   8.969  0.8141 -0.2881 -0.1260
    3SAPS  H15X  388   3.631   6.902   8.964  0.6684  0.2221  1.3197
    3SAPS  H15Y  389   3.786   6.822   9.004  0.3281  0.1295  1.6996
    3SAPS  C316  390   3.805   6.967   8.832 -0.4441 -0.6364 -0.0560
    3SAPS  H16X  391   3.912   6.979   8.856 -0.1403 -0.6652 -1.3395
    3SAPS  H16Y  392   3.766   7.069   8.811  2.1187  0.5289  0.5191
    3SAPS  C317  393   3.788   6.871   8.709 -0.4233 -0.1998 -0.3648
    3SAPS  H17X  394   3.679   6.862   8.691 -0.9925  1.2492  1.8898
    3SAPS  H17Y  395   3.820   6.771   8.745  0.1299 -0.4398 -1.4788
    3SAPS  C318  396   3.862   6.908   8.582 -0.3473 -0.6846  1.1265
    3SAPS  H18X  397   3.863   6.821   8.513 -0.2005  2.6499 -3.5897
    3SAPS  H18Y  398   3.967   6.940   8.600 -0.1173 -0.5160 -0.3665
    3SAPS  H18Z  399   3.807   6.988   8.527 -1.9157 -1.6119  1.2699
    4SAPS     N  400   6.542   1.913  11.185  0.5755 -0.3673  0.2621
    4SAPS   HN1  401   6.599   1.917  11.272  2.9295  0.4158 -1.2032
    4SAPS   HN2  402   6.444   1.895  11.213  0.1527 -1.3246 -1.6597
    4SAPS   HN3  403   6.574   1.828  11.134 -0.6220 -0.9131  0.3941
    4SAPS   C12  404   6.575   2.039  11.110  0.4606 -0.1935  0.3248
    4SAPS  H12A  405   6.502   2.105  11.154 -1.8210 -1.3887 -1.4674
    4SAPS   C13  406   6.722   2.096  11.125  0.5842  0.3920 -0.6960
    4SAPS  O13A  407   6.802   2.044  11.202 -0.2467 -0.0067  0.0580
    4SAPS  O13B  408   6.741   2.216  11.095 -0.1632  0.1059  0.9390
    4SAPS   C11  409   6.538   2.020  10.962 -0.0545 -0.4917 -0.1237
    4SAPS  H11A  410   6.596   1.931  10.931  1.7031  0.1757  1.1139
    4SAPS  H11B  411   6.577   2.096  10.891  1.2820 -1.8007 -0.8352
    4SAPS     P  412   6.302   2.116  10.910  0.0274  0.0337  0.1072
    4SAPS   O13  413   6.166   2.053  10.895 -0.4575 -0.3900 -0.2102
    4SAPS   O14  414   6.314   2.214  11.017 -0.4720  0.0626 -0.5925
    4SAPS   O12  415   6.393   1.995  10.940 -0.0033 -0.1023 -0.0041
    4SAPS   O11  416   6.349   2.183  10.773  0.2279  0.0042  0.8247
    4SAPS    C1  417   6.360   2.099  10.654 -0.0143 -0.0140  0.3527
    4SAPS    HA  418   6.434   2.157  10.595 -0.4982 -1.0404 -1.3338
    4SAPS    HB  419   6.402   1.997  10.668 -0.3753 -0.2430 -0.1722
    4SAPS    C2  420   6.231   2.075  10.577  0.0042 -0.7878  0.2127
    4SAPS    HS  421   6.152   2.037  10.645 -1.9652  1.6890 -0.5446
    4SAPS   O21  422   6.264   1.982  10.479 -0.7529 -0.1514 -0.5304
    4SAPS   C21  423   6.164   1.909  10.435 -0.6999  0.8760  0.0542
    4SAPS   O22  424   6.051   1.908  10.483  0.1963  0.4086  0.4406
    4SAPS   C22  425   6.224   1.827  10.318 -0.0204  0.2799  0.0903
    4SAPS   H2R  426   6.267   1.904  10.251  1.1104  1.0854  1.6703
    4SAPS   H2S  427   6.306   1.768  10.364 -1.4963 -0.6755  1.6559
    4SAPS    C3  428   6.174   2.212  10.514  0.5415 -0.3136  0.0460
    4SAPS    HX  429   6.275   2.258  10.507 -0.5178  2.9578  3.1151
    4SAPS    HY  430   6.109   2.255  10.593 -0.6291 -2.5777  0.4206
    4SAPS   O31  431   6.110   2.197  10.388 -0.1609  0.3739 -0.2836
    4SAPS   C31  432   5.975   2.192  10.381  0.6406 -0.2627 -0.0957
    4SAPS   O32  433   5.900   2.215  10.472 -0.0026 -0.1635 -0.5040
    4SAPS   C32  434   5.920   2.147  10.240  0.3773 -0.0631 -0.1249
    4SAPS   H2X  435   5.879   2.045  10.257  0.2225 -0.1957 -1.2670
    4SAPS   H2Y  436   5.999   2.140  10.162  0.9083 -0.1817  0.4074
    4SAPS   C23  437   6.118   1.752  10.244  0.1830  0.3743  0.1758
    4SAPS   H3R  438   6.052   1.826  10.196 -0.4504  1.1455  2.1304
    4SAPS   H3S  439   6.059   1.696  10.320 -0.4099  0.4662 -0.2123
    4SAPS   C24  440   6.177   1.641  10.154 -0.8007  0.7321  0.4609
    4SAPS   H4R  441   6.097   1.566  10.136 -2.5379  2.2359  1.5048
    4SAPS   H4S  442   6.264   1.596  10.208 -1.3187 -1.7106 -0.6157
    4SAPS   C25  443   6.214   1.704  10.020  0.2538  0.7574  0.0036
    4SAPS   H5R  444   6.229   1.813  10.023 -0.8674  0.9149  1.0541
    4SAPS   C26  445   6.235   1.637   9.910  0.0475 -0.2803 -0.0582
    4SAPS   H6R  446   6.255   1.693   9.818  2.5991  0.7463  1.0437
    4SAPS   C27  447   6.230   1.485   9.891 -0.6312 -1.0094 -0.1440
    4SAPS   H7R  448   6.274   1.431   9.978 -1.1605 -0.7222  0.3070
    4SAPS   H7S  449   6.294   1.463   9.803  1.6597 -0.5366  1.3037
    4SAPS   C28  450   6.087   1.446   9.870 -0.2005 -0.0757  0.3744
    4SAPS   H8R  451   6.036   1.440   9.967 -0.7726  0.4837  0.1102
    4SAPS   C29  452   6.024   1.399   9.762  0.4296  0.3143 -0.6252
    4SAPS   H9R  453   5.917   1.377   9.772  0.2096  1.5844 -0.0144
    4SAPS  C210  454   6.087   1.386   9.624  0.9785 -0.1423 -0.7107
    4SAPS  H10R  455   6.194   1.415   9.624  0.5998  1.5336  1.3579
    4SAPS  H10S  456   6.035   1.461   9.560  0.5659 -0.9071 -1.2863
    4SAPS  C211  457   6.075   1.250   9.569 -0.2673  0.8604 -0.0267
    4SAPS  H11R  458   6.123   1.173   9.631 -0.1719  0.8643 -0.0959
    4SAPS  C212  459   6.013   1.200   9.463  0.4222  0.2743  0.0146
    4SAPS  H12R  460   6.022   1.092   9.449  0.8071  0.5203 -1.9229
    4SAPS  C213  461   5.935   1.274   9.354  0.0661  0.1736  0.3512
    4SAPS  H13R  462   5.894   1.370   9.392 -1.7246 -0.2400 -0.4317
    4SAPS  H13S  463   5.843   1.218   9.329  1.0591 -0.5321 -1.9315
    4SAPS  C214  464   6.009   1.302   9.227  0.0916  0.2724  0.0221
    4SAPS  H14R  465   6.113   1.336   9.236 -0.2438  0.8688  1.9829
    4SAPS  C215  466   5.968   1.272   9.101  0.0137 -0.5649  0.4839
    4SAPS  H15R  467   6.032   1.301   9.017  2.0178  1.1834  2.4679
    4SAPS  C216  468   5.841   1.204   9.065  0.3751 -0.2354  0.3026
    4SAPS  H16R  469   5.817   1.126   9.141 -0.3101 -0.7649 -0.4359
    4SAPS  H16S  470   5.873   1.148   8.975  2.0772 -0.6214  1.1036
    4SAPS  C217  471   5.718   1.302   9.038 -0.4576 -1.0737  0.0553
    4SAPS  H17R  472   5.770   1.380   8.979  0.6411 -0.9089  1.2026
    4SAPS  H17S  473   5.673   1.351   9.127 -0.3307  0.0252 -0.4715
    4SAPS  C218  474   5.607   1.226   8.968  0.3239 -0.0835 -0.9037
    4SAPS  H18R  475   5.515   1.288   8.957  0.9908  0.8320 -1.3930
    4SAPS  H18S  476   5.592   1.136   9.032  2.4779  0.4847  0.4833
    4SAPS  C219  477   5.641   1.178   8.826  0.1215 -0.3206  0.2384
    4SAPS  H19R  478   5.716   1.097   8.830  1.7904  1.1593  0.1416
    4SAPS  H19S  479   5.688   1.270   8.785 -0.2154  0.1253  0.8411
    4SAPS  C220  480   5.510   1.142   8.748 -0.1418 -0.3374  0.6939
    4SAPS  H20R  481   5.435   1.223   8.762 -1.1292 -0.9516 -0.8026
    4SAPS  H20S  482   5.458   1.054   8.792  0.0080  0.7409  3.2475
    4SAPS  H20T  483   5.527   1.127   8.640  3.5799  1.2222  0.9130
    4SAPS   C33  484   5.801   2.248  10.193  0.6441 -0.6671  0.1197
    4SAPS   H3X  485   5.729   2.270  10.274 -0.5113  0.6877 -1.2008
    4SAPS   H3Y  486   5.759   2.191  10.107 -2.6837  0.7207  0.6794
    4SAPS   C34  487   5.835   2.390  10.153 -0.3853 -0.1856 -0.6929
    4SAPS   H4X  488   5.857   2.449  10.244  0.6675 -0.0277 -1.0441
    4SAPS   H4Y  489   5.757   2.434  10.087 -1.0322  0.7142  0.6240
    4SAPS   C35  490   5.950   2.395  10.055  0.5203 -0.4457 -0.0905
    4SAPS   H5X  491   6.044   2.340  10.079  0.4385 -1.0972 -1.1879
    4SAPS   H5Y  492   5.982   2.501  10.062  0.5033 -0.4106 -0.4771
    4SAPS   C36  493   5.919   2.350   9.909 -0.3354 -0.5326 -0.1941
    4SAPS   H6X  494   5.820   2.390   9.878 -0.2911  1.5823  2.0874
    4SAPS   H6Y  495   5.912   2.239   9.903  0.0172 -0.6541  1.2557
    4SAPS   C37  496   6.021   2.407   9.807  0.0589 -0.6325 -0.8978
    4SAPS   H7X  497   6.112   2.351   9.836 -0.4609  0.2478  3.0516
    4SAPS   H7Y  498   6.035   2.516   9.826 -0.5667 -0.6116 -0.4985
    4SAPS   C38  499   5.990   2.383   9.657  0.1084  0.3000 -0.3400
    4SAPS   H8X  500   5.887   2.415   9.630  0.9307  1.8558 -1.8616
    4SAPS   H8Y  501   5.996   2.278   9.619  1.4915  1.2588 -3.0495
    4SAPS   C39  502   6.087   2.466   9.584 -0.0243 -0.7109 -0.3736
    4SAPS   H9X  503   6.188   2.421   9.593  0.0320 -0.3702  0.8784
    4SAPS   H9Y  504   6.092   2.568   9.628 -1.3203 -0.3297 -1.0494
    4SAPS  C310  505   6.041   2.503   9.441  0.0866 -1.1805  0.0518
    4SAPS  H10X  506   6.130   2.546   9.389 -0.2229 -0.8384 -0.2014
    4SAPS  H10Y  507   5.963   2.582   9.434  0.9266 -0.4227 -1.2267
    4SAPS  C311  508   5.998   2.378   9.358  0.2426  0.1049 -0.1873
    4SAPS  H11X  509   5.897   2.341   9.388  0.2299  0.7878  0.6409
    4SAPS  H11Y  510   6.074   2.299   9.377 -1.1986 -1.4138 -0.4280
    4SAPS  C312  511   6.010   2.389   9.209 -0.0165 -0.2402  0.4007
    4SAPS  H12X  512   6.100   2.451   9.187 -0.3143  0.8037  1.9568
    4SAPS  H12Y  513   5.929   2.457   9.174 -0.2161 -0.2488  0.8405
    4SAPS  C313  514   6.015   2.263   9.130  0.0403 -0.3069 -0.1938
    4SAPS  H13X  515   5.942   2.190   9.172 -1.0913  0.3666 -0.9749
    4SAPS  H13Y  516   6.118   2.224   9.145  0.0685  0.0182  0.5084
    4SAPS  C314  517   6.000   2.296   8.978  0.6873  0.0375 -0.5279
    4SAPS  H14X  518   6.091   2.353   8.948  2.3197 -0.5986  2.6987
    4SAPS  H14Y  519   5.904   2.344   8.950 -1.4220 -2.8748  1.2080
    4SAPS  C315  520   6.009   2.173   8.886 -0.0496  0.5052 -0.3655
    4SAPS  H15X  521   6.098   2.110   8.906  0.0437  1.3300  2.2396
    4SAPS  H15Y  522   6.020   2.208   8.781  1.0260  2.6244  0.3917
    4SAPS  C316  523   5.883   2.083   8.914 -0.3758 -0.3533 -0.3456
    4SAPS  H16X  524   5.878   2.062   9.023 -1.3604 -2.4962 -0.7509
    4SAPS  H16Y  525   5.891   1.986   8.861  2.0955  0.2925 -1.2742
    4SAPS  C317  526   5.759   2.146   8.853  0.3475  0.4054  0.1642
    4SAPS  H17X  527   5.784   2.174   8.749 -2.1929 -0.4780 -0.7578
    4SAPS  H17Y  528   5.733   2.239   8.908  0.0874  1.6449 -1.9678
    4SAPS  C318  529   5.643   2.056   8.856 -0.3355  0.0184  0.2914
    4SAPS  H18X  530   5.657   1.970   8.787 -0.2910  0.5218 -0.3435
    4SAPS  H18Y  531   5.551   2.114   8.834 -0.3447 -0.1982 -0.2541
    4SAPS  H18Z  532   5.620   2.011   8.955 -0.7549  0.2973  0.3236
    5SAPS     N  533   4.006   1.216  10.991  0.1955 -0.7170  0.5439
    5SAPS   HN1  534   4.027   1.278  10.911  2.2189  1.1095  2.3536
    5SAPS   HN2  535   4.067   1.132  10.990  0.4128 -0.5607  0.6645
    5SAPS   HN3  536   3.912   1.173  10.982  0.6814 -1.9450  1.0601
    5SAPS   C12  537   4.009   1.283  11.122  0.0792 -0.1846  0.1611
    5SAPS  H12A  538   3.999   1.206  11.197  0.2993 -0.7041 -0.3339
    5SAPS   C13  539   4.157   1.346  11.156 -0.2828  0.0540  0.0060
    5SAPS  O13A  540   4.252   1.305  11.091  0.2646  0.4175 -0.1774
    5SAPS  O13B  541   4.167   1.397  11.271  0.3837 -0.0685 -0.3562
    5SAPS   C11  542   3.900   1.392  11.132 -0.0823  0.1481  0.0651
    5SAPS  H11A  543   3.909   1.460  11.044 -0.6694 -0.6967 -0.6686
    5SAPS  H11B  544   3.912   1.452  11.225 -2.2581  0.5336  0.1494
    5SAPS     P  545   3.643   1.417  11.152 -0.1364 -0.8178  0.4566
    5SAPS   O13  546   3.527   1.335  11.106 -0.0648 -0.5682 -0.3710
    5SAPS   O14  547   3.638   1.462  11.292  0.1446  0.2822  0.0426
    5SAPS   O12  548   3.774   1.336  11.136  0.3786  0.3244 -0.8012
    5SAPS   O11  549   3.662   1.541  11.060  0.1089 -1.2363 -0.6076
    5SAPS    C1  550   3.635   1.528  10.922 -0.0791  0.3780  0.4787
    5SAPS    HA  551   3.644   1.424  10.885 -4.9730  0.6227 -2.4109
    5SAPS    HB  552   3.527   1.553  10.905 -1.1752 -2.5429  2.4206
    5SAPS    C2  553   3.730   1.609  10.825  0.5579 -0.1118 -0.3225
    5SAPS    HS  554   3.834   1.572  10.842  0.4759 -0.5199 -0.6774
    5SAPS   O21  555   3.719   1.753  10.848 -0.3248 -0.2177 -0.0688
    5SAPS   C21  556   3.836   1.824  10.845  0.4206  0.2089 -0.5900
    5SAPS   O22  557   3.946   1.781  10.826  0.0569 -0.0958 -0.5396
    5SAPS   C22  558   3.811   1.975  10.877 -0.6784 -0.8482 -0.8307
    5SAPS   H2R  559   3.706   2.010  10.889  0.0660  1.4687 -0.6863
    5SAPS   H2S  560   3.860   2.001  10.973 -2.2695  0.4277 -0.3098
    5SAPS    C3  561   3.703   1.582  10.677  0.1715  0.7882  0.0478
    5SAPS    HX  562   3.618   1.647  10.648 -0.4057 -0.9795 -2.6352
    5SAPS    HY  563   3.655   1.484  10.656  2.6624 -0.9539  1.9099
    5SAPS   O31  564   3.811   1.614  10.591 -0.7302  0.7456  0.3170
    5SAPS   C31  565   3.923   1.538  10.598  0.1224  0.3160 -0.1085
    5SAPS   O32  566   3.946   1.440  10.668  0.0905 -0.1684 -0.3923
    5SAPS   C32  567   4.008   1.572  10.481 -0.4833  0.0132  0.6891
    5SAPS   H2X  568   4.102   1.622  10.512  1.0117  0.0344 -3.2867
    5SAPS   H2Y  569   3.960   1.634  10.402  3.9740  1.0134 -1.5582
    5SAPS   C23  570   3.880   2.075  10.776 -0.4810 -0.6084 -0.3129
    5SAPS   H3R  571   3.989   2.060  10.783 -0.0127  2.8072  2.2591
    5SAPS   H3S  572   3.860   2.181  10.805  1.4739 -0.5327  0.8581
    5SAPS   C24  573   3.832   2.058  10.631  0.4787 -0.0420  0.3115
    5SAPS   H4R  574   3.823   1.950  10.605  1.4081  0.2978 -1.5880
    5SAPS   H4S  575   3.889   2.118  10.557  0.1632  0.6227  0.5980
    5SAPS   C25  576   3.691   2.107  10.632  0.1564  0.4694 -0.2599
    5SAPS   H5R  577   3.675   2.179  10.713  2.4231 -1.9553  2.5901
    5SAPS   C26  578   3.592   2.055  10.559  0.4099 -0.3462 -0.5518
    5SAPS   H6R  579   3.493   2.102  10.570 -0.7152 -2.8739  1.3824
    5SAPS   C27  580   3.611   1.941  10.464  0.3805  0.6652 -0.0305
    5SAPS   H7R  581   3.690   1.867  10.490 -0.9438 -0.6075  0.4781
    5SAPS   H7S  582   3.636   1.984  10.364  0.8085  0.4675 -0.0123
    5SAPS   C28  583   3.486   1.865  10.449  0.4525  0.4286  0.4420
    5SAPS   H8R  584   3.457   1.809  10.539 -0.4290 -0.5802 -0.4462
    5SAPS   C29  585   3.414   1.847  10.339 -0.4451  0.3712  0.1536
    5SAPS   H9R  586   3.327   1.781  10.348  0.8255 -1.5205 -0.8620
    5SAPS  C210  587   3.432   1.921  10.212 -0.1613  0.3515  0.0314
    5SAPS  H10R  588   3.537   1.953  10.193 -0.5846  2.3100  0.7777
    5SAPS  H10S  589   3.369   2.012  10.211 -0.9896 -0.2152 -0.9465
    5SAPS  C211  590   3.384   1.845  10.096 -0.4461  0.1641 -0.3064
    5SAPS  H11R  591   3.298   1.780  10.117 -1.4087  1.0024 -1.4823
    5SAPS  C212  592   3.423   1.852   9.970  0.4564  0.3470 -0.0625
    5SAPS  H12R  593   3.390   1.780   9.895  2.1204 -2.4403  1.7061
    5SAPS  C213  594   3.538   1.943   9.926 -0.0104 -0.2911  0.2960
    5SAPS  H13R  595   3.626   1.944   9.993 -0.7655 -1.7923  1.3733
    5SAPS  H13S  596   3.500   2.046   9.915 -0.1299 -0.2543  1.0208
    5SAPS  C214  597   3.577   1.910   9.777 -0.1112 -0.0493  0.4569
    5SAPS  H14R  598   3.522   1.822   9.741  0.2721 -1.2709  2.6579
    5SAPS  C215  599   3.676   1.964   9.700  0.0935  0.2326  0.5853
    5SAPS  H15R  600   3.695   1.926   9.599 -1.4857  0.1811  0.2789
    5SAPS  C216  601   3.769   2.066   9.753  0.0455  0.1971 -0.6654
    5SAPS  H16R  602   3.750   2.090   9.860 -3.1525  0.4982 -1.2022
    5SAPS  H16S  603   3.752   2.161   9.699  1.2592 -0.2395 -1.8611
    5SAPS  C217  604   3.914   2.031   9.747  0.1789 -0.1075  0.3737
    5SAPS  H17R  605   3.933   1.934   9.800 -1.9245 -1.5911 -1.4106
    5SAPS  H17S  606   3.985   2.108   9.784 -0.1605  1.1232 -1.4749
    5SAPS  C218  607   3.954   2.005   9.599 -0.4786 -0.1015 -0.4360
    5SAPS  H18R  608   3.930   1.904   9.560  2.1759 -0.3877 -1.5130
    5SAPS  H18S  609   3.899   2.080   9.538 -0.9833  0.1522  0.3090
    5SAPS  C219  610   4.104   2.035   9.583 -1.1702 -0.7655 -0.3357
    5SAPS  H19R  611   4.160   1.978   9.661 -0.2365  0.3212 -0.1914
    5SAPS  H19S  612   4.120   2.143   9.600 -0.3585 -0.4327 -2.8056
    5SAPS  C220  613   4.158   1.994   9.442  0.0082  0.3813 -0.7645
    5SAPS  H20R  614   4.267   2.010   9.449 -0.0244  0.6877 -0.9377
    5SAPS  H20S  615   4.119   2.055   9.357 -1.8144  0.6915  0.2317
    5SAPS  H20T  616   4.148   1.883   9.436  0.2989  0.1745  1.6510
    5SAPS   C33  617   4.066   1.445  10.409  0.1299  0.3514 -0.8431
    5SAPS   H3X  618   3.982   1.382  10.371  0.4950 -1.3101  0.9170
    5SAPS   H3Y  619   4.110   1.379  10.487  1.1977  1.0182 -0.8602
    5SAPS   C34  620   4.180   1.477  10.309 -0.1145 -0.1971 -0.8509
    5SAPS   H4X  621   4.273   1.521  10.351  0.4665 -1.8187 -0.3940
    5SAPS   H4Y  622   4.135   1.558  10.247 -0.2536  2.3271  2.3274
    5SAPS   C35  623   4.230   1.363  10.223 -0.4997  0.2170 -0.2629
    5SAPS   H5X  624   4.264   1.277  10.284 -0.8893  0.9760  1.0473
    5SAPS   H5Y  625   4.306   1.391  10.146  0.0073 -0.4433 -0.0071
    5SAPS   C36  626   4.117   1.308  10.137 -0.3105  0.6340 -0.2374
    5SAPS   H6X  627   4.060   1.386  10.082 -0.5749 -1.0085 -2.4440
    5SAPS   H6Y  628   4.033   1.272  10.201  0.6669 -1.0815  0.1534
    5SAPS   C37  629   4.167   1.203  10.033 -0.4236  0.6404 -0.1730
    5SAPS   H7X  630   4.241   1.138  10.083 -1.9741 -0.3103  0.9726
    5SAPS   H7Y  631   4.221   1.244   9.945  0.1973 -1.8244 -1.0157
    5SAPS   C38  632   4.054   1.127   9.978  0.3303  0.2484  0.0222
    5SAPS   H8X  633   3.972   1.201   9.963 -0.1457 -0.4091 -0.7072
    5SAPS   H8Y  634   4.026   1.051  10.054 -0.8699  0.3941 -0.2535
    5SAPS   C39  635   4.089   1.060   9.846 -0.2464 -0.0273 -0.1460
    5SAPS   H9X  636   4.014   0.980   9.829  0.4311 -0.7362  0.1421
    5SAPS   H9Y  637   4.195   1.029   9.857 -0.4511 -0.6124  0.1579
    5SAPS  C310  638   4.074   1.151   9.720  0.4415  0.9666 -0.5828
    5SAPS  H10X  639   4.149   1.233   9.720  3.0280 -1.2037  2.0341
    5SAPS  H10Y  640   3.978   1.208   9.727 -0.2153 -0.1175 -0.5880
    5SAPS  C311  641   4.094   1.067   9.591 -0.3655  0.2759 -0.6860
    5SAPS  H11X  642   4.016   0.989   9.597 -0.0640 -0.0496 -0.9580
    5SAPS  H11Y  643   4.197   1.026   9.591 -0.1277  0.8521 -0.2552
    5SAPS  C312  644   4.086   1.157   9.456  0.6284 -0.3878  0.2143
    5SAPS  H12X  645   4.175   1.223   9.465  0.4888 -0.2239  0.3984
    5SAPS  H12Y  646   3.996   1.220   9.462  1.7816  1.5581 -1.5321
    5SAPS  C313  647   4.092   1.075   9.323 -0.4862 -0.5900 -0.1969
    5SAPS  H13X  648   4.066   1.145   9.240  0.0373 -0.3482 -0.1568
    5SAPS  H13Y  649   4.008   1.002   9.325 -1.6521  0.6941  0.2406
    5SAPS  C314  650   4.235   1.013   9.295  0.0701  0.4458  0.5370
    5SAPS  H14X  651   4.256   0.929   9.364 -1.7143  0.8964  1.6931
    5SAPS  H14Y  652   4.317   1.087   9.304 -0.5033  1.1598  0.0523
    5SAPS  C315  653   4.253   0.952   9.154  0.2952  0.5763 -0.7421
    5SAPS  H15X  654   4.222   1.028   9.079 -1.0729  0.0134 -0.7702
    5SAPS  H15Y  655   4.193   0.861   9.134  0.8677 -0.5734  2.2532
    5SAPS  C316  656   4.401   0.905   9.129  0.0998 -0.6436 -0.4316
    5SAPS  H16X  657   4.434   0.835   9.209 -2.7620  0.8630  2.3178
    5SAPS  H16Y  658   4.449   1.003   9.153 -2.8643  1.0365 -0.8656
    5SAPS  C317  659   4.428   0.857   8.992  0.0870 -0.3476 -0.1894
    5SAPS  H17X  660   4.378   0.914   8.910  1.4730 -0.0102 -0.8244
    5SAPS  H17Y  661   4.403   0.748   8.989  1.3120 -0.6683  0.6727
    5SAPS  C318  662   4.579   0.865   8.964 -0.0503  0.4385 -0.4457
    5SAPS  H18X  663   4.588   0.852   8.854 -0.0736  0.2702 -0.4279
    5SAPS  H18Y  664   4.621   0.777   9.018 -2.3325  1.5734  3.5498
    5SAPS  H18Z  665   4.641   0.951   8.998  1.2423 -0.3588 -0.6798
    6SAPS     N  666   4.535   6.323  10.825 -0.0234 -0.5554 -0.2460
    6SAPS   HN1  667   4.589   6.342  10.738 -1.9151 -1.0584 -1.5816
    6SAPS   HN2  668   4.456   6.265  10.790  0.3060 -1.1766  0.0321
    6SAPS   HN3  669   4.493   6.414  10.851  2.2099  0.4892 -0.0457
    6SAPS   C12  670   4.610   6.267  10.941  0.0145 -0.3695  0.0782
    6SAPS  H12A  671   4.709   6.310  10.939  0.0122 -0.2680  1.2401
    6SAPS   C13  672   4.564   6.311  11.079  0.6841 -0.0672  1.1637
    6SAPS  O13A  673   4.465   6.392  11.091  0.2340  0.2460 -0.5539
    6SAPS  O13B  674   4.628   6.277  11.182 -0.3700  0.1076 -0.0754
    6SAPS   C11  675   4.611   6.112  10.921 -0.7162  0.5428 -0.2523
    6SAPS  H11A  676   4.512   6.066  10.942 -0.3173 -0.3934 -0.3628
    6SAPS  H11B  677   4.679   6.076  11.002 -0.4550  0.8044 -0.3520
    6SAPS     P  678   4.775   5.961  10.763  0.0852  0.0744  0.0267
    6SAPS   O13  679   4.903   6.015  10.812 -0.0248  0.5462 -0.3881
    6SAPS   O14  680   4.734   5.834  10.825  0.2341 -0.6339 -0.4755
    6SAPS   O12  681   4.658   6.070  10.789 -0.5344 -0.2988  0.1429
    6SAPS   O11  682   4.784   5.947  10.605 -0.2032  0.4918  0.8155
    6SAPS    C1  683   4.858   6.039  10.526  0.2125 -0.1700 -0.4656
    6SAPS    HA  684   4.959   6.068  10.562  0.5040  0.2659 -1.5865
    6SAPS    HB  685   4.868   5.990  10.427  1.9792  1.3261 -1.0968
    6SAPS    C2  686   4.779   6.166  10.512  0.6737  0.4069  0.1479
    6SAPS    HS  687   4.757   6.207  10.613  0.3468  0.5220  0.0297
    6SAPS   O21  688   4.658   6.145  10.443 -0.5729  0.2890  0.8420
    6SAPS   C21  689   4.567   6.242  10.463  0.5126  1.1951  0.2314
    6SAPS   O22  690   4.574   6.329  10.550  0.2464  0.2110 -0.2169
    6SAPS   C22  691   4.456   6.226  10.361  0.3570 -0.2537  0.4512
    6SAPS   H2R  692   4.398   6.319  10.347  1.6065  0.1983 -2.7051
    6SAPS   H2S  693   4.503   6.206  10.262  1.1772 -1.0432  0.9850
    6SAPS    C3  694   4.862   6.272  10.444  0.0514 -1.2098  0.2229
    6SAPS    HX  695   4.958   6.275  10.500 -1.0034 -4.2551  2.4602
    6SAPS    HY  696   4.820   6.375  10.454 -0.3461 -1.4051  0.5845
    6SAPS   O31  697   4.898   6.232  10.313  0.8351 -0.2316  0.4132
    6SAPS   C31  698   4.813   6.267  10.211  0.3983 -0.4146  0.2004
    6SAPS   O32  699   4.731   6.355  10.217  0.2368  0.6146 -0.2345
    6SAPS   C32  700   4.845   6.189  10.087 -0.4155 -0.5126 -0.2264
    6SAPS   H2X  701   4.903   6.096  10.104 -1.6545 -1.1008  0.9820
    6SAPS   H2Y  702   4.903   6.260  10.024 -1.0931 -0.1827 -0.4839
    6SAPS   C23  703   4.367   6.111  10.401 -0.9062 -0.7084 -0.2395
    6SAPS   H3R  704   4.339   6.117  10.509 -0.3729  1.0113 -0.1627
    6SAPS   H3S  705   4.403   6.012  10.369 -2.0013 -0.4080 -2.5839
    6SAPS   C24  706   4.230   6.118  10.333  0.0108 -0.2310  0.1374
    6SAPS   H4R  707   4.259   6.099  10.228 -1.6648  2.2115 -0.8483
    6SAPS   H4S  708   4.183   6.218  10.326 -0.7730 -0.7074 -2.2995
    6SAPS   C25  709   4.126   6.023  10.376  0.0345 -0.2672  1.2917
    6SAPS   H5R  710   4.075   6.066  10.464  0.2350  0.4735  1.0525
    6SAPS   C26  711   4.114   5.897  10.330  0.1121  0.4325 -0.1006
    6SAPS   H6R  712   4.039   5.830  10.375  3.0225 -0.8608  3.2843
    6SAPS   C27  713   4.195   5.822  10.217  0.6092  0.4754 -0.5000
    6SAPS   H7R  714   4.187   5.712  10.224  0.0565  0.5671  0.5151
    6SAPS   H7S  715   4.304   5.839  10.231  0.7972 -1.3909  0.6828
    6SAPS   C28  716   4.165   5.859  10.078  0.6899  0.1417 -0.4469
    6SAPS   H8R  717   4.059   5.845  10.049  0.3203  0.8287  0.5302
    6SAPS   C29  718   4.251   5.910   9.983 -0.3485 -0.3509  0.2680
    6SAPS   H9R  719   4.211   5.934   9.883  1.1089  0.5912 -0.1160
    6SAPS  C210  720   4.400   5.932   9.989 -0.0839 -0.1452  0.1565
    6SAPS  H10R  721   4.412   5.969  10.093 -4.0958  0.3484  0.6136
    6SAPS  H10S  722   4.433   6.008   9.915  2.1688 -1.3960 -0.2043
    6SAPS  C211  723   4.477   5.806   9.976  0.5962 -0.1517 -0.3813
    6SAPS  H11R  724   4.497   5.747  10.067 -1.2071 -1.3042 -0.6735
    6SAPS  C212  725   4.531   5.755   9.862  1.8330  0.7504  0.0243
    6SAPS  H12R  726   4.564   5.650   9.863  0.5168  0.3210  0.5960
    6SAPS  C213  727   4.501   5.811   9.725 -0.1212  0.4194  0.3150
    6SAPS  H13R  728   4.462   5.915   9.736 -1.5018  0.0778 -0.8997
    6SAPS  H13S  729   4.426   5.751   9.668 -0.1003 -0.0635  0.7873
    6SAPS  C214  730   4.617   5.801   9.633 -0.1943 -0.5264  0.4026
    6SAPS  H14R  731   4.713   5.802   9.687 -0.8040 -1.5178  1.5562
    6SAPS  C215  732   4.622   5.799   9.498 -0.3851  0.6708 -0.7115
    6SAPS  H15R  733   4.722   5.792   9.451 -1.2755  0.2215 -2.6329
    6SAPS  C216  734   4.513   5.817   9.404  0.2366  0.8275 -0.2562
    6SAPS  H16R  735   4.414   5.823   9.454 -1.4029  1.7356 -3.3635
    6SAPS  H16S  736   4.506   5.721   9.348  1.1858 -0.0316  1.0233
    6SAPS  C217  737   4.506   5.929   9.307 -0.1098 -0.3341  0.2815
    6SAPS  H17R  738   4.424   5.910   9.235  0.4830  3.3895 -1.6369
    6SAPS  H17S  739   4.598   5.940   9.246 -0.4921  1.4390 -0.0144
    6SAPS  C218  740   4.471   6.058   9.383 -0.2578 -0.2155 -0.0687
    6SAPS  H18R  741   4.562   6.072   9.445  3.9747 -3.2703 -4.8472
    6SAPS  H18S  742   4.390   6.031   9.454 -0.2892 -0.3396 -0.1509
    6SAPS  C219  743   4.417   6.172   9.295 -0.0686 -0.2372  0.0098
    6SAPS  H19R  744   4.387   6.257   9.359 -2.7474 -0.8768 -0.2555
    6SAPS  H19S  745   4.320   6.146   9.248  0.3057  1.8263 -2.0704
    6SAPS  C220  746   4.525   6.214   9.190  0.7881  0.0933 -0.3354
    6SAPS  H20R  747   4.469   6.289   9.130 -2.3771 -1.8972 -0.0839
    6SAPS  H20S  748   4.554   6.129   9.125  0.3613  1.0515 -1.8461
    6SAPS  H20T  749   4.613   6.255   9.244 -1.2272  3.4527  0.7071
    6SAPS   C33  750   4.721   6.130  10.016  0.2736 -0.0951  0.2469
    6SAPS   H3X  751   4.652   6.216  10.004 -0.6507 -0.5022  2.1739
    6SAPS   H3Y  752   4.675   6.054  10.083  1.1049 -1.2294 -0.4371
    6SAPS   C34  753   4.749   6.056   9.885 -0.2892 -0.0009 -0.0687
    6SAPS   H4X  754   4.657   6.017   9.837 -0.7889  1.5977 -0.4452
    6SAPS   H4Y  755   4.815   5.969   9.908 -1.2885 -0.9236 -0.5814
    6SAPS   C35  756   4.822   6.139   9.777  0.3191  0.3190 -0.6972
    6SAPS   H5X  757   4.923   6.175   9.808 -0.1319  0.6197  0.4919
    6SAPS   H5Y  758   4.758   6.230   9.773 -1.6071 -0.8269  1.3876
    6SAPS   C36  759   4.837   6.092   9.633  0.3598 -0.2570  0.3303
    6SAPS   H6X  760   4.746   6.034   9.606  0.2836  0.5692 -1.3747
    6SAPS   H6Y  761   4.920   6.018   9.635  0.6462  0.0726  1.2171
    6SAPS   C37  762   4.856   6.210   9.534 -0.2065 -0.0333  0.1939
    6SAPS   H7X  763   4.763   6.268   9.547 -0.6578 -1.0464  1.7284
    6SAPS   H7Y  764   4.850   6.180   9.427 -0.8076 -0.5923  0.3800
    6SAPS   C38  765   4.976   6.301   9.555 -0.7294 -0.8594 -0.1203
    6SAPS   H8X  766   5.073   6.247   9.543  1.1497  2.4326 -1.3083
    6SAPS   H8Y  767   4.967   6.349   9.655  1.4037  1.4899 -0.9284
    6SAPS   C39  768   4.989   6.421   9.454  0.0334 -0.3877 -0.1776
    6SAPS   H9X  769   5.076   6.484   9.482  1.0043 -1.8642  0.2622
    6SAPS   H9Y  770   4.904   6.491   9.467 -1.4703 -2.1772  0.1740
    6SAPS  C310  771   5.011   6.370   9.315  1.1975 -0.6232  0.1014
    6SAPS  H10X  772   4.924   6.302   9.304 -0.2247  0.7104  2.3970
    6SAPS  H10Y  773   5.109   6.317   9.315  1.4774 -0.1250  0.9316
    6SAPS  C311  774   5.011   6.475   9.201  0.0745  0.3391 -0.0239
    6SAPS  H11X  775   5.051   6.433   9.106 -2.2640 -0.4160 -0.7310
    6SAPS  H11Y  776   5.076   6.558   9.236 -2.0551  0.9788  2.8381
    6SAPS  C312  777   4.871   6.533   9.164 -0.3454 -0.5768 -0.4066
    6SAPS  H12X  778   4.848   6.595   9.253  2.5486 -0.4489  0.3572
    6SAPS  H12Y  779   4.787   6.460   9.173 -0.7899  0.0298  0.4540
    6SAPS  C313  780   4.864   6.619   9.041 -0.0872  0.4763 -0.0370
    6SAPS  H13X  781   4.945   6.693   9.061  0.3776  0.1602 -0.7147
    6SAPS  H13Y  782   4.767   6.674   9.035 -0.4145  0.0149  0.8428
    6SAPS  C314  783   4.907   6.558   8.916 -0.0797  0.8965  0.3515
    6SAPS  H14X  784   5.015   6.533   8.929  0.5671  1.8626 -2.5245
    6SAPS  H14Y  785   4.902   6.638   8.839 -3.6065  1.5331  1.0510
    6SAPS  C315  786   4.820   6.439   8.866 -0.1449 -0.3713  0.3659
    6SAPS  H15X  787   4.714   6.471   8.875 -0.8263 -2.6810  1.1372
    6SAPS  H15Y  788   4.814   6.363   8.946 -2.4901 -0.8072 -0.1447
    6SAPS  C316  789   4.859   6.398   8.718 -0.1852  0.2239  0.1310
    6SAPS  H16X  790   4.964   6.362   8.721 -1.0960 -2.9110 -0.9825
    6SAPS  H16Y  791   4.858   6.492   8.659 -1.7176 -0.1537 -0.5069
    6SAPS  C317  792   4.758   6.294   8.660 -0.0857 -0.1757 -0.1961
    6SAPS  H17X  793   4.657   6.337   8.675 -0.7611 -2.3287  2.1305
    6SAPS  H17Y  794   4.756   6.196   8.712  0.2203 -0.8799 -1.4663
    6SAPS  C318  795   4.806   6.262   8.516  0.1485  0.0252 -0.6378
    6SAPS  H18X  796   4.809   6.349   8.447  2.2394 -0.0269 -0.6739
    6SAPS  H18Y  797   4.747   6.176   8.478 -2.7617  1.8473 -0.5033
    6SAPS  H18Z  798   4.914   6.235   8.525 -0.5104 -2.4554  0.6165
    7SAPS     N  799   4.842   1.134  10.898 -0.4777  0.1050  0.6469
    7SAPS   HN1  800   4.764   1.112  10.833  1.1637 -0.6613 -1.1700
    7SAPS   HN2  801   4.814   1.210  10.964  2.1324  1.6481  0.0940
    7SAPS   HN3  802   4.920   1.165  10.838 -1.9448  0.3411 -1.2201
    7SAPS   C12  803   4.898   1.028  10.993 -0.5646 -0.0509 -0.4321
    7SAPS  H12A  804   4.959   1.069  11.072 -1.6488 -0.6999  0.7986
    7SAPS   C13  805   4.788   0.959  11.079  0.5604 -0.2572 -0.6434
    7SAPS  O13A  806   4.673   0.944  11.031  0.8844  0.0237 -0.3980
    7SAPS  O13B  807   4.830   0.897  11.181 -0.2962 -0.0951  0.5615
    7SAPS   C11  808   4.975   0.919  10.920  0.3453 -0.0373  0.8285
    7SAPS  H11A  809   4.892   0.887  10.853 -0.0329  0.1373  1.2139
    7SAPS  H11B  810   5.010   0.839  10.988  4.6498  1.2600  0.4543
    7SAPS     P  811   5.159   0.886  10.736 -0.1692  0.4490  0.3474
    7SAPS   O13  812   5.291   0.930  10.684  0.4207 -0.0575  0.3609
    7SAPS   O14  813   5.154   0.746  10.777 -0.0024  0.1763  0.2860
    7SAPS   O12  814   5.090   0.972  10.843  0.8727 -0.2059  0.1519
    7SAPS   O11  815   5.060   0.897  10.614  0.1830 -0.1128  0.0566
    7SAPS    C1  816   5.045   1.006  10.526 -0.2424  0.0259  0.4265
    7SAPS    HA  817   4.968   1.073  10.571 -0.6559 -0.5086  0.5245
    7SAPS    HB  818   5.142   1.059  10.520 -0.3438  0.3610  1.4778
    7SAPS    C2  819   4.992   0.964  10.387  0.4594 -0.0421  0.4389
    7SAPS    HS  820   4.990   1.062  10.334 -2.6424  0.0464  0.5386
    7SAPS   O21  821   4.863   0.907  10.407  0.2017  0.2949  0.6760
    7SAPS   C21  822   4.788   0.903  10.294  0.2870 -0.3194 -0.1606
    7SAPS   O22  823   4.828   0.933  10.182  0.2791  0.1235 -0.4542
    7SAPS   C22  824   4.648   0.844  10.338 -0.0463 -0.0070  0.1606
    7SAPS   H2R  825   4.648   0.737  10.309 -0.2694  0.3894 -1.3629
    7SAPS   H2S  826   4.653   0.840  10.449 -2.8105  0.9827  0.3963
    7SAPS    C3  827   5.091   0.876  10.311  0.7428 -0.8120  0.4204
    7SAPS    HX  828   5.052   0.857  10.209 -2.5369  1.3799  1.1065
    7SAPS    HY  829   5.085   0.778  10.362 -0.9592 -0.9430  0.0193
    7SAPS   O31  830   5.219   0.943  10.309 -0.4166  0.2437 -0.2299
    7SAPS   C31  831   5.326   0.882  10.253 -0.4133 -0.0163  0.1725
    7SAPS   O32  832   5.336   0.765  10.220  0.1864 -0.7303 -0.3705
    7SAPS   C32  833   5.450   0.979  10.259  0.4707 -0.4744 -0.4723
    7SAPS   H2X  834   5.511   0.955  10.349 -2.0236 -1.0448  1.1543
    7SAPS   H2Y  835   5.395   1.074  10.275  0.7730 -0.1138 -1.4881
    7SAPS   C23  836   4.523   0.908  10.271 -0.1222  0.2553 -0.8948
    7SAPS   H3R  837   4.528   0.902  10.161 -1.4673 -2.1779 -0.8836
    7SAPS   H3S  838   4.517   1.014  10.304  1.9678  0.2233 -0.2249
    7SAPS   C24  839   4.405   0.831  10.318  0.2700 -0.1187 -1.0558
    7SAPS   H4R  840   4.306   0.878  10.301 -0.1305  0.2221  1.7548
    7SAPS   H4S  841   4.413   0.828  10.429 -0.0445  2.5822 -0.8983
    7SAPS   C25  842   4.391   0.690  10.268  0.8933 -0.9174 -1.1004
    7SAPS   H5R  843   4.446   0.618  10.331 -0.0036 -1.8767 -1.3967
    7SAPS   C26  844   4.316   0.653  10.168 -0.4886 -0.0601  0.4878
    7SAPS   H6R  845   4.310   0.548  10.136 -1.5989  0.5614 -1.5445
    7SAPS   C27  846   4.238   0.743  10.078  1.4855 -0.6731 -0.2090
    7SAPS   H7R  847   4.274   0.727   9.974  1.3880 -1.6811 -0.1014
    7SAPS   H7S  848   4.246   0.849  10.110 -1.9680 -0.7109  1.1812
    7SAPS   C28  849   4.094   0.708  10.078 -0.0939 -0.3711 -0.2754
    7SAPS   H8R  850   4.062   0.680  10.179 -0.1887 -1.1092 -0.5028
    7SAPS   C29  851   4.003   0.690   9.983 -0.0843 -0.3765  0.3566
    7SAPS   H9R  852   3.901   0.654  10.002 -0.4626  1.3183  1.7351
    7SAPS  C210  853   4.026   0.696   9.832  0.7234  0.3721  1.0585
    7SAPS  H10R  854   4.124   0.744   9.816  1.1747 -0.7682  0.2431
    7SAPS  H10S  855   3.953   0.765   9.785  1.0263 -0.5697 -0.9067
    7SAPS  C211  856   4.035   0.557   9.768 -0.3404  0.6459 -0.4516
    7SAPS  H11R  857   4.114   0.486   9.796 -0.2605 -0.6701 -3.6078
    7SAPS  C212  858   3.961   0.521   9.657  0.7150  0.8573 -0.3831
    7SAPS  H12R  859   3.978   0.419   9.618 -0.0981  0.0562  1.2512
    7SAPS  C213  860   3.852   0.596   9.585  0.2066 -0.4452  0.1073
    7SAPS  H13R  861   3.786   0.651   9.656 -0.0636 -1.6309  0.7870
    7SAPS  H13S  862   3.776   0.538   9.529  1.8954  0.4606 -3.4621
    7SAPS  C214  863   3.896   0.705   9.493 -0.0203  0.2781 -1.1665
    7SAPS  H14R  864   3.996   0.745   9.515  0.5300 -1.7730  0.2905
    7SAPS  C215  865   3.827   0.773   9.405 -0.2013 -0.2801  0.1772
    7SAPS  H15R  866   3.884   0.844   9.343  0.1477 -0.8538 -0.1796
    7SAPS  C216  867   3.686   0.745   9.361  0.5368 -0.0223  0.3993
    7SAPS  H16R  868   3.613   0.812   9.411  1.2875  0.7626  0.4818
    7SAPS  H16S  869   3.653   0.644   9.394 -1.8061  0.9067  1.0599
    7SAPS  C217  870   3.669   0.768   9.210  0.0439  0.2495  0.2458
    7SAPS  H17R  871   3.687   0.876   9.192  1.3132  0.2842  1.4782
    7SAPS  H17S  872   3.562   0.753   9.186 -0.2305  3.4088 -0.9440
    7SAPS  C218  873   3.762   0.681   9.121 -0.3617  0.5933  0.5612
    7SAPS  H18R  874   3.745   0.572   9.135 -3.4314  0.7918 -0.6819
    7SAPS  H18S  875   3.867   0.698   9.151  0.1207 -1.9040  0.4506
    7SAPS  C219  876   3.769   0.715   8.966  0.1586  0.3963  0.4343
    7SAPS  H19R  877   3.668   0.704   8.922  0.7788  2.6580 -1.7400
    7SAPS  H19S  878   3.836   0.637   8.923 -2.2860 -1.4070 -0.2994
    7SAPS  C220  879   3.815   0.856   8.945 -0.3486  0.1954  0.0555
    7SAPS  H20R  880   3.888   0.850   8.862 -0.4267 -0.3625  0.0216
    7SAPS  H20S  881   3.873   0.886   9.035 -2.3502  0.8941  1.1644
    7SAPS  H20T  882   3.740   0.935   8.925 -2.1755 -1.1029  1.4836
    7SAPS   C33  883   5.530   0.976  10.130 -0.3171 -0.2967  0.0935
    7SAPS   H3X  884   5.534   0.881  10.072 -0.1036  0.2406 -0.7970
    7SAPS   H3Y  885   5.629   1.006  10.171 -0.8283 -0.2596  1.3488
    7SAPS   C34  886   5.497   1.088  10.026 -0.2584 -0.0492 -0.7050
    7SAPS   H4X  887   5.545   1.181  10.061 -0.2447  0.0707 -1.0405
    7SAPS   H4Y  888   5.388   1.111  10.014 -0.4750 -1.1076 -0.8657
    7SAPS   C35  889   5.556   1.063   9.889 -0.2138 -0.1426  0.4276
    7SAPS   H5X  890   5.509   0.975   9.839 -1.3836  1.4973 -1.4741
    7SAPS   H5Y  891   5.662   1.035   9.907 -0.6166 -1.4912  0.8878
    7SAPS   C36  892   5.557   1.185   9.798  0.6165  0.1782 -0.1018
    7SAPS   H6X  893   5.547   1.274   9.864 -0.2050 -1.4437  2.0665
    7SAPS   H6Y  894   5.469   1.194   9.731 -0.4873  2.1982  1.5244
    7SAPS   C37  895   5.682   1.204   9.719 -0.3241  0.4175 -0.3294
    7SAPS   H7X  896   5.714   1.106   9.677  0.2053  0.4332  0.0217
    7SAPS   H7Y  897   5.767   1.238   9.782  0.0653 -0.7803 -0.1746
    7SAPS   C38  898   5.666   1.312   9.608  0.9595  0.2973  0.1849
    7SAPS   H8X  899   5.595   1.265   9.537  0.5203 -1.2433  1.6111
    7SAPS   H8Y  900   5.750   1.335   9.539  0.7101 -0.9544 -0.5582
    7SAPS   C39  901   5.612   1.438   9.661 -0.1952  0.4078  0.0862
    7SAPS   H9X  902   5.675   1.464   9.749  3.1298 -0.9907 -1.6973
    7SAPS   H9Y  903   5.507   1.429   9.694 -1.2285  1.9396 -2.4573
    7SAPS  C310  904   5.619   1.547   9.552 -0.0289  0.5796 -0.7195
    7SAPS  H10X  905   5.570   1.513   9.458 -1.7322 -1.3122  0.7674
    7SAPS  H10Y  906   5.726   1.550   9.522  0.4639 -1.9252  0.5035
    7SAPS  C311  907   5.572   1.686   9.606  0.5412  0.4773  0.3775
    7SAPS  H11X  908   5.632   1.710   9.696 -0.9481 -2.0533  2.1913
    7SAPS  H11Y  909   5.467   1.665   9.636  0.0950 -0.2648 -1.5343
    7SAPS  C312  910   5.569   1.788   9.495 -0.1460  0.0286  0.2323
    7SAPS  H12X  911   5.486   1.772   9.423 -1.7864  1.2350  1.7640
    7SAPS  H12Y  912   5.665   1.801   9.440  0.1086  0.7576  0.8316
    7SAPS  C313  913   5.542   1.932   9.556  0.5485  0.3651  0.2899
    7SAPS  H13X  914   5.605   1.939   9.647 -2.3402 -0.0658  2.4650
    7SAPS  H13Y  915   5.439   1.928   9.596  0.5804 -0.8123  0.2981
    7SAPS  C314  916   5.560   2.051   9.453 -0.5462 -0.2055 -1.2245
    7SAPS  H14X  917   5.502   2.051   9.358  1.4847 -0.2007 -2.5240
    7SAPS  H14Y  918   5.667   2.043   9.423 -0.2149 -0.0562 -0.1152
    7SAPS  C315  919   5.535   2.189   9.510  0.5305 -0.1541  0.9142
    7SAPS  H15X  920   5.608   2.209   9.591  0.3688 -2.9506  1.8576
    7SAPS  H15Y  921   5.431   2.196   9.548 -0.1115  0.5190 -0.8587
    7SAPS  C316  922   5.534   2.307   9.406 -0.0117  0.6455 -0.4367
    7SAPS  H16X  923   5.475   2.272   9.318 -2.5863  3.1310  0.1982
    7SAPS  H16Y  924   5.638   2.322   9.368 -0.4437  0.4879 -1.7345
    7SAPS  C317  925   5.483   2.442   9.462 -0.1923  0.1613  0.5367
    7SAPS  H17X  926   5.405   2.426   9.539 -3.0062  1.3101 -1.8810
    7SAPS  H17Y  927   5.437   2.506   9.383  0.6443 -0.1667 -0.2345
    7SAPS  C318  928   5.596   2.524   9.519 -0.7209 -0.2799 -0.4956
    7SAPS  H18X  929   5.671   2.547   9.441 -0.7064  0.3268 -0.3069
    7SAPS  H18Y  930   5.643   2.455   9.592 -0.9397  1.0539  0.9514
    7SAPS  H18Z  931   5.559   2.620   9.561 -2.0741 -0.5126 -1.1150
    8SAPS     N  932   3.152   1.573  11.661  0.3054 -0.0661 -0.1481
    8SAPS   HN1  933   3.140   1.476  11.627 -0.8655 -0.2015  0.5768
    8SAPS   HN2  934   3.246   1.615  11.643  0.2327 -0.0157 -0.4066
    8SAPS   HN3  935   3.132   1.576  11.764  1.1234 -0.5230  0.0300
    8SAPS   C12  936   3.045   1.648  11.591  0.2534 -0.8358 -0.0124
    8SAPS  H12A  937   2.959   1.584  11.597 -1.6287  1.6704  3.2088
    8SAPS   C13  938   2.999   1.783  11.659 -0.2448  0.3262 -0.6216
    8SAPS  O13A  939   3.060   1.824  11.760  0.6645  0.3463  0.0024
    8SAPS  O13B  940   2.903   1.848  11.608  0.9470  0.5051 -0.2476
    8SAPS   C11  941   3.098   1.666  11.438 -0.1176 -0.4452 -0.3501
    8SAPS  H11A  942   3.167   1.753  11.439 -2.2499  1.4032  2.8077
    8SAPS  H11B  943   3.010   1.709  11.386 -0.0211 -0.5327 -0.5886
    8SAPS     P  944   3.075   1.482  11.248  0.1233  0.0764 -0.2458
    8SAPS   O13  945   3.175   1.386  11.194  0.1519 -0.0327 -0.1754
    8SAPS   O14  946   2.941   1.439  11.298 -0.0084  0.1090  0.4687
    8SAPS   O12  947   3.142   1.540  11.381  0.3449 -0.0245 -0.1938
    8SAPS   O11  948   3.063   1.604  11.145  0.0886  0.2774  0.3851
    8SAPS    C1  949   3.176   1.691  11.123 -0.2021  0.1514 -0.0745
    8SAPS    HA  950   3.153   1.780  11.184 -2.0692  0.7074 -1.4892
    8SAPS    HB  951   3.269   1.636  11.149 -0.3349 -1.1846 -2.2034
    8SAPS    C2  952   3.193   1.728  10.980 -0.1890  0.5555 -0.6070
    8SAPS    HS  953   3.232   1.637  10.928  2.4041 -0.4044  2.7155
    8SAPS   O21  954   3.294   1.838  10.977 -0.0353 -0.3982 -0.0891
    8SAPS   C21  955   3.359   1.838  10.868 -0.0551 -0.7362 -0.0538
    8SAPS   O22  956   3.361   1.748  10.784  0.1115 -0.0663  0.5746
    8SAPS   C22  957   3.440   1.966  10.865 -0.1677 -0.0040 -0.6045
    8SAPS   H2R  958   3.495   1.976  10.961  0.7635  2.0880 -1.2892
    8SAPS   H2S  959   3.510   1.947  10.781  0.7915 -0.3125  0.2443
    8SAPS    C3  960   3.056   1.777  10.920 -0.0428 -0.8190 -0.5330
    8SAPS    HX  961   3.015   1.850  10.993  1.3592  0.2592 -0.7740
    8SAPS    HY  962   2.983   1.694  10.917 -0.5483 -0.3826 -0.5159
    8SAPS   O31  963   3.078   1.841  10.794 -0.4574  0.1551 -0.1161
    8SAPS   C31  964   3.043   1.775  10.690 -0.1241  0.2002  0.2976
    8SAPS   O32  965   3.006   1.660  10.681  0.2040 -0.0139 -0.1411
    8SAPS   C32  966   3.061   1.865  10.563  0.7619 -0.5062  0.2880
    8SAPS   H2X  967   3.162   1.848  10.520  0.1696  1.0570 -1.8554
    8SAPS   H2Y  968   3.068   1.967  10.606 -1.1553 -0.9173  1.7334
    8SAPS   C23  969   3.349   2.094  10.849 -0.4343  0.1001  0.6334
    8SAPS   H3R  970   3.267   2.076  10.921  0.2655 -1.2425  1.1298
    8SAPS   H3S  971   3.302   2.104  10.750 -0.3636 -0.2747  0.5611
    8SAPS   C24  972   3.435   2.218  10.883  0.2107  0.2982 -0.3999
    8SAPS   H4R  973   3.532   2.226  10.830 -0.1671  1.6524 -0.9241
    8SAPS   H4S  974   3.463   2.202  10.990 -2.0367 -2.0300 -0.0543
    8SAPS   C25  975   3.354   2.347  10.869 -0.1025  0.9309  0.3386
    8SAPS   H5R  976   3.247   2.344  10.891 -0.3119 -0.2276 -0.7298
    8SAPS   C26  977   3.399   2.467  10.818  0.4403  0.6822  0.8436
    8SAPS   H6R  978   3.337   2.558  10.811 -0.9043 -0.3277 -3.7540
    8SAPS   C27  979   3.535   2.487  10.755 -0.6512 -0.1422 -1.0649
    8SAPS   H7R  980   3.543   2.590  10.714  1.0807 -0.5672 -1.8910
    8SAPS   H7S  981   3.546   2.416  10.670  0.0321  0.4928 -1.5175
    8SAPS   C28  982   3.650   2.468  10.852 -0.0137 -0.2288  0.1542
    8SAPS   H8R  983   3.617   2.436  10.953 -0.1383 -0.6191 -0.0079
    8SAPS   C29  984   3.777   2.489  10.822  0.3273  0.5318 -0.6508
    8SAPS   H9R  985   3.855   2.464  10.895 -1.5237 -1.1638  0.8584
    8SAPS  C210  986   3.818   2.524  10.677 -0.2278 -0.1489  0.3490
    8SAPS  H10R  987   3.876   2.619  10.684  0.4802 -0.5075 -0.4866
    8SAPS  H10S  988   3.735   2.549  10.607  0.6186 -1.9077 -1.3638
    8SAPS  C211  989   3.912   2.422  10.613 -0.0492 -0.4030 -0.2875
    8SAPS  H11R  990   3.970   2.355  10.678 -1.4461 -1.3822 -0.0014
    8SAPS  C212  991   3.935   2.412  10.479  0.5598 -0.2014  0.1335
    8SAPS  H12R  992   4.022   2.351  10.451  1.5393  1.2759 -0.1414
    8SAPS  C213  993   3.873   2.487  10.359 -0.8872 -0.4728 -0.2554
    8SAPS  H13R  994   3.844   2.592  10.384 -3.5614 -1.8091  2.9925
    8SAPS  H13S  995   3.775   2.449  10.323 -0.5402 -1.2330 -0.4018
    8SAPS  C214  996   3.972   2.482  10.244 -0.5747 -0.5082 -0.5107
    8SAPS  H14R  997   4.055   2.553  10.257 -1.9831  1.3162 -0.9154
    8SAPS  C215  998   3.967   2.413  10.127 -0.5255  0.6561  0.5208
    8SAPS  H15R  999   4.056   2.424  10.064 -1.8093 -2.5992 -2.1815
    8SAPS  C216 1000   3.850   2.329  10.074 -0.0643 -0.3078  0.7674
    8SAPS  H16R 1001   3.839   2.359   9.967 -0.7772  0.9358  1.1640
    8SAPS  H16S 1002   3.747   2.347  10.113 -0.6780 -1.2995 -0.3313
    8SAPS  C217 1003   3.878   2.175  10.095 -0.0047 -0.1381  0.0590
    8SAPS  H17R 1004   3.947   2.148  10.011 -0.1203 -1.9235  0.4874
    8SAPS  H17S 1005   3.788   2.118  10.063 -0.4688  0.8747 -0.4695
    8SAPS  C218 1006   3.917   2.132  10.240  0.1017 -0.1771  0.0357
    8SAPS  H18R 1007   3.824   2.158  10.295 -0.1088 -1.9429  0.5959
    8SAPS  H18S 1008   4.007   2.192  10.264 -0.9497  0.4363  2.7380
    8SAPS  C219 1009   3.940   1.986  10.269  0.3490  0.7484 -0.7208
    8SAPS  H19R 1010   3.844   1.935  10.246  2.0597 -2.6426 -1.0277
    8SAPS  H19S 1011   3.950   2.000  10.379 -0.7850  0.7398 -0.6080
    8SAPS  C220 1012   4.059   1.906  10.218 -0.0985  0.1164  0.5587
    8SAPS  H20R 1013   4.070   1.810  10.273 -4.3854 -0.3292  0.9182
    8SAPS  H20S 1014   4.158   1.954  10.237  0.1522 -0.2130  0.1058
    8SAPS  H20T 1015   4.055   1.875  10.112  1.5035  0.3468  0.3961
    8SAPS   C33 1016   2.953   1.847  10.455  0.1013 -0.4580 -0.1680
    8SAPS   H3X 1017   2.863   1.896  10.498 -0.0261  0.9234 -1.9125
    8SAPS   H3Y 1018   2.919   1.742  10.438  0.4481 -0.5746 -0.1528
    8SAPS   C34 1019   2.987   1.906  10.316 -0.4580 -0.6460  0.2322
    8SAPS   H4X 1020   2.890   1.924  10.264 -0.9095  1.5351  1.6694
    8SAPS   H4Y 1021   3.041   1.830  10.255 -1.4968 -1.7878  0.6822
    8SAPS   C35 1022   3.054   2.042  10.322 -0.8100 -0.7337  0.7478
    8SAPS   H5X 1023   3.163   2.022  10.328 -0.6786 -0.2655 -0.0065
    8SAPS   H5Y 1024   3.037   2.095  10.418 -1.1031 -1.9536  1.4047
    8SAPS   C36 1025   3.039   2.128  10.197 -0.1425 -0.1787 -0.2367
    8SAPS   H6X 1026   3.066   2.058  10.115  0.9356  0.1640 -0.1898
    8SAPS   H6Y 1027   3.114   2.209  10.189  0.1708 -0.5902 -1.9184
    8SAPS   C37 1028   2.895   2.183  10.183  0.3055 -0.3786 -0.0103
    8SAPS   H7X 1029   2.892   2.276  10.244 -1.2201 -1.1555  1.1711
    8SAPS   H7Y 1030   2.820   2.111  10.221 -0.2369  0.9231  1.4917
    8SAPS   C38 1031   2.873   2.216  10.031 -1.1901 -0.2386 -0.1642
    8SAPS   H8X 1032   2.965   2.274  10.011 -2.1125  2.3210  2.3456
    8SAPS   H8Y 1033   2.792   2.292  10.024 -2.8810 -2.0503 -1.2855
    8SAPS   C39 1034   2.839   2.085   9.961 -0.3054 -0.1837 -0.5653
    8SAPS   H9X 1035   2.752   2.035  10.010 -0.8885  1.0204 -0.3246
    8SAPS   H9Y 1036   2.919   2.010   9.976  0.5723  1.1760  2.2597
    8SAPS  C310 1037   2.833   2.095   9.810 -0.3622 -0.2349  0.1072
    8SAPS  H10X 1038   2.754   2.170   9.788 -0.4366 -0.6849 -1.3033
    8SAPS  H10Y 1039   2.803   1.997   9.766  1.0117  0.0606 -1.6591
    8SAPS  C311 1040   2.967   2.132   9.750 -0.5328 -0.0667 -0.1957
    8SAPS  H11X 1041   3.045   2.078   9.807  1.6655  0.8653 -2.1133
    8SAPS  H11Y 1042   2.984   2.239   9.773  1.1842 -0.1239 -1.0580
    8SAPS  C312 1043   2.983   2.094   9.598 -0.2793  0.2358 -0.1875
    8SAPS  H12X 1044   2.908   2.158   9.546 -0.6480 -0.4221 -0.4858
    8SAPS  H12Y 1045   2.955   1.987   9.587 -1.2512  0.3279  1.0809
    8SAPS  C313 1046   3.114   2.117   9.538 -0.2528 -0.7560 -0.2723
    8SAPS  H13X 1047   3.191   2.061   9.594 -2.0076 -3.3572 -0.2757
    8SAPS  H13Y 1048   3.132   2.227   9.538 -2.0112 -0.4242 -1.2757
    8SAPS  C314 1049   3.140   2.066   9.392 -0.1169  0.0288  0.7150
    8SAPS  H14X 1050   3.125   1.956   9.394 -3.4225  0.3957  0.3405
    8SAPS  H14Y 1051   3.247   2.074   9.360 -1.2262  1.9335 -3.0724
    8SAPS  C315 1052   3.047   2.123   9.287  0.1658  0.4998  0.1779
    8SAPS  H15X 1053   3.061   2.233   9.273 -1.1496  0.6061 -0.4215
    8SAPS  H15Y 1054   2.944   2.110   9.328  1.0010 -0.2360  2.1890
    8SAPS  C316 1055   3.046   2.057   9.148 -0.5606  0.4998 -0.6294
    8SAPS  H16X 1056   2.958   2.100   9.096 -1.6822  0.0156  0.8287
    8SAPS  H16Y 1057   3.022   1.949   9.138  3.3136 -0.5745 -0.2696
    8SAPS  C317 1058   3.180   2.070   9.074 -0.3098  0.1488 -0.6748
    8SAPS  H17X 1059   3.260   2.003   9.112 -0.0618  0.1608 -1.1622
    8SAPS  H17Y 1060   3.221   2.170   9.101  0.6310  0.6664 -3.6263
    8SAPS  C318 1061   3.169   2.048   8.923  0.2417  0.1485 -0.5541
    8SAPS  H18X 1062   3.181   1.940   8.898 -0.9031 -0.8169  2.5463
    8SAPS  H18Y 1063   3.238   2.115   8.867 -0.7657  0.3707 -1.5679
    8SAPS  H18Z 1064   3.070   2.083   8.886  0.9472  0.7638 -1.9393
    9SAPS     N 1065   0.652   4.793   6.559 -0.0195  1.0148  0.3894
    9SAPS   HN1 1066   0.684   4.886   6.526  0.2676  0.8214  0.1233
    9SAPS   HN2 1067   0.563   4.799   6.613 -0.2392 -3.5573  0.9723
    9SAPS   HN3 1068   0.714   4.774   6.640 -0.6652  0.4770  0.7706
    9SAPS   C12 1069   0.631   4.702   6.443 -0.3280  0.4693 -0.2845
    9SAPS  H12A 1070   0.573   4.752   6.367  0.8137 -0.4161 -1.7881
    9SAPS   C13 1071   0.756   4.661   6.371 -0.2295  0.1542 -0.7953
    9SAPS  O13A 1072   0.873   4.701   6.412 -0.3939  0.8019 -0.0288
    9SAPS  O13B 1073   0.743   4.605   6.260  0.2657  0.0635 -0.2678
    9SAPS   C11 1074   0.557   4.572   6.483  0.1112 -0.2276  0.6572
    9SAPS  H11A 1075   0.620   4.532   6.565  1.5073  0.0953 -0.2315
    9SAPS  H11B 1076   0.550   4.506   6.393  1.1171 -1.6955  1.6124
    9SAPS     P 1077   0.305   4.504   6.513 -0.2569  0.2428 -0.1002
    9SAPS   O13 1078   0.186   4.557   6.576 -0.5560 -0.2793  0.0924
    9SAPS   O14 1079   0.293   4.485   6.361 -0.3569  0.0150 -0.2130
    9SAPS   O12 1080   0.423   4.604   6.540  0.0275  0.3511 -0.3706
    9SAPS   O11 1081   0.358   4.370   6.580  0.3248 -0.4491 -0.7248
    9SAPS    C1 1082   0.401   4.373   6.718 -0.8034  0.1934 -0.3760
    9SAPS    HA 1083   0.489   4.308   6.735 -0.0570  1.2886  0.0652
    9SAPS    HB 1084   0.426   4.474   6.757 -1.2680 -0.3325  1.3589
    9SAPS    C2 1085   0.283   4.313   6.804 -0.2954 -0.2513  0.7480
    9SAPS    HS 1086   0.202   4.381   6.770  0.9235  0.8814  0.0265
    9SAPS   O21 1087   0.322   4.319   6.939 -0.3656 -0.2642  0.6205
    9SAPS   C21 1088   0.233   4.360   7.025  0.2949  0.0415 -0.5793
    9SAPS   O22 1089   0.130   4.419   6.992  0.3858  0.1537  0.1693
    9SAPS   C22 1090   0.279   4.329   7.166 -0.2748 -0.6456 -0.2652
    9SAPS   H2R 1091   0.390   4.335   7.178 -0.3657  0.9862  0.1051
    9SAPS   H2S 1092   0.238   4.413   7.226  2.7003  0.3165  0.6271
    9SAPS    C3 1093   0.248   4.171   6.757  0.2089 -0.1809  0.8267
    9SAPS    HX 1094   0.337   4.108   6.779  0.1587 -1.0466 -1.2032
    9SAPS    HY 1095   0.222   4.178   6.649 -2.5820  0.9926  1.4967
    9SAPS   O31 1096   0.145   4.096   6.834 -0.5007 -0.1126 -0.0551
    9SAPS   C31 1097   0.027   4.124   6.795  0.0674  0.0107  0.3240
    9SAPS   O32 1098  -0.008   4.198   6.706 -0.3118  0.2755  0.1715
    9SAPS   C32 1099  -0.063   4.076   6.912 -0.8109  0.0274  0.1302
    9SAPS   H2X 1100  -0.007   4.079   7.008 -0.6004  1.1292 -0.0077
    9SAPS   H2Y 1101  -0.084   3.974   6.875  1.9499 -0.1773 -1.1112
    9SAPS   C23 1102   0.197   4.204   7.213 -0.2632 -0.1110  0.7513
    9SAPS   H3R 1103   0.236   4.111   7.166  0.5985  1.3497 -1.6387
    9SAPS   H3S 1104   0.094   4.221   7.173  0.4296  0.6373 -0.7963
    9SAPS   C24 1105   0.192   4.197   7.363 -0.1535  1.1955  0.1321
    9SAPS   H4R 1106   0.136   4.288   7.394 -3.0540 -0.0183 -1.2119
    9SAPS   H4S 1107   0.296   4.210   7.400 -0.6793  2.0636  1.3618
    9SAPS   C25 1108   0.109   4.078   7.419  0.1038  0.0633  0.3021
    9SAPS   H5R 1109   0.035   4.030   7.354 -1.4606 -0.0417  2.0648
    9SAPS   C26 1110   0.117   4.037   7.549 -0.3855 -0.0009  0.7271
    9SAPS   H6R 1111   0.067   3.944   7.581 -0.6793  0.2372  0.9605
    9SAPS   C27 1112   0.200   4.103   7.650 -0.0142  0.1238 -0.2258
    9SAPS   H7R 1113   0.280   4.171   7.614  0.9385 -0.0055  1.5304
    9SAPS   H7S 1114   0.257   4.026   7.706  0.4349 -0.2638 -1.1913
    9SAPS   C28 1115   0.103   4.175   7.744 -0.1271 -0.0006  0.0237
    9SAPS   H8R 1116   0.008   4.205   7.698 -0.6802  0.2750  1.3093
    9SAPS   C29 1117   0.130   4.205   7.868  0.1243  0.4785 -0.3834
    9SAPS   H9R 1118   0.053   4.251   7.931  0.2789  0.1197  0.0775
    9SAPS  C210 1119   0.265   4.180   7.931  0.3093 -0.0607 -0.0365
    9SAPS  H10R 1120   0.335   4.233   7.864 -0.5599 -2.5738 -3.2174
    9SAPS  H10S 1121   0.287   4.071   7.928  0.1358 -0.0758 -0.7822
    9SAPS  C211 1122   0.288   4.222   8.074  0.4227  0.3175 -0.1484
    9SAPS  H11R 1123   0.214   4.175   8.140 -1.6356  2.5726 -0.7347
    9SAPS  C212 1124   0.377   4.313   8.112 -0.6658  0.0167  0.3323
    9SAPS  H12R 1125   0.378   4.342   8.218 -0.1154  1.5997 -0.0776
    9SAPS  C213 1126   0.475   4.391   8.024 -0.0433 -1.2331 -0.2932
    9SAPS  H13R 1127   0.517   4.328   7.942  0.1639 -0.0303 -1.1451
    9SAPS  H13S 1128   0.553   4.429   8.093 -1.2329 -0.2080  0.5200
    9SAPS  C214 1129   0.395   4.514   7.972 -0.3431  0.8858 -0.4404
    9SAPS  H14R 1130   0.328   4.561   8.046 -0.9068 -1.1204  0.3803
    9SAPS  C215 1131   0.384   4.557   7.848 -0.0673  0.2994  0.4078
    9SAPS  H15R 1132   0.312   4.637   7.826 -0.4477 -0.6854 -2.2526
    9SAPS  C216 1133   0.453   4.497   7.731 -0.0336  0.3980 -0.1202
    9SAPS  H16R 1134   0.396   4.408   7.697 -0.6824  0.7475  0.0172
    9SAPS  H16S 1135   0.559   4.477   7.754 -0.0083  3.2803  2.9781
    9SAPS  C217 1136   0.465   4.595   7.610 -0.0079 -0.7307 -0.1155
    9SAPS  H17R 1137   0.527   4.682   7.640  0.5695 -0.2669 -2.4228
    9SAPS  H17S 1138   0.364   4.638   7.589 -0.1667 -1.2827 -0.5107
    9SAPS  C218 1139   0.529   4.533   7.485 -0.4633  0.2906 -0.4726
    9SAPS  H18R 1140   0.476   4.437   7.470 -1.4470  0.4530  1.5461
    9SAPS  H18S 1141   0.627   4.502   7.529 -1.5787  0.1408  2.1285
    9SAPS  C219 1142   0.520   4.634   7.373  0.2851  0.7938  0.0683
    9SAPS  H19R 1143   0.583   4.716   7.413  1.7580 -0.5605  0.6537
    9SAPS  H19S 1144   0.414   4.667   7.369 -1.4896 -4.1175 -2.2492
    9SAPS  C220 1145   0.566   4.576   7.246  0.2833 -0.7695  0.4222
    9SAPS  H20R 1146   0.667   4.530   7.254  0.8706  0.5151  0.7282
    9SAPS  H20S 1147   0.582   4.652   7.166  2.8461 -1.7757 -0.1152
    9SAPS  H20T 1148   0.493   4.505   7.202  1.0562 -2.3575  1.5965
    9SAPS   C33 1149  -0.194   4.155   6.922  0.2123  0.1151 -0.0808
    9SAPS   H3X 1150  -0.261   4.137   6.835 -0.8690 -1.5918  1.0591
    9SAPS   H3Y 1151  -0.166   4.261   6.940 -0.9695  0.3326  0.5313
    9SAPS   C34 1152  -0.284   4.116   7.042 -0.4135  0.7702 -0.1591
    9SAPS   H4X 1153  -0.311   4.010   7.022 -1.5107  1.3294 -1.8339
    9SAPS   H4Y 1154  -0.376   4.177   7.040  1.1881  3.3220 -0.4909
    9SAPS   C35 1155  -0.212   4.120   7.180 -0.2278  0.0397 -0.2787
    9SAPS   H5X 1156  -0.132   4.195   7.160  2.4604 -2.0007  1.9560
    9SAPS   H5Y 1157  -0.163   4.023   7.206 -0.0193  0.0378 -0.6786
    9SAPS   C36 1158  -0.311   4.154   7.293 -0.0986 -0.0297 -0.4982
    9SAPS   H6X 1159  -0.383   4.070   7.304  2.1599 -2.1163 -0.8073
    9SAPS   H6Y 1160  -0.366   4.249   7.280  3.8263  2.7622  1.2955
    9SAPS   C37 1161  -0.234   4.162   7.428  0.3062  0.6899  0.4868
    9SAPS   H7X 1162  -0.140   4.222   7.422  0.7334 -0.0170  0.0458
    9SAPS   H7Y 1163  -0.211   4.058   7.459 -1.0228  0.0243 -0.6670
    9SAPS   C38 1164  -0.324   4.218   7.541  0.1643 -0.4451 -0.1421
    9SAPS   H8X 1165  -0.416   4.161   7.564 -2.4512  3.6036  0.5164
    9SAPS   H8Y 1166  -0.365   4.315   7.505 -2.4157 -1.5543 -0.3742
    9SAPS   C39 1167  -0.255   4.244   7.676  0.4280 -0.4010  0.0633
    9SAPS   H9X 1168  -0.166   4.311   7.666 -0.3786  0.4497 -2.0794
    9SAPS   H9Y 1169  -0.205   4.151   7.710 -0.1406 -0.6057  0.3406
    9SAPS  C310 1170  -0.350   4.293   7.793  0.5646  0.1412 -0.1116
    9SAPS  H10X 1171  -0.411   4.204   7.816  0.4670  0.7356  2.1246
    9SAPS  H10Y 1172  -0.420   4.375   7.763 -1.1289 -1.6542 -1.3355
    9SAPS  C311 1173  -0.264   4.320   7.918 -0.6977  0.4183  0.6066
    9SAPS  H11X 1174  -0.202   4.412   7.917  2.9802 -1.8809 -0.3935
    9SAPS  H11Y 1175  -0.184   4.243   7.925 -0.7975 -0.0324 -2.2313
    9SAPS  C312 1176  -0.349   4.322   8.045 -0.6244  0.0790  0.6182
    9SAPS  H12X 1177  -0.398   4.222   8.050  1.3658 -1.1087 -1.3937
    9SAPS  H12Y 1178  -0.433   4.394   8.028  0.1559  1.2120  1.4495
    9SAPS  C313 1179  -0.268   4.353   8.166 -0.7180  0.1411 -0.1627
    9SAPS  H13X 1180  -0.336   4.391   8.245  0.6811  1.7261  0.3353
    9SAPS  H13Y 1181  -0.206   4.444   8.149 -2.3579  1.5484  1.0650
    9SAPS  C314 1182  -0.179   4.241   8.219 -0.9251  0.3044 -0.3674
    9SAPS  H14X 1183  -0.095   4.213   8.151  0.3665 -0.6346  1.5373
    9SAPS  H14Y 1184  -0.245   4.152   8.222 -1.8532  0.8897 -2.1121
    9SAPS  C315 1185  -0.136   4.261   8.366 -0.2108 -1.1931  0.5723
    9SAPS  H15X 1186  -0.074   4.175   8.398 -0.8681 -1.5476  0.9138
    9SAPS  H15Y 1187  -0.236   4.254   8.415 -1.0322  0.9030 -0.6712
    9SAPS  C316 1188  -0.066   4.395   8.397  0.2309 -0.2421 -0.2925
    9SAPS  H16X 1189  -0.147   4.468   8.378 -0.9330 -1.2616  0.5926
    9SAPS  H16Y 1190   0.022   4.419   8.333  0.2577 -1.5584 -0.7664
    9SAPS  C317 1191  -0.046   4.416   8.551  0.7786 -0.3622 -0.5135
    9SAPS  H17X 1192  -0.136   4.411   8.615 -0.6723  0.7546 -2.3558
    9SAPS  H17Y 1193  -0.035   4.526   8.555 -0.9765 -0.1396 -0.8290
    9SAPS  C318 1194   0.082   4.347   8.603 -0.1117  0.2233 -0.1230
    9SAPS  H18X 1195   0.177   4.405   8.595  0.3674 -0.6017 -0.4777
    9SAPS  H18Y 1196   0.094   4.240   8.576  1.5571  0.4470 -0.3835
    9SAPS  H18Z 1197   0.076   4.336   8.713  2.4052  0.7076  0.1145
   10SAPS     N 1198   5.654   4.736   6.629 -0.1423 -0.2607  0.2061
   10SAPS   HN1 1199   5.746   4.714   6.586  0.0172 -2.0975  1.3677
   10SAPS   HN2 1200   5.672   4.808   6.702 -0.4130 -0.0685  0.0882
   10SAPS   HN3 1201   5.615   4.652   6.676 -0.7443  0.4843  1.0989
   10SAPS   C12 1202   5.562   4.804   6.526 -0.7438 -0.3146 -0.2810
   10SAPS  H12A 1203   5.581   4.743   6.439  0.9989 -2.1045  1.2490
   10SAPS   C13 1204   5.415   4.795   6.567 -1.1278  0.2123  0.7493
   10SAPS  O13A 1205   5.381   4.762   6.683  0.2757  0.9423 -0.0906
   10SAPS  O13B 1206   5.334   4.845   6.485 -0.2738  0.0885  0.1281
   10SAPS   C11 1207   5.607   4.947   6.524 -0.6108  0.7675  0.2008
   10SAPS  H11A 1208   5.572   4.991   6.619 -2.1900  3.0429 -1.3219
   10SAPS  H11B 1209   5.548   5.001   6.447  1.1165  0.1204 -1.6639
   10SAPS     P 1210   5.833   5.072   6.483  0.0585  0.0409 -0.0147
   10SAPS   O13 1211   5.894   5.065   6.351  0.0091 -0.1836 -0.1515
   10SAPS   O14 1212   5.747   5.190   6.507  0.0687  0.2443 -0.3318
   10SAPS   O12 1213   5.752   4.946   6.506  0.5406 -0.2275  0.8343
   10SAPS   O11 1214   5.950   5.078   6.590 -0.0985  0.1227  0.2210
   10SAPS    C1 1215   5.990   4.959   6.662 -0.5761  0.4894 -0.0679
   10SAPS    HA 1216   5.900   4.906   6.700 -1.5103  1.0032 -1.4781
   10SAPS    HB 1217   6.045   4.886   6.600 -0.8027  0.4084 -0.1739
   10SAPS    C2 1218   6.082   4.979   6.783  0.0717 -0.4092  0.4901
   10SAPS    HS 1219   6.111   4.880   6.827 -0.0854 -1.2212 -1.1693
   10SAPS   O21 1220   6.012   5.046   6.890 -0.1783 -0.1003  0.1042
   10SAPS   C21 1221   5.920   4.975   6.954  0.0116  0.8243 -0.1033
   10SAPS   O22 1222   5.901   4.852   6.948  0.6803  0.1086  0.3473
   10SAPS   C22 1223   5.846   5.063   7.056  0.5270 -0.3359  0.0273
   10SAPS   H2R 1224   5.883   5.167   7.048 -1.5839  0.3899 -0.8781
   10SAPS   H2S 1225   5.742   5.061   7.017 -0.7767 -1.6166  3.2035
   10SAPS    C3 1226   6.209   5.056   6.743 -0.3391  0.0980 -0.0392
   10SAPS    HX 1227   6.186   5.162   6.718 -1.6696 -0.1110  0.2316
   10SAPS    HY 1228   6.243   5.009   6.648 -0.5932 -1.0784  0.4504
   10SAPS   O31 1229   6.312   5.050   6.841  0.5537  0.1558 -0.5060
   10SAPS   C31 1230   6.340   5.155   6.913  0.2018 -0.0232  0.0894
   10SAPS   O32 1231   6.281   5.264   6.905 -0.2165  0.0447 -0.3884
   10SAPS   C32 1232   6.474   5.127   6.981 -0.2584 -0.2357  0.2342
   10SAPS   H2X 1233   6.558   5.149   6.912  0.4829  0.7507  1.4073
   10SAPS   H2Y 1234   6.480   5.020   7.009 -0.0332  0.1544  1.7653
   10SAPS   C23 1235   5.852   5.022   7.201  0.3399  0.6644  0.2327
   10SAPS   H3R 1236   5.855   4.912   7.212 -0.1751  0.6789  0.5706
   10SAPS   H3S 1237   5.754   5.048   7.248 -0.4241 -0.1760 -0.8461
   10SAPS   C24 1238   5.966   5.074   7.284  0.2293 -0.4022 -0.5670
   10SAPS   H4R 1239   5.955   5.016   7.378  1.3438 -2.8952 -1.8799
   10SAPS   H4S 1240   5.952   5.181   7.310 -0.2757 -1.0115  1.9420
   10SAPS   C25 1241   6.094   5.047   7.207  0.1895  0.6186  0.5276
   10SAPS   H5R 1242   6.114   5.110   7.118  0.8568 -0.1249  0.1326
   10SAPS   C26 1243   6.195   4.965   7.240  0.1458  1.3999 -0.1678
   10SAPS   H6R 1244   6.276   4.946   7.168 -0.9181  0.9863 -1.3010
   10SAPS   C27 1245   6.196   4.879   7.368 -0.0556 -0.2287 -0.5738
   10SAPS   H7R 1246   6.266   4.795   7.349  2.2599  1.3359  0.4440
   10SAPS   H7S 1247   6.093   4.841   7.385 -0.7673  1.4649 -0.9178
   10SAPS   C28 1248   6.237   4.959   7.497 -0.2076  0.7701 -0.0083
   10SAPS   H8R 1249   6.250   5.068   7.494 -2.6847  1.1139 -2.8908
   10SAPS   C29 1250   6.257   4.902   7.616  0.5528 -0.0835 -0.3037
   10SAPS   H9R 1251   6.288   4.976   7.692  1.0438  0.0760 -0.6528
   10SAPS  C210 1252   6.251   4.761   7.661  0.0500  0.7759 -0.2786
   10SAPS  H10R 1253   6.211   4.692   7.584 -1.2662 -0.2286  1.2390
   10SAPS  H10S 1254   6.161   4.763   7.727  0.3332 -0.6762  0.1859
   10SAPS  C211 1255   6.376   4.713   7.732 -0.1654 -0.4915  0.2298
   10SAPS  H11R 1256   6.453   4.681   7.661 -0.1923  0.0866 -0.0691
   10SAPS  C212 1257   6.386   4.705   7.865 -0.8665  0.0737  0.1502
   10SAPS  H12R 1258   6.482   4.665   7.902 -2.0279 -2.2482  0.8317
   10SAPS  C213 1259   6.288   4.739   7.972 -0.7239 -0.2426 -0.6498
   10SAPS  H13R 1260   6.252   4.644   8.018 -1.4762 -0.9446 -2.5861
   10SAPS  H13S 1261   6.202   4.785   7.919  0.5771 -0.5865 -3.1835
   10SAPS  C214 1262   6.346   4.833   8.071  0.1107 -0.3327 -0.2682
   10SAPS  H14R 1263   6.377   4.931   8.030  0.4316  0.0736  0.9044
   10SAPS  C215 1264   6.377   4.816   8.203  0.0491 -0.3878  0.2830
   10SAPS  H15R 1265   6.425   4.898   8.259  0.3806 -0.9086  0.7777
   10SAPS  C216 1266   6.353   4.692   8.291  0.5128 -0.3674  0.0642
   10SAPS  H16R 1267   6.439   4.623   8.280  0.1996 -0.8808  0.8075
   10SAPS  H16S 1268   6.261   4.638   8.261  0.0463 -1.8437  3.6177
   10SAPS  C217 1269   6.314   4.717   8.444 -0.4547  0.3913  0.2307
   10SAPS  H17R 1270   6.275   4.618   8.477 -2.2833  1.4588  1.4328
   10SAPS  H17S 1271   6.236   4.795   8.451 -1.5939 -0.6074 -0.8394
   10SAPS  C218 1272   6.445   4.761   8.522  0.0835  0.1909 -0.2158
   10SAPS  H18R 1273   6.453   4.869   8.495  1.5480  0.3443  0.7278
   10SAPS  H18S 1274   6.535   4.709   8.481 -1.5760 -1.9604 -1.3162
   10SAPS  C219 1275   6.447   4.766   8.675 -0.5274  0.5099 -0.3386
   10SAPS  H19R 1276   6.347   4.790   8.718 -1.4504 -2.0860 -0.8533
   10SAPS  H19S 1277   6.519   4.844   8.709 -1.6505  1.4837 -0.1264
   10SAPS  C220 1278   6.500   4.624   8.729  0.5515  0.0363  0.4086
   10SAPS  H20R 1279   6.604   4.622   8.689  1.3279  1.6118  2.1739
   10SAPS  H20S 1280   6.442   4.534   8.701  3.3614 -1.7492 -0.0230
   10SAPS  H20T 1281   6.513   4.630   8.839  1.8828 -3.2022  0.5291
   10SAPS   C33 1282   6.500   5.221   7.104  0.1985 -0.4655  0.3465
   10SAPS   H3X 1283   6.405   5.266   7.139  0.0703  0.8188 -1.4922
   10SAPS   H3Y 1284   6.569   5.301   7.069 -1.0322 -0.8342 -3.4312
   10SAPS   C34 1285   6.563   5.150   7.220  0.3325 -0.2800 -0.0401
   10SAPS   H4X 1286   6.674   5.149   7.209  0.3704 -0.7663  0.3433
   10SAPS   H4Y 1287   6.525   5.046   7.229  0.1904 -0.3487 -1.2178
   10SAPS   C35 1288   6.535   5.219   7.353  0.8120  0.0992 -0.3397
   10SAPS   H5X 1289   6.432   5.205   7.391  1.3998 -0.0050  1.2746
   10SAPS   H5Y 1290   6.535   5.329   7.337  1.4084 -0.1459 -2.3395
   10SAPS   C36 1291   6.624   5.187   7.472  0.2355  0.0126  0.4788
   10SAPS   H6X 1292   6.729   5.214   7.449 -0.2403  0.5271 -1.2042
   10SAPS   H6Y 1293   6.610   5.079   7.497 -1.2295  0.1642  0.3769
   10SAPS   C37 1294   6.578   5.257   7.603  0.3783 -0.0076 -0.5337
   10SAPS   H7X 1295   6.469   5.237   7.615 -0.0832  0.4404 -3.2485
   10SAPS   H7Y 1296   6.585   5.368   7.600  0.5251 -0.0266 -1.3898
   10SAPS   C38 1297   6.633   5.194   7.733  0.2812 -0.1035 -0.0165
   10SAPS   H8X 1298   6.739   5.227   7.727  0.9731 -2.3462 -1.1329
   10SAPS   H8Y 1299   6.621   5.083   7.730  3.4644 -0.5829  0.8050
   10SAPS   C39 1300   6.546   5.220   7.857  0.2873  0.2506  0.6200
   10SAPS   H9X 1301   6.448   5.168   7.850 -0.1700  1.0605  0.8095
   10SAPS   H9Y 1302   6.526   5.329   7.869  0.6272  0.2137  1.5454
   10SAPS  C310 1303   6.623   5.160   7.976  0.2017  1.2560 -0.1850
   10SAPS  H10X 1304   6.657   5.055   7.962  0.6553  1.5879 -1.7979
   10SAPS  H10Y 1305   6.561   5.160   8.068 -0.6385  1.9572 -0.7388
   10SAPS  C311 1306   6.750   5.243   8.006  0.2177 -0.6597 -0.3613
   10SAPS  H11X 1307   6.707   5.345   8.015  0.9885 -0.2846 -0.8617
   10SAPS  H11Y 1308   6.825   5.243   7.924  2.0783 -0.5181  1.2527
   10SAPS  C312 1309   6.831   5.204   8.127 -0.0979  0.3079 -0.0046
   10SAPS  H12X 1310   6.882   5.296   8.162 -0.4983  1.7570 -2.9474
   10SAPS  H12Y 1311   6.896   5.118   8.100 -1.5951 -0.8570 -0.0881
   10SAPS  C313 1312   6.741   5.144   8.243  0.1430 -0.2433 -0.4416
   10SAPS  H13X 1313   6.682   5.063   8.195  0.0205  0.3288 -1.2864
   10SAPS  H13Y 1314   6.667   5.220   8.276  0.6176  0.8574 -1.7982
   10SAPS  C314 1315   6.823   5.090   8.353 -0.0472  0.0659 -0.4270
   10SAPS  H14X 1316   6.842   5.176   8.421 -0.7512 -0.9421  1.1180
   10SAPS  H14Y 1317   6.920   5.042   8.330  1.5747  1.5952  2.5878
   10SAPS  C315 1318   6.753   4.988   8.445 -0.1296 -0.0501  0.4466
   10SAPS  H15X 1319   6.747   4.892   8.388  0.5735 -0.1333  0.5125
   10SAPS  H15Y 1320   6.654   5.024   8.481 -0.1160  1.6015 -1.0098
   10SAPS  C316 1321   6.840   4.971   8.570  0.0458 -0.1280 -0.5993
   10SAPS  H16X 1322   6.854   5.064   8.629 -1.3999 -0.2554 -0.0058
   10SAPS  H16Y 1323   6.945   4.948   8.542  0.1207 -0.3789 -0.1268
   10SAPS  C317 1324   6.800   4.854   8.654  0.3396  0.1628 -0.4572
   10SAPS  H17X 1325   6.745   4.780   8.592 -3.2622  1.3532  1.0362
   10SAPS  H17Y 1326   6.722   4.882   8.728 -0.7738 -1.0703 -1.1228
   10SAPS  C318 1327   6.916   4.771   8.708 -0.3996  0.2452  0.0368
   10SAPS  H18X 1328   6.942   4.813   8.808 -3.1736 -3.1330  2.4487
   10SAPS  H18Y 1329   6.999   4.760   8.635  0.5226 -0.9600  1.2090
   10SAPS  H18Z 1330   6.895   4.664   8.729 -4.3615  0.7482 -0.5697
   11SAPS     N 1331   1.701   1.298   5.760  0.4572  1.0130  0.0897
   11SAPS   HN1 1332   1.645   1.263   5.840  1.1489  0.1508  0.2204
   11SAPS   HN2 1333   1.730   1.394   5.786 -0.6826  0.8256  2.2262
   11SAPS   HN3 1334   1.644   1.303   5.673  0.8796 -1.2328 -0.4018
   11SAPS   C12 1335   1.827   1.216   5.724 -0.2119  0.2815  0.0416
   11SAPS  H12A 1336   1.790   1.123   5.682 -0.1642  1.0466 -1.8054
   11SAPS   C13 1337   1.912   1.288   5.615 -0.7995  0.7598  0.2680
   11SAPS  O13A 1338   1.886   1.400   5.575 -0.3045 -0.3602  0.0033
   11SAPS  O13B 1339   2.008   1.225   5.563  0.0947  0.0152  0.0300
   11SAPS   C11 1340   1.907   1.199   5.856 -0.1345  0.8677 -0.3292
   11SAPS  H11A 1341   1.944   1.298   5.890 -1.4173  1.4464 -0.5585
   11SAPS  H11B 1342   1.991   1.131   5.833 -0.3066  0.8656 -0.9592
   11SAPS     P 1343   1.888   1.065   6.080  0.1674  0.0514 -0.3777
   11SAPS   O13 1344   1.792   0.978   6.147 -0.3359  0.2804 -1.0445
   11SAPS   O14 1345   1.999   0.995   6.015  0.1667 -0.6637 -0.5828
   11SAPS   O12 1346   1.821   1.141   5.958  0.1384 -0.2102  0.4110
   11SAPS   O11 1347   1.937   1.181   6.167 -0.4701 -0.6991 -0.2866
   11SAPS    C1 1348   1.849   1.267   6.242  0.1533 -0.5466 -0.4622
   11SAPS    HA 1349   1.861   1.368   6.197 -0.5330 -0.2573 -0.0142
   11SAPS    HB 1350   1.741   1.249   6.225  0.0871 -0.8161  0.2063
   11SAPS    C2 1351   1.868   1.258   6.393 -0.0682  0.3144  0.4064
   11SAPS    HS 1352   1.795   1.326   6.441 -0.9312  0.7117 -1.3969
   11SAPS   O21 1353   2.000   1.293   6.422 -0.0268 -0.3549  0.8470
   11SAPS   C21 1354   2.025   1.423   6.436  0.2197  0.5530  0.9528
   11SAPS   O22 1355   1.943   1.506   6.406  0.2633  0.3036 -0.3969
   11SAPS   C22 1356   2.149   1.436   6.518  0.2666  0.4434  0.1212
   11SAPS   H2R 1357   2.154   1.347   6.585 -1.3182  0.2154 -0.0124
   11SAPS   H2S 1358   2.228   1.457   6.443 -2.0443  0.9832 -2.3403
   11SAPS    C3 1359   1.850   1.113   6.444  0.2183  0.7962 -0.3108
   11SAPS    HX 1360   1.947   1.060   6.432 -1.4655 -3.5218  2.4739
   11SAPS    HY 1361   1.784   1.042   6.389  2.5909 -3.8534  2.2301
   11SAPS   O31 1362   1.818   1.104   6.588 -0.5084  0.5053 -0.7989
   11SAPS   C31 1363   1.696   1.127   6.613 -0.0228  0.0396  0.5687
   11SAPS   O32 1364   1.610   1.142   6.528 -0.0324  0.2483  0.5298
   11SAPS   C32 1365   1.663   1.136   6.762  0.5488 -0.1989  0.2696
   11SAPS   H2X 1366   1.623   1.035   6.782  3.0484 -1.0870  1.2356
   11SAPS   H2Y 1367   1.583   1.213   6.764 -1.4165 -2.1509  0.3477
   11SAPS   C23 1368   2.149   1.565   6.616 -0.1531  0.5828 -0.4219
   11SAPS   H3R 1369   2.129   1.656   6.556  1.3602  2.0500  1.1943
   11SAPS   H3S 1370   2.257   1.566   6.640 -0.0668 -0.7444 -0.6719
   11SAPS   C24 1371   2.067   1.544   6.745  0.1450 -0.1084 -0.1870
   11SAPS   H4R 1372   2.084   1.443   6.787 -1.3145  0.2921  1.4724
   11SAPS   H4S 1373   1.965   1.546   6.702 -0.1629 -1.7893  0.3876
   11SAPS   C25 1374   2.078   1.659   6.845 -0.4018 -0.2553 -0.1261
   11SAPS   H5R 1375   2.138   1.745   6.814  0.9824 -0.2207  2.4050
   11SAPS   C26 1376   2.039   1.649   6.976  0.4465 -0.3540  0.7715
   11SAPS   H6R 1377   2.045   1.727   7.054 -2.7438  0.3439  0.4406
   11SAPS   C27 1378   1.984   1.524   7.035  0.2658  0.5027 -0.4151
   11SAPS   H7R 1379   2.055   1.478   7.108  1.1328 -0.0517 -1.5646
   11SAPS   H7S 1380   1.956   1.454   6.953 -1.5854  2.5456 -1.6329
   11SAPS   C28 1381   1.856   1.568   7.098 -0.8051  0.1651 -0.0218
   11SAPS   H8R 1382   1.837   1.676   7.089  0.8695  0.3744 -1.6474
   11SAPS   C29 1383   1.762   1.491   7.164  0.4333 -0.7927  0.4331
   11SAPS   H9R 1384   1.673   1.538   7.208  1.1862  0.8751  0.2198
   11SAPS  C210 1385   1.777   1.340   7.196 -0.6303  0.0093  0.1310
   11SAPS  H10R 1386   1.828   1.292   7.110 -0.9608 -0.7469  0.3576
   11SAPS  H10S 1387   1.673   1.303   7.205 -1.1239  1.0360 -0.9583
   11SAPS  C211 1388   1.860   1.320   7.322 -0.0074 -0.0102 -0.2791
   11SAPS  H11R 1389   1.968   1.330   7.306 -0.2194  1.5105 -0.9558
   11SAPS  C212 1390   1.806   1.316   7.447 -0.0454 -0.3297 -0.0872
   11SAPS  H12R 1391   1.878   1.297   7.527  1.1828  1.4993 -0.7010
   11SAPS  C213 1392   1.665   1.323   7.483 -0.3986 -0.5655 -0.8182
   11SAPS  H13R 1393   1.629   1.222   7.454  0.3486 -1.3049  0.7747
   11SAPS  H13S 1394   1.607   1.387   7.412  1.2354  1.3705 -0.5095
   11SAPS  C214 1395   1.622   1.346   7.627 -0.6056  0.1571  1.0733
   11SAPS  H14R 1396   1.710   1.379   7.685 -0.9919  0.9961  1.1975
   11SAPS  C215 1397   1.501   1.347   7.682 -0.6249  0.3651  0.0504
   11SAPS  H15R 1398   1.495   1.381   7.787  1.8783  1.8874 -0.2129
   11SAPS  C216 1399   1.377   1.310   7.602 -0.3890 -0.0848 -0.3924
   11SAPS  H16R 1400   1.403   1.241   7.519 -1.3471  0.5719 -1.2657
   11SAPS  H16S 1401   1.368   1.405   7.546  0.8866  0.0627 -0.3630
   11SAPS  C217 1402   1.247   1.267   7.671  0.2141 -0.4410 -0.4103
   11SAPS  H17R 1403   1.276   1.211   7.762  0.2369  4.1128  2.6525
   11SAPS  H17S 1404   1.177   1.211   7.605  0.2399 -1.2211  0.2084
   11SAPS  C218 1405   1.177   1.394   7.729 -0.0743 -0.1908 -0.4203
   11SAPS  H18R 1406   1.159   1.473   7.652  1.2832  1.9116  1.2952
   11SAPS  H18S 1407   1.256   1.435   7.796  0.6460 -2.3726  0.1239
   11SAPS  C219 1408   1.053   1.358   7.811  0.7334 -0.6297  0.7555
   11SAPS  H19R 1409   0.993   1.451   7.823 -0.0553 -1.2337  1.7205
   11SAPS  H19S 1410   1.083   1.336   7.916 -1.3076 -0.0864  1.4951
   11SAPS  C220 1411   0.957   1.251   7.759 -0.2620  0.3590  1.1462
   11SAPS  H20R 1412   0.911   1.268   7.659  2.6298  0.8105 -0.1798
   11SAPS  H20S 1413   0.865   1.249   7.822 -3.0541  0.2346 -2.5996
   11SAPS  H20T 1414   0.997   1.148   7.751 -0.4863  0.4119 -2.3455
   11SAPS   C33 1415   1.787   1.178   6.851 -0.5901 -0.5069 -0.3498
   11SAPS   H3X 1416   1.752   1.226   6.945  0.4391 -2.4209  1.0637
   11SAPS   H3Y 1417   1.857   1.235   6.787 -0.4668 -2.0044 -1.5890
   11SAPS   C34 1418   1.859   1.054   6.892 -0.0714  0.6843 -0.3035
   11SAPS   H4X 1419   1.941   1.021   6.825  0.5845  0.2293  0.7020
   11SAPS   H4Y 1420   1.784   0.972   6.894  2.0857 -1.3772 -0.1213
   11SAPS   C35 1421   1.923   1.055   7.028  0.5923 -0.2310  0.1120
   11SAPS   H5X 1422   1.841   1.097   7.091  1.2897  0.8140  0.3549
   11SAPS   H5Y 1423   2.015   1.117   7.033 -0.2030  1.0944 -0.9267
   11SAPS   C36 1424   1.946   0.917   7.087 -0.0967  0.1154 -0.3650
   11SAPS   H6X 1425   2.021   0.877   7.016  0.2335  0.8995 -0.4766
   11SAPS   H6Y 1426   1.855   0.854   7.086  0.2647 -0.4393  0.6601
   11SAPS   C37 1427   2.002   0.934   7.232  1.0586 -0.2987 -1.0171
   11SAPS   H7X 1428   1.928   1.004   7.275  0.8973 -0.1585 -1.5092
   11SAPS   H7Y 1429   2.096   0.991   7.227  0.4215  1.0059  0.9633
   11SAPS   C38 1430   2.023   0.806   7.305  0.0548 -0.4513  0.7589
   11SAPS   H8X 1431   2.083   0.738   7.242 -1.0348  1.5613 -2.7439
   11SAPS   H8Y 1432   1.923   0.759   7.311 -0.7490  0.5380 -2.6172
   11SAPS   C39 1433   2.061   0.826   7.451  0.4734  0.2051 -0.2713
   11SAPS   H9X 1434   1.980   0.885   7.499  0.2650  0.4341 -0.8905
   11SAPS   H9Y 1435   2.157   0.881   7.438  0.0740  0.5806 -1.8246
   11SAPS  C310 1436   2.071   0.690   7.523 -0.0267  0.8946  0.4181
   11SAPS  H10X 1437   2.146   0.623   7.474 -1.8983 -1.6445  0.8505
   11SAPS  H10Y 1438   1.972   0.642   7.515  0.4370  0.0480 -0.4893
   11SAPS  C311 1439   2.107   0.713   7.674 -0.2398  0.4664 -0.1368
   11SAPS  H11X 1440   2.124   0.612   7.716  1.6286  1.3484  1.3404
   11SAPS  H11Y 1441   2.027   0.760   7.735  1.1728  0.5986  1.7048
   11SAPS  C312 1442   2.237   0.795   7.700 -0.4296 -0.6625  0.4247
   11SAPS  H12X 1443   2.214   0.902   7.682  1.0646  0.6415  4.9511
   11SAPS  H12Y 1444   2.303   0.775   7.613  2.0089  2.9706  1.2360
   11SAPS  C313 1445   2.312   0.778   7.832 -0.1785 -0.5471 -0.4273
   11SAPS  H13X 1446   2.412   0.826   7.839 -0.9425  1.1880 -0.8221
   11SAPS  H13Y 1447   2.334   0.670   7.845  2.6326 -0.1607 -1.3510
   11SAPS  C314 1448   2.238   0.830   7.945 -0.3269  0.5476 -0.3296
   11SAPS  H14X 1449   2.128   0.818   7.934 -0.8029  1.4447  2.4432
   11SAPS  H14Y 1450   2.251   0.940   7.953  2.0203  0.3066 -0.1818
   11SAPS  C315 1451   2.260   0.756   8.084  0.1787 -0.0566  0.3225
   11SAPS  H15X 1452   2.365   0.764   8.118  0.2246 -0.2391  0.2243
   11SAPS  H15Y 1453   2.223   0.652   8.073 -5.2250  1.4292  1.4240
   11SAPS  C316 1454   2.168   0.821   8.187 -0.5435  0.5252 -0.3098
   11SAPS  H16X 1455   2.064   0.813   8.149 -0.3335  2.0583 -1.2863
   11SAPS  H16Y 1456   2.196   0.928   8.177  2.3615 -0.3012 -2.5793
   11SAPS  C317 1457   2.174   0.777   8.331  0.1747  0.6669 -0.6865
   11SAPS  H17X 1458   2.277   0.786   8.370 -0.8620  3.8540  1.8297
   11SAPS  H17Y 1459   2.140   0.671   8.325  0.1655  0.5419  1.0981
   11SAPS  C318 1460   2.081   0.860   8.422 -0.1197  0.3182  0.2272
   11SAPS  H18X 1461   2.099   0.970   8.416  0.9880  0.2276  1.4094
   11SAPS  H18Y 1462   2.103   0.823   8.524  0.0319 -1.9943 -0.5884
   11SAPS  H18Z 1463   1.977   0.837   8.389 -0.2319 -0.7317  1.2318
   12SAPS     N 1464   1.136   3.063   6.191  0.0892 -0.4774  0.2032
   12SAPS   HN1 1465   1.189   3.075   6.103  1.4643  0.5744  1.1354
   12SAPS   HN2 1466   1.126   3.152   6.243 -0.4966  0.1547 -0.9556
   12SAPS   HN3 1467   1.195   3.007   6.256  0.7505 -0.1000 -0.0587
   12SAPS   C12 1468   1.020   2.983   6.160  0.0455  0.4673  0.5756
   12SAPS  H12A 1469   0.959   2.988   6.249 -0.8232 -0.8726  0.0913
   12SAPS   C13 1470   0.925   3.017   6.039  0.6742 -0.5809  0.3674
   12SAPS  O13A 1471   0.949   3.122   5.976 -0.8225 -0.3297  0.2507
   12SAPS  O13B 1472   0.837   2.943   6.005 -0.2761  0.4251  0.0480
   12SAPS   C11 1473   1.086   2.841   6.135 -0.3549  0.6190  0.5738
   12SAPS  H11A 1474   1.136   2.836   6.035 -0.5110 -0.3836  0.5372
   12SAPS  H11B 1475   1.002   2.769   6.129  1.2794 -1.3821  0.6993
   12SAPS     P 1476   1.176   2.683   6.325 -0.1688 -0.5534 -0.4040
   12SAPS   O13 1477   1.118   2.571   6.242  0.0578 -0.4473 -0.2715
   12SAPS   O14 1478   1.311   2.652   6.376  0.5528 -0.0384  0.3226
   12SAPS   O12 1479   1.182   2.807   6.237 -0.1867  0.2505  0.3147
   12SAPS   O11 1480   1.070   2.726   6.430 -0.4815  0.1198  0.1037
   12SAPS    C1 1481   1.083   2.846   6.510 -0.2819  0.5848 -0.4590
   12SAPS    HA 1482   1.170   2.908   6.480  0.8471 -1.1884 -0.9664
   12SAPS    HB 1483   0.997   2.915   6.498 -3.3836 -2.4722  2.2705
   12SAPS    C2 1484   1.085   2.814   6.660  0.3994 -0.4737  0.0824
   12SAPS    HS 1485   1.087   2.906   6.723 -1.4200  0.7020 -1.4631
   12SAPS   O21 1486   1.186   2.721   6.684 -0.2735 -0.0059 -0.3398
   12SAPS   C21 1487   1.305   2.788   6.697  0.0184  0.6458 -0.4322
   12SAPS   O22 1488   1.326   2.904   6.698  0.6679  0.1932  0.2606
   12SAPS   C22 1489   1.407   2.681   6.739  0.0843  0.4662  0.1603
   12SAPS   H2R 1490   1.467   2.655   6.650 -1.6548 -0.8769 -0.6867
   12SAPS   H2S 1491   1.477   2.728   6.811  3.0911 -0.8068 -1.7230
   12SAPS    C3 1492   0.949   2.758   6.702  0.3777  0.2660 -0.6425
   12SAPS    HX 1493   0.941   2.656   6.658  0.2181 -0.6973  1.5359
   12SAPS    HY 1494   0.860   2.811   6.662 -1.9961 -1.5975  1.8705
   12SAPS   O31 1495   0.944   2.751   6.846  0.7155 -0.1734 -0.4205
   12SAPS   C31 1496   0.911   2.638   6.909  0.8754 -0.6063 -0.4535
   12SAPS   O32 1497   0.890   2.532   6.855 -0.9177 -0.7643  0.6923
   12SAPS   C32 1498   0.908   2.661   7.062  0.6762 -0.0004  0.0425
   12SAPS   H2X 1499   0.802   2.659   7.096  0.9771 -2.5616  1.1014
   12SAPS   H2Y 1500   0.943   2.764   7.085  0.6109 -0.0198  0.2304
   12SAPS   C23 1501   1.343   2.558   6.807 -1.0238  0.2264  0.1939
   12SAPS   H3R 1502   1.273   2.504   6.740 -1.9596  0.0773  1.2659
   12SAPS   H3S 1503   1.283   2.591   6.895  2.7344  3.6830  1.7997
   12SAPS   C24 1504   1.438   2.447   6.863 -0.2400 -0.4270  0.8693
   12SAPS   H4R 1505   1.489   2.405   6.774 -1.4359 -0.5341  0.2124
   12SAPS   H4S 1506   1.374   2.366   6.903 -0.7858 -0.4050  0.0653
   12SAPS   C25 1507   1.545   2.482   6.960 -0.0444  0.1652  0.5479
   12SAPS   H5R 1508   1.641   2.509   6.913 -0.7865 -0.5783 -1.4862
   12SAPS   C26 1509   1.527   2.487   7.093  0.1570 -0.3578 -0.0085
   12SAPS   H6R 1510   1.609   2.516   7.160  0.5597  0.5209 -0.8577
   12SAPS   C27 1511   1.395   2.464   7.166 -0.3425 -0.0910 -0.1591
   12SAPS   H7R 1512   1.411   2.375   7.232  0.3866 -0.3428 -0.6574
   12SAPS   H7S 1513   1.313   2.452   7.092  1.9446 -2.2496 -2.5652
   12SAPS   C28 1514   1.377   2.582   7.259 -0.3526  0.4091 -0.1437
   12SAPS   H8R 1515   1.325   2.669   7.217 -1.7576  0.7794  2.1974
   12SAPS   C29 1516   1.412   2.585   7.393 -0.7354 -0.5458 -0.2339
   12SAPS   H9R 1517   1.418   2.685   7.437  0.0300 -0.6972  0.0254
   12SAPS  C210 1518   1.476   2.477   7.478 -0.9951 -0.1636 -0.4729
   12SAPS  H10R 1519   1.526   2.525   7.564  0.7777 -0.0922 -1.5015
   12SAPS  H10S 1520   1.555   2.428   7.418 -1.4625  0.0064 -1.2470
   12SAPS  C211 1521   1.367   2.390   7.532  0.3656 -0.4767  0.4461
   12SAPS  H11R 1522   1.311   2.333   7.457  0.5104 -1.0845  0.7885
   12SAPS  C212 1523   1.342   2.351   7.658  0.9593  0.1780 -0.7333
   12SAPS  H12R 1524   1.256   2.283   7.670 -0.3976  1.8199 -0.7904
   12SAPS  C213 1525   1.406   2.380   7.787 -0.3149  0.1345  0.0967
   12SAPS  H13R 1526   1.516   2.381   7.771 -0.3848 -1.7598 -0.7809
   12SAPS  H13S 1527   1.385   2.294   7.854  0.1163  0.8905  1.2347
   12SAPS  C214 1528   1.348   2.510   7.837  0.1713  0.1206  0.6444
   12SAPS  H14R 1529   1.385   2.597   7.780  1.8023 -2.2002 -2.1073
   12SAPS  C215 1530   1.267   2.538   7.943 -0.2226 -0.3308  0.0513
   12SAPS  H15R 1531   1.239   2.643   7.963  0.1258  0.1128 -1.6101
   12SAPS  C216 1532   1.219   2.438   8.038  0.2511  0.3970  0.1425
   12SAPS  H16R 1533   1.272   2.340   8.033 -0.6544 -0.1815  1.4288
   12SAPS  H16S 1534   1.114   2.419   8.007  0.4717  1.2620 -1.1908
   12SAPS  C217 1535   1.211   2.485   8.183  0.5102 -0.3800  0.1466
   12SAPS  H17R 1536   1.299   2.548   8.207 -0.1047  0.4113  0.3577
   12SAPS  H17S 1537   1.203   2.399   8.253  0.5420  1.9208  3.1719
   12SAPS  C218 1538   1.078   2.555   8.203 -0.2869 -0.9587 -0.6380
   12SAPS  H18R 1539   0.998   2.487   8.167 -2.6406  0.1909  2.0054
   12SAPS  H18S 1540   1.076   2.652   8.150  0.5380  1.1367  2.8125
   12SAPS  C219 1541   1.041   2.576   8.353  0.0495  0.0370  0.1137
   12SAPS  H19R 1542   0.949   2.638   8.348 -0.4584 -0.6661  0.6036
   12SAPS  H19S 1543   1.115   2.637   8.409  1.2273 -0.8544 -0.4360
   12SAPS  C220 1544   1.003   2.451   8.419  0.6504 -0.6179 -0.5942
   12SAPS  H20R 1545   0.962   2.455   8.522  0.0265 -1.5044 -0.7963
   12SAPS  H20S 1546   1.092   2.385   8.410  3.1538  2.4001 -0.0349
   12SAPS  H20T 1547   0.919   2.409   8.360 -0.6250  0.5202  0.3328
   12SAPS   C33 1548   0.977   2.553   7.142 -0.3501 -0.0008  0.5930
   12SAPS   H3X 1549   1.082   2.561   7.106 -1.2535 -0.7119 -2.5063
   12SAPS   H3Y 1550   0.939   2.453   7.112 -0.8137 -0.7214  3.3005
   12SAPS   C34 1551   0.964   2.589   7.287 -0.1477  0.4358  0.1579
   12SAPS   H4X 1552   0.854   2.597   7.305 -0.3804 -0.2185 -0.8525
   12SAPS   H4Y 1553   1.005   2.691   7.304  1.7692  0.3906 -3.2348
   12SAPS   C35 1554   1.031   2.486   7.380 -0.5677  0.3255 -0.7927
   12SAPS   H5X 1555   1.133   2.463   7.340 -0.2961 -1.2321  0.6841
   12SAPS   H5Y 1556   0.972   2.392   7.382 -2.0788  1.2582 -0.3878
   12SAPS   C36 1557   1.042   2.532   7.531  0.2456  0.2764 -0.3261
   12SAPS   H6X 1558   1.076   2.637   7.541 -1.6059  0.9412 -0.6236
   12SAPS   H6Y 1559   1.113   2.463   7.582 -0.4716  0.4978  1.0073
   12SAPS   C37 1560   0.908   2.523   7.595 -0.4678  0.5091  0.1536
   12SAPS   H7X 1561   0.867   2.427   7.557  2.7285 -0.5923 -0.7909
   12SAPS   H7Y 1562   0.846   2.609   7.562  0.3487  0.7117 -0.8676
   12SAPS   C38 1563   0.922   2.520   7.747  0.3755 -0.5438 -0.2514
   12SAPS   H8X 1564   0.969   2.613   7.786 -0.1265  0.4201 -1.8054
   12SAPS   H8Y 1565   0.990   2.437   7.775  0.7450  0.1399  0.9316
   12SAPS   C39 1566   0.780   2.508   7.820  0.6127 -0.3534  0.2522
   12SAPS   H9X 1567   0.731   2.419   7.776 -1.7945  0.0600  1.8597
   12SAPS   H9Y 1568   0.729   2.597   7.776 -1.3880 -1.9088 -0.7141
   12SAPS  C310 1569   0.770   2.519   7.971  0.3801 -0.4114  0.3036
   12SAPS  H10X 1570   0.758   2.622   8.010 -0.6471  0.8065 -2.9166
   12SAPS  H10Y 1571   0.861   2.481   8.022  1.2763  2.1414  0.7438
   12SAPS  C311 1572   0.649   2.439   8.032  0.2813  0.0660  0.2647
   12SAPS  H11X 1573   0.654   2.332   8.002  0.2626  0.7769 -2.5283
   12SAPS  H11Y 1574   0.552   2.473   7.988  1.5963  0.3312 -2.6935
   12SAPS  C312 1575   0.654   2.448   8.188  0.5021  0.1899  0.1385
   12SAPS  H12X 1576   0.719   2.534   8.215 -1.0874  1.3605  0.4383
   12SAPS  H12Y 1577   0.705   2.354   8.216 -1.2883 -0.3147  1.9673
   12SAPS  C313 1578   0.519   2.435   8.260  0.0346  0.3170  0.8084
   12SAPS  H13X 1579   0.479   2.341   8.218  2.6482 -0.1663 -0.7728
   12SAPS  H13Y 1580   0.452   2.515   8.221  0.6345 -0.1374 -1.2641
   12SAPS  C314 1581   0.540   2.442   8.411 -0.7763  0.3040  0.5561
   12SAPS  H14X 1582   0.583   2.543   8.426 -1.6311  0.4618  2.1264
   12SAPS  H14Y 1583   0.627   2.380   8.441 -0.6349  1.2867  2.2747
   12SAPS  C315 1584   0.413   2.410   8.484  0.2282  0.2760 -0.1251
   12SAPS  H15X 1585   0.392   2.302   8.466  0.8901 -0.1911  1.6687
   12SAPS  H15Y 1586   0.325   2.464   8.442 -0.9135 -1.6366 -0.3116
   12SAPS  C316 1587   0.427   2.449   8.628 -0.4957  0.1837  0.2261
   12SAPS  H16X 1588   0.334   2.418   8.680 -0.3290  0.0191  0.4271
   12SAPS  H16Y 1589   0.450   2.557   8.633  0.7102 -0.0883  0.9444
   12SAPS  C317 1590   0.542   2.375   8.696  0.2968 -0.0638  0.7316
   12SAPS  H17X 1591   0.511   2.386   8.802 -1.0029 -1.4496  0.5406
   12SAPS  H17Y 1592   0.646   2.411   8.683 -0.4523  2.3236  0.9168
   12SAPS  C318 1593   0.558   2.223   8.678 -0.6372 -0.5042  0.9308
   12SAPS  H18X 1594   0.635   2.182   8.747 -1.9013  0.3347  2.8950
   12SAPS  H18Y 1595   0.606   2.204   8.579 -0.6213 -1.1731  1.0606
   12SAPS  H18Z 1596   0.458   2.178   8.696 -0.5516 -0.1411  2.4112
   13SAPS     N 1597   2.530   6.263   6.094  0.3234 -0.6773  0.1375
   13SAPS   HN1 1598   2.607   6.299   6.034 -0.0076 -0.3070 -0.0642
   13SAPS   HN2 1599   2.455   6.334   6.103 -0.9059 -2.0470  1.2984
   13SAPS   HN3 1600   2.570   6.252   6.189 -2.4874 -0.4609  1.4543
   13SAPS   C12 1601   2.468   6.135   6.051 -0.5220 -0.1532 -0.0795
   13SAPS  H12A 1602   2.419   6.163   5.959  1.9745 -0.8881 -1.7093
   13SAPS   C13 1603   2.575   6.022   6.026  0.3050  0.1306 -0.3733
   13SAPS  O13A 1604   2.696   6.060   6.015  0.1991 -0.0971  0.2188
   13SAPS  O13B 1605   2.531   5.913   5.978  0.3042 -0.0935  0.2714
   13SAPS   C11 1606   2.364   6.101   6.158  0.3043  0.3549  0.5515
   13SAPS  H11A 1607   2.415   6.063   6.249 -0.4006 -2.7223 -0.2434
   13SAPS  H11B 1608   2.304   6.010   6.136 -2.4117  1.3342  3.2182
   13SAPS     P 1609   2.115   6.199   6.207 -0.2417  0.4140 -0.0835
   13SAPS   O13 1610   2.066   6.336   6.242 -0.5480 -0.3829  0.2615
   13SAPS   O14 1611   2.047   6.131   6.093  0.1435  0.0893 -0.2858
   13SAPS   O12 1612   2.270   6.204   6.181 -0.3213  0.0932 -0.0350
   13SAPS   O11 1613   2.109   6.096   6.331  0.8600  0.5302  0.4589
   13SAPS    C1 1614   2.192   6.114   6.443  0.1537  0.1207 -0.6821
   13SAPS    HA 1615   2.237   6.016   6.470  0.3122  0.6044  0.9158
   13SAPS    HB 1616   2.273   6.188   6.429  0.1406 -0.1830 -2.6668
   13SAPS    C2 1617   2.119   6.152   6.578 -0.2640  0.0488  0.2399
   13SAPS    HS 1618   2.200   6.143   6.654  0.2352  0.1045 -0.2726
   13SAPS   O21 1619   2.005   6.075   6.619  0.6598  0.6533 -0.3143
   13SAPS   C21 1620   2.033   5.953   6.672 -0.0273  0.5418  0.0707
   13SAPS   O22 1621   2.146   5.915   6.681 -0.3582 -0.3854  0.5665
   13SAPS   C22 1622   1.912   5.888   6.726  0.5145  0.2442 -0.2264
   13SAPS   H2R 1623   1.867   5.954   6.802 -3.4460 -2.1388 -0.2337
   13SAPS   H2S 1624   1.828   5.889   6.653  0.7036  0.9015 -0.4408
   13SAPS    C3 1625   2.070   6.300   6.567  0.1545  0.3021  0.3023
   13SAPS    HX 1626   1.989   6.296   6.492  1.9429 -1.6128 -1.6759
   13SAPS    HY 1627   2.144   6.366   6.517 -1.0201  1.7997  0.4611
   13SAPS   O31 1628   2.029   6.353   6.697  0.8113 -0.1513 -0.4492
   13SAPS   C31 1629   2.069   6.470   6.730 -0.2488 -0.5822 -0.6131
   13SAPS   O32 1630   2.142   6.542   6.661  0.2164  0.6565 -0.2383
   13SAPS   C32 1631   2.019   6.497   6.872 -0.2921 -0.5565 -0.4881
   13SAPS   H2X 1632   2.091   6.451   6.942 -0.0137 -0.1891 -0.5315
   13SAPS   H2Y 1633   1.917   6.452   6.878 -1.1214  1.3654  0.6467
   13SAPS   C23 1634   1.924   5.744   6.790 -0.5319  0.1588  0.4477
   13SAPS   H3R 1635   1.956   5.680   6.704  0.2325  0.5465  0.4281
   13SAPS   H3S 1636   1.824   5.711   6.824  0.5492 -1.1556  2.5470
   13SAPS   C24 1637   2.014   5.747   6.913 -0.3476  1.1024 -0.3360
   13SAPS   H4R 1638   2.102   5.813   6.898 -0.0951  0.5168 -1.4926
   13SAPS   H4S 1639   2.052   5.645   6.933 -0.4051  1.0525 -0.4838
   13SAPS   C25 1640   1.941   5.804   7.036  0.4166 -0.2710  0.1610
   13SAPS   H5R 1641   1.945   5.913   7.053  1.5387 -0.1509 -0.7489
   13SAPS   C26 1642   1.869   5.728   7.122  0.5260 -1.5388  0.3690
   13SAPS   H6R 1643   1.827   5.781   7.208 -0.8369 -0.7058 -0.7584
   13SAPS   C27 1644   1.850   5.578   7.115  0.1488 -0.4726  0.0164
   13SAPS   H7R 1645   1.944   5.529   7.149 -0.2179 -1.5521 -0.4715
   13SAPS   H7S 1646   1.848   5.557   7.006  0.7985  2.3344 -0.6240
   13SAPS   C28 1647   1.737   5.518   7.183 -0.2462 -0.2008 -0.2952
   13SAPS   H8R 1648   1.645   5.525   7.122 -0.3457 -1.4183 -0.3071
   13SAPS   C29 1649   1.735   5.457   7.308 -0.3431 -0.1233 -0.6275
   13SAPS   H9R 1650   1.640   5.429   7.357  1.2206 -1.9499  1.5907
   13SAPS  C210 1651   1.854   5.453   7.398  0.2508 -0.1542  0.1087
   13SAPS  H10R 1652   1.945   5.419   7.344  0.9300 -1.4629  1.9581
   13SAPS  H10S 1653   1.840   5.377   7.478  1.3320  0.7212  1.1616
   13SAPS  C211 1654   1.895   5.578   7.468  0.1921  0.0308  0.2095
   13SAPS  H11R 1655   1.876   5.662   7.399  0.8004  2.0540  2.3688
   13SAPS  C212 1656   1.963   5.592   7.585  0.2330 -0.3209 -0.2844
   13SAPS  H12R 1657   1.978   5.697   7.615  0.9959  0.1115 -2.0669
   13SAPS  C213 1658   2.006   5.480   7.676  0.4854  0.2683 -0.1839
   13SAPS  H13R 1659   2.098   5.511   7.731 -1.1889  2.1388  1.7130
   13SAPS  H13S 1660   2.044   5.397   7.613 -1.8431  1.3629 -3.2758
   13SAPS  C214 1661   1.909   5.434   7.774  0.5449 -0.3811 -0.4607
   13SAPS  H14R 1662   1.814   5.391   7.738 -0.7170  0.3435  1.7839
   13SAPS  C215 1663   1.917   5.449   7.910 -0.3725  0.2351  0.3990
   13SAPS  H15R 1664   1.829   5.414   7.965 -0.0113 -0.1952  0.7178
   13SAPS  C216 1665   2.029   5.507   7.988 -0.5698 -0.4573  0.3215
   13SAPS  H16R 1666   2.123   5.483   7.934  0.1827  0.3788  1.2422
   13SAPS  H16S 1667   2.044   5.450   8.082 -0.6409  0.6296  1.0053
   13SAPS  C217 1668   2.019   5.659   8.019  0.3136  0.3600 -0.1615
   13SAPS  H17R 1669   2.018   5.711   7.921  0.1349  0.3098 -0.1882
   13SAPS  H17S 1670   2.122   5.684   8.050  0.2976  0.4876 -0.2106
   13SAPS  C218 1671   1.900   5.704   8.109  0.1891 -0.0554  0.0948
   13SAPS  H18R 1672   1.901   5.664   8.212  0.3793 -1.1249 -0.3147
   13SAPS  H18S 1673   1.815   5.667   8.047  0.5802  1.4494 -1.4220
   13SAPS  C219 1674   1.889   5.860   8.110  0.5807 -0.3329  0.4235
   13SAPS  H19R 1675   1.881   5.892   8.004  0.2540  1.7369  1.0160
   13SAPS  H19S 1676   1.989   5.895   8.143  1.2432 -0.8511 -0.9583
   13SAPS  C220 1677   1.777   5.925   8.191 -0.0033 -0.2891  0.3446
   13SAPS  H20R 1678   1.803   5.909   8.297  1.4998  1.3267  0.2681
   13SAPS  H20S 1679   1.680   5.875   8.174  0.3036 -0.2509 -1.9222
   13SAPS  H20T 1680   1.760   6.032   8.166 -0.3294 -0.8443 -2.0796
   13SAPS   C33 1681   2.005   6.653   6.904 -0.0336 -0.4072  0.2879
   13SAPS   H3X 1682   1.961   6.693   6.810  0.9571 -1.0056 -0.4625
   13SAPS   H3Y 1683   2.111   6.686   6.908  0.3002 -1.3666 -0.1370
   13SAPS   C34 1684   1.921   6.693   7.031  0.3842  0.2940 -0.0380
   13SAPS   H4X 1685   1.838   6.621   7.045  1.0734 -0.8989 -1.6789
   13SAPS   H4Y 1686   1.871   6.792   7.023 -0.2445 -0.1875 -3.6490
   13SAPS   C35 1687   2.010   6.680   7.161 -0.0448 -0.1382 -0.2196
   13SAPS   H5X 1688   2.107   6.733   7.151  1.4281 -1.7204  3.7173
   13SAPS   H5Y 1689   2.038   6.574   7.178 -2.9348 -0.8027  1.0908
   13SAPS   C36 1690   1.940   6.732   7.285  1.0230  0.1861 -0.2175
   13SAPS   H6X 1691   1.839   6.688   7.301  2.2609 -3.2570 -1.1497
   13SAPS   H6Y 1692   1.927   6.843   7.282 -2.9094 -0.0177  1.9691
   13SAPS   C37 1693   2.017   6.681   7.407 -0.1372 -0.4541 -0.0841
   13SAPS   H7X 1694   2.114   6.735   7.417 -0.9952  0.8124  2.1956
   13SAPS   H7Y 1695   2.041   6.574   7.389 -0.3428 -0.5497  0.1908
   13SAPS   C38 1696   1.938   6.709   7.534  0.6204  0.0080 -0.5957
   13SAPS   H8X 1697   1.856   6.634   7.537 -0.3774  1.0635 -0.8824
   13SAPS   H8Y 1698   1.887   6.808   7.532 -0.0225 -0.0633  3.5067
   13SAPS   C39 1699   2.018   6.698   7.662 -0.6283 -0.6625  0.0222
   13SAPS   H9X 1700   2.079   6.789   7.680  3.2303 -2.6592 -1.9087
   13SAPS   H9Y 1701   2.085   6.610   7.656 -0.4262 -0.5434  0.4721
   13SAPS  C310 1702   1.925   6.680   7.787 -0.6570 -0.1256  0.3285
   13SAPS  H10X 1703   1.857   6.594   7.768 -1.5034 -0.0409  2.6683
   13SAPS  H10Y 1704   1.867   6.774   7.788  0.5723  0.6795 -0.6709
   13SAPS  C311 1705   1.989   6.647   7.923 -0.0177 -0.3682  0.1573
   13SAPS  H11X 1706   2.068   6.724   7.937 -1.9143  1.7761 -0.3828
   13SAPS  H11Y 1707   2.048   6.553   7.923  0.0496 -0.3309  1.1261
   13SAPS  C312 1708   1.900   6.655   8.043  0.0793 -0.1933 -0.8498
   13SAPS  H12X 1709   1.826   6.573   8.051  1.5147 -1.5741 -1.1201
   13SAPS  H12Y 1710   1.843   6.751   8.035  0.1662 -0.0801 -0.1468
   13SAPS  C313 1711   1.983   6.641   8.177  0.0013 -0.0631  0.1918
   13SAPS  H13X 1712   2.023   6.538   8.167 -0.4277 -0.5115  2.3838
   13SAPS  H13Y 1713   1.918   6.645   8.268  0.6743  0.8206  0.6515
   13SAPS  C314 1714   2.100   6.732   8.202  0.6258  0.1323  0.2870
   13SAPS  H14X 1715   2.067   6.837   8.193 -1.4552 -0.4483  0.6316
   13SAPS  H14Y 1716   2.179   6.717   8.124  0.6034  0.5088  0.1911
   13SAPS  C315 1717   2.171   6.703   8.339  0.9669 -1.0491 -0.2591
   13SAPS  H15X 1718   2.273   6.663   8.321  0.8888 -1.3500 -0.0386
   13SAPS  H15Y 1719   2.118   6.624   8.397 -0.2495 -1.0468 -1.3268
   13SAPS  C316 1720   2.164   6.831   8.422 -0.2516 -0.1503  0.1453
   13SAPS  H16X 1721   2.062   6.874   8.429  0.7214  2.3560  0.0179
   13SAPS  H16Y 1722   2.227   6.907   8.371 -0.7955 -0.5340 -1.1498
   13SAPS  C317 1723   2.224   6.827   8.561  0.4667  0.6202  0.6239
   13SAPS  H17X 1724   2.328   6.788   8.569  0.5104  0.9516  2.1031
   13SAPS  H17Y 1725   2.166   6.748   8.614 -0.5324  0.4315 -0.7052
   13SAPS  C318 1726   2.231   6.958   8.630 -0.8358  0.2456 -0.6033
   13SAPS  H18X 1727   2.253   6.940   8.738 -1.5108  0.2650 -0.4568
   13SAPS  H18Y 1728   2.129   7.001   8.633 -0.7994  0.2884  0.3062
   13SAPS  H18Z 1729   2.301   7.032   8.586 -0.1784  0.5776  0.9296
   14SAPS     N 1730   1.497   6.192   6.079  0.0213 -0.0969 -0.4540
   14SAPS   HN1 1731   1.432   6.247   6.140  1.9772  0.4413  1.2777
   14SAPS   HN2 1732   1.455   6.098   6.064  1.0538 -0.9148  1.3898
   14SAPS   HN3 1733   1.589   6.174   6.124  0.9867 -0.2988 -2.4280
   14SAPS   C12 1734   1.514   6.264   5.949  0.2564  0.1606  0.3976
   14SAPS  H12A 1735   1.558   6.361   5.968 -1.4768  0.8997  0.8153
   14SAPS   C13 1736   1.604   6.182   5.850  0.7895 -0.0589 -0.1995
   14SAPS  O13A 1737   1.687   6.087   5.886  0.4133  0.0699 -0.3445
   14SAPS  O13B 1738   1.618   6.241   5.739 -0.0207  0.9404 -0.6206
   14SAPS   C11 1739   1.374   6.290   5.893 -0.9225 -0.6361 -0.4017
   14SAPS  H11A 1740   1.321   6.198   5.861  0.2528 -1.6202  0.4048
   14SAPS  H11B 1741   1.391   6.360   5.808 -0.0846  1.9051  1.6963
   14SAPS     P 1742   1.161   6.434   5.946 -0.2849  0.6426 -0.1931
   14SAPS   O13 1743   1.193   6.522   5.836 -0.3159 -0.2881 -0.1619
   14SAPS   O14 1744   1.054   6.332   5.916  0.4538 -0.1081  0.3804
   14SAPS   O12 1745   1.289   6.359   5.992  0.0180 -0.1910 -0.2387
   14SAPS   O11 1746   1.127   6.514   6.072  0.6499  0.0653 -0.6227
   14SAPS    C1 1747   1.190   6.641   6.119 -0.2150 -0.3483 -0.3400
   14SAPS    HA 1748   1.225   6.704   6.035 -1.9412  0.3345 -0.5954
   14SAPS    HB 1749   1.116   6.711   6.164 -1.3349 -0.5854 -1.7269
   14SAPS    C2 1750   1.304   6.610   6.217  0.2989 -0.5300  0.2972
   14SAPS    HS 1751   1.386   6.569   6.155  0.8482  0.4635  0.3436
   14SAPS   O21 1752   1.241   6.514   6.311  0.1097  0.5472  0.0300
   14SAPS   C21 1753   1.302   6.406   6.333 -0.3965 -0.1952 -0.8471
   14SAPS   O22 1754   1.404   6.362   6.282  0.0933 -0.2197 -0.1300
   14SAPS   C22 1755   1.214   6.319   6.429 -0.4841  0.0156 -1.0111
   14SAPS   H2R 1756   1.119   6.295   6.376 -0.0492 -1.7047 -1.0706
   14SAPS   H2S 1757   1.271   6.226   6.446  0.8512  0.7371 -1.3928
   14SAPS    C3 1758   1.377   6.725   6.291 -0.0694  0.4467 -0.1400
   14SAPS    HX 1759   1.308   6.788   6.351  2.6320  2.4033  1.1431
   14SAPS    HY 1760   1.416   6.792   6.211  0.3553 -0.6429 -0.8713
   14SAPS   O31 1761   1.484   6.676   6.376 -0.1510 -0.0650 -0.3221
   14SAPS   C31 1762   1.525   6.759   6.464 -0.6110 -0.9097  0.1410
   14SAPS   O32 1763   1.481   6.875   6.483  0.5321 -0.0760 -0.0458
   14SAPS   C32 1764   1.623   6.690   6.565 -0.3090  0.0200 -0.3706
   14SAPS   H2X 1765   1.654   6.761   6.644 -0.8254 -0.1339 -0.0284
   14SAPS   H2Y 1766   1.711   6.653   6.507 -0.9077 -0.9290 -0.7028
   14SAPS   C23 1767   1.189   6.387   6.567  0.1627 -1.4929 -0.0655
   14SAPS   H3R 1768   1.113   6.464   6.541  0.5388 -0.2649  2.2014
   14SAPS   H3S 1769   1.280   6.435   6.611 -1.1861  1.0577  0.1715
   14SAPS   C24 1770   1.120   6.291   6.671  0.5030 -0.4354  0.1274
   14SAPS   H4R 1771   1.037   6.231   6.628  0.7048 -0.7036  0.1074
   14SAPS   H4S 1772   1.068   6.350   6.749  0.3871  0.9972 -0.9943
   14SAPS   C25 1773   1.221   6.212   6.749  0.9032  0.1256  1.1487
   14SAPS   H5R 1774   1.248   6.123   6.689 -1.5011  0.0407  0.0985
   14SAPS   C26 1775   1.271   6.229   6.871  0.2920 -0.0196 -0.8312
   14SAPS   H6R 1776   1.328   6.150   6.922 -0.7720 -0.4196 -0.2196
   14SAPS   C27 1777   1.226   6.351   6.959  0.7811  0.9324 -0.9048
   14SAPS   H7R 1778   1.126   6.317   6.996  0.7971 -1.0011 -2.4890
   14SAPS   H7S 1779   1.214   6.446   6.902  2.3487  0.8035 -1.4885
   14SAPS   C28 1780   1.323   6.357   7.075 -0.3735 -0.9392  0.4141
   14SAPS   H8R 1781   1.422   6.315   7.051  0.4162  1.7186 -1.4133
   14SAPS   C29 1782   1.294   6.398   7.204  0.3281 -0.0306  0.2773
   14SAPS   H9R 1783   1.376   6.392   7.278  4.3585 -0.1851 -3.7675
   14SAPS  C210 1784   1.159   6.455   7.242 -0.3907 -0.3026  0.2748
   14SAPS  H10R 1785   1.121   6.517   7.158  0.2016 -1.7508 -1.1062
   14SAPS  H10S 1786   1.184   6.531   7.319  1.0057 -0.7700  0.3201
   14SAPS  C211 1787   1.053   6.361   7.280 -0.1187 -0.8060 -0.9563
   14SAPS  H11R 1788   1.021   6.292   7.201 -2.4368 -1.4736  0.4668
   14SAPS  C212 1789   0.983   6.348   7.392  0.1586  0.1708  0.2545
   14SAPS  H12R 1790   0.895   6.282   7.380 -1.2446  2.0854 -0.6380
   14SAPS  C213 1791   0.994   6.424   7.517 -0.6037 -0.2498 -0.6040
   14SAPS  H13R 1792   0.931   6.375   7.595 -0.4723  1.5424  0.6968
   14SAPS  H13S 1793   0.951   6.526   7.512 -3.0805 -1.0676  1.7715
   14SAPS  C214 1794   1.135   6.427   7.577  0.8966  0.4474 -0.1189
   14SAPS  H14R 1795   1.219   6.394   7.513  0.2783  1.3631 -1.4434
   14SAPS  C215 1796   1.169   6.462   7.703 -0.1368  0.4112 -0.2448
   14SAPS  H15R 1797   1.271   6.458   7.744  0.1433 -2.3846 -1.0303
   14SAPS  C216 1798   1.077   6.494   7.809  0.5360  0.0941  0.1035
   14SAPS  H16R 1799   0.973   6.455   7.798  1.3533 -2.7840  1.5115
   14SAPS  H16S 1800   1.071   6.603   7.827  1.7146  0.1700  0.0908
   14SAPS  C217 1801   1.120   6.434   7.945  0.6894  0.1614  0.5443
   14SAPS  H17R 1802   1.051   6.472   8.023 -1.1309 -2.7777  0.5381
   14SAPS  H17S 1803   1.224   6.466   7.969  0.8520  0.4524 -0.5246
   14SAPS  C218 1804   1.117   6.281   7.941  0.0175  0.0537  0.3248
   14SAPS  H18R 1805   1.210   6.248   7.890 -1.2259 -0.7088 -1.5545
   14SAPS  H18S 1806   1.030   6.244   7.883  1.4624  1.0067 -2.6900
   14SAPS  C219 1807   1.097   6.225   8.086  0.5305 -0.0409 -0.0025
   14SAPS  H19R 1808   0.991   6.257   8.094  0.6010  0.8340 -2.0873
   14SAPS  H19S 1809   1.159   6.286   8.155  0.0701  0.5313 -0.0902
   14SAPS  C220 1810   1.107   6.076   8.106 -0.0664  0.2241  0.1749
   14SAPS  H20R 1811   1.046   6.012   8.039  1.2026 -0.7518 -0.0773
   14SAPS  H20S 1812   1.110   6.044   8.212  1.4755 -0.1529  0.0387
   14SAPS  H20T 1813   1.213   6.056   8.078  0.0679  1.0116  0.0896
   14SAPS   C33 1814   1.571   6.572   6.649  0.4283 -0.2203  0.1351
   14SAPS   H3X 1815   1.654   6.504   6.677  0.8300  0.5059  0.7142
   14SAPS   H3Y 1816   1.507   6.508   6.584  0.1143 -0.3262  0.5481
   14SAPS   C34 1817   1.477   6.611   6.768 -0.6032 -0.3565  0.8324
   14SAPS   H4X 1818   1.421   6.516   6.784  0.5174 -0.9089  1.6176
   14SAPS   H4Y 1819   1.409   6.696   6.747 -0.9211 -0.8387 -0.1854
   14SAPS   C35 1820   1.551   6.638   6.897 -0.7964 -1.4551 -0.7254
   14SAPS   H5X 1821   1.623   6.722   6.893 -1.8128 -0.5988 -1.5243
   14SAPS   H5Y 1822   1.601   6.543   6.928  0.0517 -0.5885  0.6705
   14SAPS   C36 1823   1.459   6.678   7.011 -0.5964  0.7675 -0.1815
   14SAPS   H6X 1824   1.368   6.615   7.016 -0.7389  1.0119  0.5325
   14SAPS   H6Y 1825   1.406   6.775   6.995 -1.6151  0.4997  1.3084
   14SAPS   C37 1826   1.526   6.674   7.147 -0.2322 -0.0140  0.5762
   14SAPS   H7X 1827   1.625   6.725   7.141 -0.7271  0.7997 -1.5929
   14SAPS   H7Y 1828   1.538   6.572   7.188 -1.4643 -0.8727 -1.1144
   14SAPS   C38 1829   1.442   6.755   7.248 -0.2816 -0.0187  0.8667
   14SAPS   H8X 1830   1.346   6.701   7.257 -0.2609 -0.6217 -1.7501
   14SAPS   H8Y 1831   1.434   6.856   7.202  0.6712 -0.7902 -1.1396
   14SAPS   C39 1832   1.519   6.750   7.379  0.0712 -0.6849 -1.2101
   14SAPS   H9X 1833   1.612   6.810   7.375 -0.6112  0.4294 -0.6667
   14SAPS   H9Y 1834   1.543   6.643   7.400  2.1926 -0.0400 -0.1486
   14SAPS  C310 1835   1.431   6.792   7.499  0.0720  0.6826  0.1371
   14SAPS  H10X 1836   1.336   6.735   7.495  1.6254 -1.9737 -2.7464
   14SAPS  H10Y 1837   1.400   6.899   7.494 -1.6368  0.2754  1.1382
   14SAPS  C311 1838   1.482   6.763   7.642  0.2610 -0.0773  0.5274
   14SAPS  H11X 1839   1.586   6.804   7.644 -0.5033  2.3669 -2.5194
   14SAPS  H11Y 1840   1.482   6.652   7.650 -0.2520  0.0144  2.3755
   14SAPS  C312 1841   1.399   6.825   7.752 -0.4258  0.5740  0.1944
   14SAPS  H12X 1842   1.295   6.795   7.727  0.2368  0.0998 -2.3358
   14SAPS  H12Y 1843   1.404   6.935   7.744  2.1371  0.4452 -1.3659
   14SAPS  C313 1844   1.433   6.777   7.894  0.9075 -0.7801  0.5791
   14SAPS  H13X 1845   1.535   6.813   7.919  0.0829  0.4481  2.3579
   14SAPS  H13Y 1846   1.434   6.666   7.893  0.7717 -0.7825  0.6465
   14SAPS  C314 1847   1.328   6.832   7.996  0.0670 -0.0142  0.9921
   14SAPS  H14X 1848   1.233   6.787   7.960  0.2645 -1.4556  2.1778
   14SAPS  H14Y 1849   1.308   6.941   8.000  0.1098  0.0949 -0.8913
   14SAPS  C315 1850   1.343   6.784   8.139 -0.2777  1.0643  0.1666
   14SAPS  H15X 1851   1.398   6.688   8.139  2.3644  2.4905  1.3453
   14SAPS  H15Y 1852   1.245   6.759   8.185  0.1976 -1.6920 -0.1564
   14SAPS  C316 1853   1.420   6.884   8.228  0.4711 -0.0875 -0.5791
   14SAPS  H16X 1854   1.395   6.863   8.335 -0.4337  0.8283 -0.5972
   14SAPS  H16Y 1855   1.378   6.985   8.208 -0.3119 -0.2796  0.0214
   14SAPS  C317 1856   1.569   6.870   8.221 -0.2286 -0.6981  0.0057
   14SAPS  H17X 1857   1.602   6.907   8.121 -0.3233  1.1832  0.6272
   14SAPS  H17Y 1858   1.601   6.764   8.232  0.2998 -0.6975 -1.3171
   14SAPS  C318 1859   1.651   6.946   8.324  0.4933 -0.9725 -0.0176
   14SAPS  H18X 1860   1.758   6.933   8.297  0.7364 -0.4502  0.6676
   14SAPS  H18Y 1861   1.630   6.929   8.431 -0.0674  1.1340  0.2347
   14SAPS  H18Z 1862   1.626   7.052   8.305  1.7577 -0.6668 -0.0455
   15SAPS     N 1863   3.483   1.135   6.156 -0.2682 -0.4528 -0.0902
   15SAPS   HN1 1864   3.586   1.121   6.154 -0.3359 -1.2596  1.0982
   15SAPS   HN2 1865   3.457   1.174   6.249  0.6086 -0.0758  0.0040
   15SAPS   HN3 1866   3.430   1.045   6.151 -2.8723  1.0197 -0.6982
   15SAPS   C12 1867   3.417   1.233   6.060 -0.2045  0.2034  0.2196
   15SAPS  H12A 1868   3.410   1.333   6.100  1.0410  1.0600 -1.5749
   15SAPS   C13 1869   3.489   1.237   5.923 -0.3643  0.2467 -0.2758
   15SAPS  O13A 1870   3.576   1.149   5.905  0.8015 -0.5867 -0.0126
   15SAPS  O13B 1871   3.455   1.323   5.835  0.4868  0.3269 -0.8262
   15SAPS   C11 1872   3.274   1.190   6.027 -0.0217 -0.8445 -0.4806
   15SAPS  H11A 1873   3.273   1.103   5.958 -0.6931 -2.5033  1.5154
   15SAPS  H11B 1874   3.231   1.273   5.967  0.7380  0.6121  0.9309
   15SAPS     P 1875   3.162   1.037   6.209 -0.0165  0.8433  0.0548
   15SAPS   O13 1876   3.099   0.953   6.105 -0.6650 -0.4107  0.4027
   15SAPS   O14 1877   3.289   0.984   6.267 -0.4060 -0.8146 -0.2916
   15SAPS   O12 1878   3.195   1.175   6.145 -0.3663 -0.3137 -0.7005
   15SAPS   O11 1879   3.057   1.061   6.331 -0.1118  0.0180 -0.1092
   15SAPS    C1 1880   2.934   1.123   6.301  0.4569  0.2924  0.1533
   15SAPS    HA 1881   2.942   1.227   6.264 -0.1917 -0.2386 -1.5745
   15SAPS    HB 1882   2.866   1.073   6.230  0.4869  1.2581 -0.5685
   15SAPS    C2 1883   2.846   1.119   6.434 -0.1304  0.3397 -0.2605
   15SAPS    HS 1884   2.754   1.158   6.387 -1.2313 -0.4779  1.1206
   15SAPS   O21 1885   2.912   1.200   6.529 -0.6681 -0.3980  0.1068
   15SAPS   C21 1886   2.838   1.252   6.623 -0.6603  0.4092  0.1548
   15SAPS   O22 1887   2.714   1.245   6.626 -0.1122  0.5396  0.6204
   15SAPS   C22 1888   2.915   1.318   6.737  0.4379  0.2994 -0.3630
   15SAPS   H2R 1889   3.015   1.269   6.743 -0.7413 -2.5549 -2.0879
   15SAPS   H2S 1890   2.934   1.420   6.699 -1.2878  0.0115 -2.1838
   15SAPS    C3 1891   2.823   0.973   6.476 -0.2845 -0.7231 -0.1743
   15SAPS    HX 1892   2.924   0.938   6.506  1.0763  2.6243 -0.5334
   15SAPS    HY 1893   2.782   0.928   6.383  0.2979  0.1185 -0.8474
   15SAPS   O31 1894   2.743   0.969   6.594  0.3570  0.3692  0.4485
   15SAPS   C31 1895   2.724   0.840   6.626  0.3677 -0.4466 -0.5345
   15SAPS   O32 1896   2.756   0.737   6.570 -0.1023 -0.3964  0.0253
   15SAPS   C32 1897   2.659   0.843   6.766 -0.3643 -0.0247  0.1848
   15SAPS   H2X 1898   2.633   0.946   6.800  0.8089  0.6661 -0.9214
   15SAPS   H2Y 1899   2.739   0.802   6.831  0.0428 -0.7766 -0.7666
   15SAPS   C23 1900   2.841   1.332   6.869  0.1070  0.4011  0.2825
   15SAPS   H3R 1901   2.735   1.328   6.838  1.1097  0.8781 -3.7519
   15SAPS   H3S 1902   2.857   1.436   6.905 -2.4711  1.0570 -0.3239
   15SAPS   C24 1903   2.895   1.238   6.979 -1.4568  0.1701 -0.5302
   15SAPS   H4R 1904   2.865   1.283   7.077  0.6364  1.1667 -0.2881
   15SAPS   H4S 1905   3.005   1.252   6.972 -1.4726 -0.0955 -1.4309
   15SAPS   C25 1906   2.851   1.096   6.988 -0.1332 -0.4202  0.3767
   15SAPS   H5R 1907   2.748   1.093   7.026 -0.5112  1.3008 -0.4157
   15SAPS   C26 1908   2.929   0.987   6.963 -0.3216  0.2126 -0.1853
   15SAPS   H6R 1909   2.881   0.889   6.952  0.6691 -0.5900  1.9666
   15SAPS   C27 1910   3.077   0.992   6.915  0.4923 -0.3271  0.4825
   15SAPS   H7R 1911   3.127   1.067   6.980  0.6905 -0.0371 -0.0010
   15SAPS   H7S 1912   3.072   1.014   6.806 -3.6751 -0.7507  0.4229
   15SAPS   C28 1913   3.159   0.862   6.932 -0.1691 -0.8618  0.0134
   15SAPS   H8R 1914   3.207   0.813   6.846 -0.5233  0.6750 -1.0938
   15SAPS   C29 1915   3.186   0.801   7.048 -0.5077  0.7384 -0.1303
   15SAPS   H9R 1916   3.220   0.697   7.037 -1.7110  0.2746  0.3137
   15SAPS  C210 1917   3.148   0.852   7.183  0.9535 -0.0058  0.3770
   15SAPS  H10R 1918   3.054   0.802   7.216  0.9701 -0.7768 -0.6837
   15SAPS  H10S 1919   3.116   0.959   7.176 -0.1859 -0.1695  2.2678
   15SAPS  C211 1920   3.257   0.839   7.293  0.5112  0.0799  0.0349
   15SAPS  H11R 1921   3.327   0.758   7.268 -0.9147 -0.8369 -1.2055
   15SAPS  C212 1922   3.253   0.902   7.413 -0.0852  0.0425 -0.7351
   15SAPS  H12R 1923   3.342   0.888   7.475 -0.3088 -0.9700 -0.6280
   15SAPS  C213 1924   3.154   0.997   7.464  0.1778  1.0327 -0.0674
   15SAPS  H13R 1925   3.088   1.021   7.378  0.4620 -1.5851 -1.1064
   15SAPS  H13S 1926   3.187   1.099   7.494  2.0965 -0.2226  2.3825
   15SAPS  C214 1927   3.075   0.933   7.577 -0.6900 -0.1541  0.1122
   15SAPS  H14R 1928   2.985   0.872   7.559 -1.5104  0.3613  2.1692
   15SAPS  C215 1929   3.114   0.951   7.704  0.4106 -0.7274 -0.1257
   15SAPS  H15R 1930   3.044   0.912   7.780  1.9766 -1.1654  1.1398
   15SAPS  C216 1931   3.229   1.040   7.762  0.2033 -0.2354  0.6266
   15SAPS  H16R 1932   3.188   1.141   7.783 -0.5270 -0.3686 -0.0929
   15SAPS  H16S 1933   3.314   1.067   7.696  0.6064  2.6403  2.1655
   15SAPS  C217 1934   3.302   0.989   7.890  0.3180  0.1647 -0.1724
   15SAPS  H17R 1935   3.349   0.889   7.888 -2.0574 -1.2303  3.6425
   15SAPS  H17S 1936   3.228   0.983   7.972  1.3603  0.7335  0.8500
   15SAPS  C218 1937   3.414   1.088   7.925 -0.6695 -0.2175 -0.0018
   15SAPS  H18R 1938   3.390   1.197   7.925 -1.4391 -0.3616  1.5609
   15SAPS  H18S 1939   3.488   1.082   7.842  1.7051 -0.9477  2.0530
   15SAPS  C219 1940   3.493   1.052   8.048 -0.2635  0.0142 -0.4773
   15SAPS  H19R 1941   3.533   0.948   8.044 -2.0593 -0.7110 -3.8560
   15SAPS  H19S 1942   3.427   1.070   8.135  1.0559  1.3317  0.2807
   15SAPS  C220 1943   3.613   1.143   8.067  0.5132 -0.1161 -0.6193
   15SAPS  H20R 1944   3.683   1.134   7.981 -1.1201 -2.1108 -1.8247
   15SAPS  H20S 1945   3.665   1.114   8.161  0.2766  3.4195  0.7410
   15SAPS  H20T 1946   3.578   1.248   8.076 -3.2218 -1.1594 -1.4254
   15SAPS   C33 1947   2.529   0.751   6.765 -0.2648 -0.1187  0.2215
   15SAPS   H3X 1948   2.558   0.667   6.699  1.1123 -0.5594  1.3500
   15SAPS   H3Y 1949   2.444   0.790   6.704  0.3766  1.2326  0.1507
   15SAPS   C34 1950   2.485   0.699   6.901 -0.7133 -0.5654  0.2069
   15SAPS   H4X 1951   2.560   0.625   6.936  1.2828  0.0417 -2.4875
   15SAPS   H4Y 1952   2.382   0.658   6.901 -0.0179 -2.4053  0.3089
   15SAPS   C35 1953   2.486   0.812   7.014  0.6876 -0.3897  0.2330
   15SAPS   H5X 1954   2.433   0.905   6.985 -0.5325 -0.3509  2.4290
   15SAPS   H5Y 1955   2.592   0.834   7.039  0.7416 -1.1140  0.6865
   15SAPS   C36 1956   2.417   0.756   7.134  0.1283 -0.1537 -0.2011
   15SAPS   H6X 1957   2.460   0.657   7.159 -1.4029 -1.7996 -3.4789
   15SAPS   H6Y 1958   2.308   0.742   7.115 -0.5508  0.1398  2.8217
   15SAPS   C37 1959   2.418   0.856   7.258 -1.0255  0.2238 -0.5120
   15SAPS   H7X 1960   2.365   0.803   7.340  0.5723 -1.2933 -0.4012
   15SAPS   H7Y 1961   2.357   0.944   7.230  1.7492  1.4446 -3.2914
   15SAPS   C38 1962   2.560   0.901   7.309  0.4511  0.3404 -0.7430
   15SAPS   H8X 1963   2.610   0.981   7.251  1.0020 -0.0472 -0.8121
   15SAPS   H8Y 1964   2.624   0.810   7.303  2.4358  1.6905 -1.0626
   15SAPS   C39 1965   2.570   0.953   7.457  0.0006  0.1230  0.3655
   15SAPS   H9X 1966   2.537   0.868   7.522  0.6477  1.4455  2.5339
   15SAPS   H9Y 1967   2.500   1.038   7.471 -0.4948 -0.1893 -0.1600
   15SAPS  C310 1968   2.703   0.999   7.497  0.5759  0.4173 -0.2700
   15SAPS  H10X 1969   2.752   1.054   7.413 -1.1674 -0.1178 -1.6897
   15SAPS  H10Y 1970   2.767   0.909   7.507  0.2525  0.1686 -0.4322
   15SAPS  C311 1971   2.724   1.085   7.624  0.2661  0.4306 -0.1417
   15SAPS  H11X 1972   2.684   1.188   7.614 -0.2345  0.1621 -1.0461
   15SAPS  H11Y 1973   2.832   1.091   7.647  0.1115  0.4745  0.6187
   15SAPS  C312 1974   2.650   1.026   7.746 -0.6502  0.5664  0.6554
   15SAPS  H12X 1975   2.660   0.916   7.740 -0.5804  0.6520 -2.5427
   15SAPS  H12Y 1976   2.543   1.052   7.729 -0.7877  1.0144  2.0812
   15SAPS  C313 1977   2.697   1.070   7.876  0.2436  0.2218 -0.4739
   15SAPS  H13X 1978   2.705   1.180   7.891  2.2170 -0.0677  0.8531
   15SAPS  H13Y 1979   2.801   1.034   7.888  0.2037 -0.0996 -1.0614
   15SAPS  C314 1980   2.614   1.006   7.978 -0.0135  0.4092  0.5303
   15SAPS  H14X 1981   2.603   0.896   7.969 -0.0301  0.3841  0.8353
   15SAPS  H14Y 1982   2.512   1.051   7.970  0.2439  0.6696 -2.5271
   15SAPS  C315 1983   2.658   1.034   8.121  0.3063 -0.1625 -0.1148
   15SAPS  H15X 1984   2.702   1.135   8.128 -1.5797  0.7223 -0.3436
   15SAPS  H15Y 1985   2.737   0.965   8.158  0.2064 -0.3944 -0.3275
   15SAPS  C316 1986   2.548   1.036   8.225  0.5951 -0.0139  0.3104
   15SAPS  H16X 1987   2.497   0.937   8.224  0.4207  0.0483  1.3543
   15SAPS  H16Y 1988   2.478   1.116   8.191  2.2039  1.7519  0.9496
   15SAPS  C317 1989   2.602   1.059   8.367 -0.6555  0.8313  0.5040
   15SAPS  H17X 1990   2.584   1.163   8.403 -2.5463  0.0050  2.1449
   15SAPS  H17Y 1991   2.711   1.039   8.359 -0.8124 -0.3726  1.1371
   15SAPS  C318 1992   2.537   0.966   8.469  0.4160 -0.4350  0.6751
   15SAPS  H18X 1993   2.428   0.987   8.477  0.8596  1.3567  3.6708
   15SAPS  H18Y 1994   2.582   0.994   8.567 -0.4883  5.3194 -0.2072
   15SAPS  H18Z 1995   2.552   0.859   8.445  0.0542 -0.4558  0.5334
   16SAPS     N 1996   2.957   1.956   6.299  0.2936  0.0397 -0.1843
   16SAPS   HN1 1997   3.038   2.002   6.344  0.9635  0.2021 -1.5289
   16SAPS   HN2 1998   2.912   2.033   6.245 -0.8174 -0.1387  0.4445
   16SAPS   HN3 1999   2.889   1.929   6.373 -0.9549 -0.4209 -1.4650
   16SAPS   C12 2000   2.987   1.837   6.215  0.3183 -0.3935  0.5691
   16SAPS  H12A 2001   2.892   1.790   6.194 -0.6133  1.3719  0.6392
   16SAPS   C13 2002   3.037   1.881   6.076 -0.0886 -0.3904  0.3802
   16SAPS  O13A 2003   3.076   2.003   6.056  0.6206  0.1528  0.3874
   16SAPS  O13B 2004   3.076   1.797   5.994  0.0265 -0.0204  0.7188
   16SAPS   C11 2005   3.094   1.742   6.282  0.4759  0.2612  0.2763
   16SAPS  H11A 2006   3.183   1.807   6.291 -0.9812  2.2640  0.8976
   16SAPS  H11B 2007   3.128   1.657   6.219  1.1314  0.0146  0.9439
   16SAPS     P 2008   3.155   1.624   6.512 -0.1864  0.0707  0.3891
   16SAPS   O13 2009   3.098   1.488   6.543  0.0272 -0.3347  0.2857
   16SAPS   O14 2010   3.292   1.627   6.461 -0.1696 -0.2110  0.4561
   16SAPS   O12 2011   3.059   1.689   6.410  0.2372 -0.4900 -0.4803
   16SAPS   O11 2012   3.145   1.710   6.645  0.1934  0.4508 -0.3258
   16SAPS    C1 2013   3.038   1.796   6.674  0.2222 -0.4217 -0.0827
   16SAPS    HA 2014   3.058   1.887   6.614  0.3262  1.0464  2.0925
   16SAPS    HB 2015   2.937   1.760   6.644 -0.2549 -1.2620  2.3052
   16SAPS    C2 2016   3.024   1.857   6.815 -0.7144 -0.1232 -0.2190
   16SAPS    HS 2017   2.925   1.906   6.824 -0.5590  0.2458 -0.5147
   16SAPS   O21 2018   3.127   1.949   6.844 -0.3108  0.2439 -0.1370
   16SAPS   C21 2019   3.102   2.071   6.797 -0.6383 -0.2199  0.2032
   16SAPS   O22 2020   3.006   2.105   6.731  0.2691  0.3236 -1.0107
   16SAPS   C22 2021   3.215   2.160   6.833 -0.2471  0.2239 -0.0426
   16SAPS   H2R 2022   3.305   2.109   6.873  0.7747 -0.0449 -2.4951
   16SAPS   H2S 2023   3.253   2.219   6.746 -1.5580  0.7669 -0.2709
   16SAPS    C3 2024   3.021   1.739   6.916 -0.0152  0.3400 -0.6085
   16SAPS    HX 2025   3.097   1.660   6.898 -1.8051 -1.6242  0.0085
   16SAPS    HY 2026   2.925   1.688   6.893 -0.6832  1.5951 -0.7100
   16SAPS   O31 2027   3.006   1.786   7.052 -0.2894  0.5950  0.4972
   16SAPS   C31 2028   3.111   1.799   7.123  0.1695  0.3205  0.1913
   16SAPS   O32 2029   3.222   1.777   7.083 -0.1623 -0.3379  0.7613
   16SAPS   C32 2030   3.077   1.858   7.262  0.5469 -0.8411  0.3274
   16SAPS   H2X 2031   2.970   1.832   7.275  0.4489 -1.6091 -1.7234
   16SAPS   H2Y 2032   3.081   1.969   7.260 -3.1824 -0.5679  0.5716
   16SAPS   C23 2033   3.196   2.270   6.941 -0.3673  0.0827  0.5946
   16SAPS   H3R 2034   3.102   2.325   6.918 -0.0530  1.1121  1.7357
   16SAPS   H3S 2035   3.277   2.346   6.935  0.0647 -0.3971  0.2133
   16SAPS   C24 2036   3.192   2.212   7.078 -0.2426  0.0742  0.2983
   16SAPS   H4R 2037   3.145   2.112   7.069  4.3264 -2.2051 -1.7028
   16SAPS   H4S 2038   3.126   2.281   7.134 -0.5399 -0.6719  0.8928
   16SAPS   C25 2039   3.324   2.183   7.150 -0.6079 -0.5283 -0.3004
   16SAPS   H5R 2040   3.403   2.137   7.089  0.6420  0.9837  0.1269
   16SAPS   C26 2041   3.352   2.204   7.278 -0.4762 -0.0157  0.3225
   16SAPS   H6R 2042   3.454   2.202   7.320 -0.5308  2.2827  0.7211
   16SAPS   C27 2043   3.245   2.246   7.380  0.2470 -0.5121  0.6694
   16SAPS   H7R 2044   3.248   2.175   7.465  1.3275  0.0844  1.1584
   16SAPS   H7S 2045   3.141   2.240   7.343  0.2029 -4.4584  1.0978
   16SAPS   C28 2046   3.266   2.393   7.429  0.2662  0.3045  0.5292
   16SAPS   H8R 2047   3.281   2.464   7.347 -3.0686 -2.4577 -2.8566
   16SAPS   C29 2048   3.288   2.430   7.557 -0.2007 -0.3126  0.7590
   16SAPS   H9R 2049   3.311   2.536   7.576  1.4480  0.0021 -2.3134
   16SAPS  C210 2050   3.278   2.336   7.679 -0.5615  0.5180  0.0307
   16SAPS  H10R 2051   3.336   2.379   7.764  0.2073 -0.7171  0.1526
   16SAPS  H10S 2052   3.329   2.239   7.661 -1.4594  0.0794 -0.1592
   16SAPS  C211 2053   3.136   2.321   7.724  0.0608 -0.4983 -0.0137
   16SAPS  H11R 2054   3.074   2.284   7.641 -0.4940  1.8347 -0.7149
   16SAPS  C212 2055   3.088   2.346   7.847 -0.5310  0.3887  0.6741
   16SAPS  H12R 2056   2.979   2.343   7.859 -0.7457 -1.2699 -1.1938
   16SAPS  C213 2057   3.172   2.381   7.967  0.2634 -0.4562  0.0387
   16SAPS  H13R 2058   3.104   2.438   8.034  1.0161 -0.9762  1.2706
   16SAPS  H13S 2059   3.256   2.446   7.936  0.0924 -0.5247 -0.5821
   16SAPS  C214 2060   3.222   2.264   8.041  0.4001  0.8877  0.2139
   16SAPS  H14R 2061   3.256   2.184   7.975  2.1546  0.8769  1.0708
   16SAPS  C215 2062   3.246   2.240   8.173  0.4437 -0.1662 -0.5397
   16SAPS  H15R 2063   3.279   2.141   8.208 -2.4510 -0.6574  1.1092
   16SAPS  C216 2064   3.226   2.342   8.276  0.1569 -0.2098  0.5314
   16SAPS  H16R 2065   3.251   2.443   8.237 -0.1159 -0.7662 -1.1939
   16SAPS  H16S 2066   3.309   2.331   8.350  0.5066 -1.1972  0.0103
   16SAPS  C217 2067   3.086   2.351   8.329 -0.1327 -1.0348 -0.1614
   16SAPS  H17R 2068   3.059   2.252   8.373  0.2827 -1.2757 -0.4534
   16SAPS  H17S 2069   3.016   2.387   8.251  0.5500  0.9883  0.1155
   16SAPS  C218 2070   3.078   2.451   8.442  0.8296  0.3760 -0.3028
   16SAPS  H18R 2071   2.972   2.454   8.475  1.2472  1.7431  1.0377
   16SAPS  H18S 2072   3.106   2.554   8.412 -1.2426  1.7742  2.1736
   16SAPS  C219 2073   3.165   2.427   8.565  0.1384  0.2797 -0.0624
   16SAPS  H19R 2074   3.161   2.516   8.631 -4.3411 -0.6108  1.1825
   16SAPS  H19S 2075   3.270   2.419   8.528  0.8810  0.5861  1.8792
   16SAPS  C220 2076   3.120   2.303   8.635 -0.5547 -0.0252 -0.6399
   16SAPS  H20R 2077   3.010   2.293   8.646 -0.0938 -3.8815  2.7024
   16SAPS  H20S 2078   3.171   2.294   8.733  0.6837 -0.8700 -1.3322
   16SAPS  H20T 2079   3.147   2.213   8.575 -0.4584 -0.4836  0.0822
   16SAPS   C33 2080   3.159   1.802   7.373 -0.5936 -0.3703 -0.5805
   16SAPS   H3X 2081   3.265   1.831   7.357 -0.8843  1.4467  0.4627
   16SAPS   H3Y 2082   3.145   1.693   7.391 -0.1457 -0.4207 -0.5151
   16SAPS   C34 2083   3.118   1.876   7.503 -0.2740 -0.4753 -0.6090
   16SAPS   H4X 2084   3.017   1.833   7.517  0.7065 -2.3592  1.3313
   16SAPS   H4Y 2085   3.107   1.984   7.477 -0.4079 -0.7021 -1.5219
   16SAPS   C35 2086   3.220   1.860   7.623  0.2244  0.3597 -0.1783
   16SAPS   H5X 2087   3.321   1.902   7.601  0.5396 -0.4883 -0.3732
   16SAPS   H5Y 2088   3.221   1.754   7.656 -1.4443  0.2953 -0.2574
   16SAPS   C36 2089   3.164   1.935   7.740  0.8323 -0.4036 -0.3025
   16SAPS   H6X 2090   3.057   1.918   7.762  0.7384  0.0030 -0.4384
   16SAPS   H6Y 2091   3.174   2.042   7.713 -2.6849  0.1904  0.3771
   16SAPS   C37 2092   3.249   1.896   7.862  0.4607 -0.0709 -0.2285
   16SAPS   H7X 2093   3.267   1.787   7.876 -0.2846 -0.0523  1.0029
   16SAPS   H7Y 2094   3.202   1.948   7.948 -0.3245 -3.4901  1.5921
   16SAPS   C38 2095   3.395   1.957   7.863 -0.7160 -0.3807 -0.0642
   16SAPS   H8X 2096   3.399   2.058   7.817 -0.6595  0.0434  0.8500
   16SAPS   H8Y 2097   3.465   1.898   7.800 -2.7657 -2.1908 -0.7584
   16SAPS   C39 2098   3.446   1.975   8.004  0.6585  0.2302 -0.5529
   16SAPS   H9X 2099   3.448   1.874   8.050  2.3380  0.8794  0.9212
   16SAPS   H9Y 2100   3.363   2.022   8.062 -0.9421 -2.2412 -0.7059
   16SAPS  C310 2101   3.582   2.041   8.005  0.4235  0.1774  0.1639
   16SAPS  H10X 2102   3.566   2.138   8.056 -1.0271  0.0811 -0.0787
   16SAPS  H10Y 2103   3.616   2.051   7.900 -0.5247 -0.0923 -0.1858
   16SAPS  C311 2104   3.680   1.969   8.100  0.1029 -0.5370 -0.2538
   16SAPS  H11X 2105   3.783   2.007   8.084 -0.2263  0.6182  0.2862
   16SAPS  H11Y 2106   3.675   1.864   8.064 -4.0760 -0.1233 -1.4188
   16SAPS  C312 2107   3.651   1.970   8.251 -0.1955 -0.4867 -0.9566
   16SAPS  H12X 2108   3.710   1.893   8.306 -2.2026  0.2151  2.5259
   16SAPS  H12Y 2109   3.547   1.937   8.273  0.8696 -1.7971  2.8812
   16SAPS  C313 2110   3.678   2.106   8.320  0.5541 -0.1950  0.0095
   16SAPS  H13X 2111   3.627   2.187   8.264 -2.8136 -1.4568  0.9987
   16SAPS  H13Y 2112   3.788   2.125   8.321  0.5059  0.6441 -2.7459
   16SAPS  C314 2113   3.627   2.113   8.471 -0.6089  0.1565  0.4248
   16SAPS  H14X 2114   3.666   2.034   8.540 -0.9403  0.6253  1.1519
   16SAPS  H14Y 2115   3.517   2.105   8.471 -0.8813  3.0490  0.2663
   16SAPS  C315 2116   3.664   2.240   8.546 -0.0506  0.0814 -0.2965
   16SAPS  H15X 2117   3.655   2.334   8.487 -1.7725 -0.2759 -0.6552
   16SAPS  H15Y 2118   3.773   2.242   8.566 -0.2539  1.0810  0.8570
   16SAPS  C316 2119   3.574   2.257   8.674  0.6062 -0.1273 -0.5137
   16SAPS  H16X 2120   3.610   2.185   8.750  0.8086 -2.0699 -2.3573
   16SAPS  H16Y 2121   3.468   2.231   8.654 -1.3613  2.6945  4.4305
   16SAPS  C317 2122   3.594   2.405   8.724 -0.3088  0.3059  0.5581
   16SAPS  H17X 2123   3.589   2.477   8.639 -3.1056  0.1784  0.5181
   16SAPS  H17Y 2124   3.697   2.415   8.766  0.3087  2.1079 -1.2283
   16SAPS  C318 2125   3.511   2.464   8.840  0.4686 -0.4462  0.4672
   16SAPS  H18X 2126   3.515   2.400   8.930  0.7429  1.0333  1.5424
   16SAPS  H18Y 2127   3.403   2.479   8.819  0.1338 -3.3260 -0.2217
   16SAPS  H18Z 2128   3.549   2.566   8.864 -0.2976 -0.5645  2.3550
   17SAPC     N 2129   2.109   5.445  10.773 -0.4850 -0.0722  1.1790
   17SAPC   C12 2130   2.000   5.432  10.664  0.6030  0.1686  0.0241
   17SAPC  H12A 2131   2.033   5.499  10.587 -2.3574 -1.1233 -2.5861
   17SAPC  H12B 2132   1.905   5.464  10.706 -0.1109 -0.9769 -0.6517
   17SAPC   C13 2133   2.072   5.364  10.894 -0.7314 -0.7375 -0.0256
   17SAPC  H13A 2134   1.978   5.393  10.939  0.7587 -0.7260  3.3687
   17SAPC  H13B 2135   2.053   5.261  10.869  0.0262 -0.7791 -0.4582
   17SAPC  H13C 2136   2.152   5.349  10.965 -0.0605  0.2096 -0.5457
   17SAPC   C14 2137   2.242   5.395  10.720  0.1328  0.3005 -0.2987
   17SAPC  H14A 2138   2.305   5.376  10.806 -0.0503 -0.4893 -0.3249
   17SAPC  H14B 2139   2.233   5.295  10.680  1.5583  1.0090 -2.5926
   17SAPC  H14C 2140   2.281   5.459  10.643 -1.0964  0.0256 -1.1696
   17SAPC   C15 2141   2.129   5.591  10.808  0.5674  0.4808 -0.0731
   17SAPC  H15A 2142   2.220   5.594  10.867  2.4165 -0.1976 -2.7047
   17SAPC  H15B 2143   2.157   5.667  10.736  1.6105  1.7114  1.5535
   17SAPC  H15C 2144   2.052   5.625  10.876 -0.2576  1.1720 -1.3224
   17SAPC   C11 2145   1.981   5.302  10.588 -0.9131 -0.5280 -0.1014
   17SAPC  H11A 2146   2.081   5.278  10.546 -0.9350  1.0613 -1.1722
   17SAPC  H11B 2147   1.922   5.336  10.500  0.2413  0.2580 -0.6138
   17SAPC     P 2148   1.760   5.199  10.701 -0.4901 -0.1090  0.0138
   17SAPC   O13 2149   1.749   5.113  10.821 -0.4472 -0.4465 -0.0657
   17SAPC   O14 2150   1.698   5.332  10.718 -0.3924 -0.4342  0.2060
   17SAPC   O12 2151   1.914   5.202  10.669  0.5166 -0.3804  0.2640
   17SAPC   O11 2152   1.697   5.117  10.584  0.7532 -0.3073  0.2988
   17SAPC    C1 2153   1.621   5.187  10.478 -0.0472  0.2478  0.6403
   17SAPC    HA 2154   1.515   5.203  10.508 -0.3411 -1.7665  0.8190
   17SAPC    HB 2155   1.658   5.284  10.441 -2.2932  0.9801  0.1353
   17SAPC    C2 2156   1.622   5.108  10.343 -0.3500 -0.4106 -0.0765
   17SAPC    HS 2157   1.552   5.021  10.347 -0.3078 -0.5682 -2.0931
   17SAPC   O21 2158   1.758   5.082  10.292  0.6810 -0.2978 -0.3846
   17SAPC   C21 2159   1.814   4.973  10.341  0.5207  0.1664 -0.6800
   17SAPC   O22 2160   1.757   4.886  10.408  0.2049  0.4900 -0.2830
   17SAPC   C22 2161   1.958   4.964  10.297 -0.4723 -1.3834 -0.5743
   17SAPC   H2R 2162   2.024   5.007  10.376  0.8101  0.3925 -2.5108
   17SAPC   H2S 2163   2.000   4.861  10.295  4.3103  0.3063 -1.2406
   17SAPC    C3 2164   1.549   5.197  10.233  0.3239 -0.2382  0.5500
   17SAPC    HX 2165   1.599   5.296  10.227  2.5853 -1.3221  0.6943
   17SAPC    HY 2166   1.443   5.222  10.259  0.7824  4.0312 -0.8093
   17SAPC   O31 2167   1.559   5.134  10.104 -0.4216  0.4597  0.3097
   17SAPC   C31 2168   1.511   5.211  10.003 -0.6840 -0.5695 -1.0316
   17SAPC   O32 2169   1.472   5.329  10.016  0.3028 -0.0170 -0.6494
   17SAPC   C32 2170   1.500   5.129   9.883  0.2316  0.3078 -0.1617
   17SAPC   H2X 2171   1.420   5.055   9.904 -0.0047  0.8895  1.0439
   17SAPC   H2Y 2172   1.596   5.083   9.849 -1.3006 -2.2562 -1.2324
   17SAPC   C23 2173   1.995   5.021  10.160  0.0023 -0.9611 -0.4408
   17SAPC   H3R 2174   2.104   5.042  10.156 -0.2866  1.0622  0.9889
   17SAPC   H3S 2175   1.959   5.124  10.140 -1.7578 -1.6535 -1.0156
   17SAPC   C24 2176   1.945   4.937  10.044 -0.2584 -0.1982  0.5015
   17SAPC   H4R 2177   1.879   5.007   9.988 -1.2633  1.3785  3.4255
   17SAPC   H4S 2178   1.892   4.847  10.083  1.4227 -0.7686  1.6134
   17SAPC   C25 2179   2.065   4.895   9.963 -0.2344 -0.5647 -0.5234
   17SAPC   H5R 2180   2.140   4.836  10.017  1.7789  2.4755  0.2757
   17SAPC   C26 2181   2.087   4.922   9.832  0.1529  0.3243 -0.1256
   17SAPC   H6R 2182   2.187   4.906   9.789  0.1244  0.6172 -0.3030
   17SAPC   C27 2183   1.997   5.002   9.737 -0.3903 -0.0784 -0.2085
   17SAPC   H7R 2184   2.054   5.049   9.654 -0.6587 -0.0525 -0.3784
   17SAPC   H7S 2185   1.943   5.083   9.791 -2.1662 -1.3267 -0.0579
   17SAPC   C28 2186   1.887   4.917   9.680 -0.1500  0.4155 -0.0077
   17SAPC   H8R 2187   1.817   4.893   9.762  2.9489 -2.7600  2.0191
   17SAPC   C29 2188   1.875   4.866   9.555  0.6670 -0.2507  0.2218
   17SAPC   H9R 2189   1.781   4.812   9.538  0.1927  0.0925  1.6373
   17SAPC  C210 2190   1.963   4.889   9.430  0.3056 -0.4384 -0.3606
   17SAPC  H10R 2191   2.052   4.828   9.453 -1.5227 -3.7683 -1.4359
   17SAPC  H10S 2192   1.998   4.994   9.419  2.6610 -1.2728 -1.5732
   17SAPC  C211 2193   1.908   4.835   9.301  0.1673  0.2612  0.5325
   17SAPC  H11R 2194   1.848   4.909   9.246  1.5336  0.8600 -0.2015
   17SAPC  C212 2195   1.937   4.724   9.222  0.6059 -0.7325 -0.4459
   17SAPC  H12R 2196   1.892   4.719   9.122  0.7404 -2.0458 -0.4559
   17SAPC  C213 2197   2.040   4.614   9.250  0.0684 -0.7525 -0.5947
   17SAPC  H13R 2198   1.988   4.517   9.268 -1.0547 -0.5505 -2.5057
   17SAPC  H13S 2199   2.100   4.637   9.341  1.4441 -0.2454 -1.5926
   17SAPC  C214 2200   2.137   4.612   9.139 -0.2962  0.0692 -0.0632
   17SAPC  H14R 2201   2.222   4.682   9.148  1.8414 -2.3094 -0.6276
   17SAPC  C215 2202   2.127   4.531   9.027  0.2838  0.1579  0.3203
   17SAPC  H15R 2203   2.206   4.521   8.952 -1.5827 -0.5715 -1.6641
   17SAPC  C216 2204   2.007   4.434   8.998  0.4651 -0.8042  0.0049
   17SAPC  H16R 2205   1.930   4.419   9.076 -0.2813  1.7062 -0.1490
   17SAPC  H16S 2206   2.040   4.338   8.953  2.5235  0.5467 -1.5778
   17SAPC  C217 2207   1.931   4.509   8.882 -0.1277  0.3019  0.0342
   17SAPC  H17R 2208   1.900   4.612   8.910  0.4704  0.7228 -0.8218
   17SAPC  H17S 2209   1.835   4.456   8.867 -1.4539  1.7237  2.7585
   17SAPC  C218 2210   1.999   4.519   8.752 -0.1795 -0.2817 -0.3449
   17SAPC  H18R 2211   2.074   4.437   8.759  2.1888  1.8880  1.5717
   17SAPC  H18S 2212   2.054   4.615   8.741 -2.2935  0.8603 -1.7003
   17SAPC  C219 2213   1.917   4.505   8.623  0.2739 -0.4259  0.1682
   17SAPC  H19R 2214   1.881   4.401   8.607 -0.6067 -0.5863  2.7229
   17SAPC  H19S 2215   1.975   4.546   8.537 -1.1335  0.2541 -0.4915
   17SAPC  C220 2216   1.791   4.592   8.642 -0.1280 -0.0795  0.7224
   17SAPC  H20R 2217   1.807   4.702   8.637 -0.0966 -0.1328 -2.9273
   17SAPC  H20S 2218   1.729   4.548   8.723 -1.5202 -2.0693 -1.3009
   17SAPC  H20T 2219   1.727   4.572   8.554 -0.3335 -0.1272  0.8826
   17SAPC   C33 2220   1.445   5.218   9.776 -0.8044 -0.6403  0.2206
   17SAPC   H3X 2221   1.532   5.284   9.752  0.8276 -2.4668  0.8366
   17SAPC   H3Y 2222   1.362   5.287   9.801  0.1921  0.3136  0.9694
   17SAPC   C34 2223   1.422   5.136   9.652 -0.2258  0.0482 -0.8586
   17SAPC   H4X 2224   1.331   5.073   9.662  1.9298 -3.2838 -0.5908
   17SAPC   H4Y 2225   1.508   5.069   9.630 -0.3402 -0.8256  1.0869
   17SAPC   C35 2226   1.402   5.224   9.528  0.2783 -0.7539 -0.3124
   17SAPC   H5X 2227   1.486   5.297   9.531 -0.4527  0.0882  1.4251
   17SAPC   H5Y 2228   1.303   5.275   9.527  0.7710  0.2865  0.5784
   17SAPC   C36 2229   1.418   5.151   9.393 -0.4381 -0.4939  0.1814
   17SAPC   H6X 2230   1.363   5.057   9.415 -2.1647  0.8787  2.0941
   17SAPC   H6Y 2231   1.525   5.130   9.372 -0.4516 -1.6336  1.1423
   17SAPC   C37 2232   1.363   5.243   9.279 -0.2643  0.0390  0.1990
   17SAPC   H7X 2233   1.435   5.327   9.281  1.3520 -1.2700  2.7350
   17SAPC   H7Y 2234   1.262   5.283   9.303 -0.7962 -0.7696 -0.6249
   17SAPC   C38 2235   1.333   5.173   9.148  0.0434  0.1248  0.3542
   17SAPC   H8X 2236   1.280   5.079   9.176  2.7166 -1.7083 -0.4160
   17SAPC   H8Y 2237   1.424   5.141   9.094 -0.9264 -0.8816 -0.7602
   17SAPC   C39 2238   1.232   5.252   9.058 -0.2195 -0.2651  0.3231
   17SAPC   H9X 2239   1.248   5.362   9.052 -2.7945  0.1618 -0.0934
   17SAPC   H9Y 2240   1.135   5.254   9.112  0.2105 -0.2247  1.1030
   17SAPC  C310 2241   1.210   5.186   8.924 -0.1347  0.0902  0.9976
   17SAPC  H10X 2242   1.146   5.098   8.945 -1.1109  0.8690  1.3651
   17SAPC  H10Y 2243   1.311   5.151   8.894  0.0678 -0.2219  1.9950
   17SAPC  C311 2244   1.154   5.284   8.819 -0.2071 -0.1713 -0.2242
   17SAPC  H11X 2245   1.132   5.249   8.716  1.8434  2.8189 -1.7976
   17SAPC  H11Y 2246   1.238   5.355   8.807 -1.6107  1.7822  0.8446
   17SAPC  C312 2247   1.024   5.357   8.876  0.5739  0.2805  0.4974
   17SAPC  H12X 2248   0.977   5.413   8.792  0.2224 -3.4411 -2.0402
   17SAPC  H12Y 2249   1.041   5.434   8.953 -2.1853 -0.0079  1.4805
   17SAPC  C313 2250   0.907   5.261   8.923  0.5150 -0.0409 -0.1997
   17SAPC  H13X 2251   0.823   5.327   8.954  0.5760 -0.1466  0.1987
   17SAPC  H13Y 2252   0.945   5.205   9.011 -1.2866 -1.6836 -0.3957
   17SAPC  C314 2253   0.849   5.161   8.820 -0.3664 -0.3273 -0.0659
   17SAPC  H14X 2254   0.923   5.081   8.798 -0.0673 -0.3425  0.9197
   17SAPC  H14Y 2255   0.811   5.221   8.735 -1.6332 -0.5016  0.3499
   17SAPC  C315 2256   0.726   5.084   8.878  0.4982  0.4495 -0.3138
   17SAPC  H15X 2257   0.641   5.155   8.887  1.3782  1.5342 -0.3512
   17SAPC  H15Y 2258   0.749   5.051   8.982 -2.7144  2.0167  1.0344
   17SAPC  C316 2259   0.674   4.961   8.791 -0.4628  0.0501 -1.2054
   17SAPC  H16X 2260   0.765   4.898   8.785 -0.5809 -0.6636  2.4110
   17SAPC  H16Y 2261   0.643   4.997   8.691 -1.3352 -0.1046 -0.9997
   17SAPC  C317 2262   0.552   4.890   8.855 -0.1598  0.3605 -0.4225
   17SAPC  H17X 2263   0.581   4.875   8.961  2.0066  1.1453 -0.8560
   17SAPC  H17Y 2264   0.550   4.794   8.799 -1.1782 -0.0293  0.2704
   17SAPC  C318 2265   0.424   4.969   8.854 -0.4254  0.0842 -0.8973
   17SAPC  H18X 2266   0.389   5.004   8.755 -0.8925  0.7204 -0.5220
   17SAPC  H18Y 2267   0.343   4.930   8.919  2.3949 -0.8878  2.3580
   17SAPC  H18Z 2268   0.446   5.065   8.906 -0.3980 -0.2700 -0.2437
   18SAPC     N 2269   2.187   6.374  11.035 -0.1234 -0.3444  0.4254
   18SAPC   C12 2270   2.159   6.461  10.910 -0.0564 -0.3697 -0.4479
   18SAPC  H12A 2271   2.160   6.566  10.936  0.5907  0.2710 -2.8521
   18SAPC  H12B 2272   2.059   6.433  10.879 -0.0046  1.2883 -2.3228
   18SAPC   C13 2273   2.176   6.234  11.008  0.1296 -0.0604 -0.0453
   18SAPC  H13A 2274   2.209   6.210  10.908 -1.4413  0.2908 -0.6879
   18SAPC  H13B 2275   2.232   6.179  11.082  0.8778 -0.6697 -1.0411
   18SAPC  H13C 2276   2.076   6.194  11.011 -0.0236  0.2339 -1.0076
   18SAPC   C14 2277   2.333   6.398  11.073 -0.5424 -0.0583  0.6730
   18SAPC  H14A 2278   2.374   6.324  11.140  1.2768  1.0481  0.8394
   18SAPC  H14B 2279   2.397   6.409  10.987 -1.6141  0.2115 -0.1260
   18SAPC  H14C 2280   2.359   6.489  11.125  0.6222 -0.4738  0.8261
   18SAPC   C15 2281   2.102   6.422  11.151  0.1674  0.2896  0.2222
   18SAPC  H15A 2282   1.998   6.417  11.121  0.1891  3.0738 -0.5892
   18SAPC  H15B 2283   2.124   6.367  11.240  0.4009 -0.2270 -0.1506
   18SAPC  H15C 2284   2.122   6.528  11.159 -0.5209  0.4509 -0.0952
   18SAPC   C11 2285   2.249   6.445  10.792  0.0542 -0.3824  0.2221
   18SAPC  H11A 2286   2.356   6.469  10.807  0.0402 -1.6582  2.7935
   18SAPC  H11B 2287   2.211   6.515  10.714  1.6409  0.6399  0.3172
   18SAPC     P 2288   2.111   6.268  10.637 -0.1514  0.5085  0.3561
   18SAPC   O13 2289   2.062   6.133  10.680 -0.7895 -0.4609  0.9953
   18SAPC   O14 2290   2.012   6.381  10.639  0.9105 -0.0330  0.0480
   18SAPC   O12 2291   2.234   6.313  10.733 -0.0316  0.3413 -0.2443
   18SAPC   O11 2292   2.178   6.257  10.495  0.0903  0.2267 -0.0031
   18SAPC    C1 2293   2.299   6.179  10.469 -0.0227 -0.6252 -0.6681
   18SAPC    HA 2294   2.330   6.105  10.547  0.2854 -0.3649 -0.5378
   18SAPC    HB 2295   2.275   6.119  10.379  1.0784 -0.5354 -1.0389
   18SAPC    C2 2296   2.419   6.264  10.426 -0.2967  0.2988  0.4670
   18SAPC    HS 2297   2.455   6.324  10.512  0.8939 -0.4865  0.5495
   18SAPC   O21 2298   2.374   6.350  10.317  0.6430 -0.1438 -0.0433
   18SAPC   C21 2299   2.445   6.447  10.270  0.4908 -0.6766 -0.5585
   18SAPC   O22 2300   2.543   6.498  10.324 -0.3869 -0.1402 -0.4150
   18SAPC   C22 2301   2.408   6.479  10.127 -1.0093 -0.0986 -0.5763
   18SAPC   H2R 2302   2.333   6.407  10.089  2.2383 -4.4367  0.4660
   18SAPC   H2S 2303   2.370   6.584  10.123  0.0666  0.3039 -0.5770
   18SAPC    C3 2304   2.546   6.189  10.388 -0.4522 -0.6146 -0.4305
   18SAPC    HX 2305   2.569   6.121  10.473  1.6416  2.3340  1.5637
   18SAPC    HY 2306   2.617   6.272  10.372 -1.2046  0.3210  0.9469
   18SAPC   O31 2307   2.520   6.108  10.273 -0.1963  0.2623  0.1913
   18SAPC   C31 2308   2.577   6.141  10.159  0.4452  0.7019 -0.3574
   18SAPC   O32 2309   2.678   6.198  10.147  0.0060  0.4791 -0.2867
   18SAPC   C32 2310   2.489   6.100  10.041 -0.4964  0.5814 -1.4105
   18SAPC   H2X 2311   2.400   6.165  10.046 -2.5558 -2.0934 -1.0771
   18SAPC   H2Y 2312   2.455   5.997  10.062 -0.3174  0.5252 -1.3877
   18SAPC   C23 2313   2.530   6.496  10.028  0.4042 -0.6041 -0.4202
   18SAPC   H3R 2314   2.585   6.405   9.995  0.4233  0.4147 -3.5021
   18SAPC   H3S 2315   2.604   6.555  10.087 -0.6557 -1.8141  2.3161
   18SAPC   C24 2316   2.484   6.566   9.895 -0.1628 -0.1130  0.4344
   18SAPC   H4R 2317   2.575   6.612   9.852 -1.6516  1.4172 -1.2267
   18SAPC   H4S 2318   2.430   6.660   9.918  0.9708  1.2570 -2.1696
   18SAPC   C25 2319   2.407   6.474   9.803 -0.5642 -0.4746 -0.0528
   18SAPC   H5R 2320   2.311   6.446   9.849 -0.3434 -0.5544  0.3647
   18SAPC   C26 2321   2.444   6.424   9.684 -0.3170 -0.1678  0.3245
   18SAPC   H6R 2322   2.368   6.363   9.632 -0.8386  0.7582 -0.0328
   18SAPC   C27 2323   2.576   6.455   9.624  0.3374  0.0159  0.4500
   18SAPC   H7R 2324   2.624   6.553   9.645 -0.7945  0.9650 -1.1252
   18SAPC   H7S 2325   2.567   6.455   9.513 -4.4769  0.3614  0.6100
   18SAPC   C28 2326   2.685   6.358   9.649  0.0335 -0.2413  0.2239
   18SAPC   H8R 2327   2.746   6.370   9.740  1.9888 -3.6074 -0.4629
   18SAPC   C29 2328   2.718   6.254   9.578 -0.6888  0.3945  0.5669
   18SAPC   H9R 2329   2.797   6.191   9.621 -0.2334  0.1897 -0.5422
   18SAPC  C210 2330   2.652   6.204   9.447 -0.0746 -0.1696  0.3900
   18SAPC  H10R 2331   2.629   6.299   9.394  0.9948 -0.3621 -0.4421
   18SAPC  H10S 2332   2.554   6.153   9.460 -0.8043  0.8950 -0.6728
   18SAPC  C211 2333   2.740   6.116   9.363 -0.2895 -0.1691  0.4561
   18SAPC  H11R 2334   2.774   6.026   9.417  0.7526 -0.2217 -0.2554
   18SAPC  C212 2335   2.794   6.147   9.243 -0.3395 -0.3759  0.2725
   18SAPC  H12R 2336   2.866   6.079   9.195  0.3342  0.6399 -0.2010
   18SAPC  C213 2337   2.782   6.279   9.170  0.8427 -0.4219  0.5638
   18SAPC  H13R 2338   2.867   6.296   9.101 -0.6139  1.2401 -0.9404
   18SAPC  H13S 2339   2.796   6.364   9.241 -1.0267 -0.0697  0.5808
   18SAPC  C214 2340   2.658   6.290   9.083  0.9002 -0.1781  0.0751
   18SAPC  H14R 2341   2.571   6.324   9.141 -0.6323 -1.2206 -1.5433
   18SAPC  C215 2342   2.643   6.250   8.959  0.5876 -0.2892  0.5123
   18SAPC  H15R 2343   2.544   6.265   8.914 -0.2951  0.8635  2.6937
   18SAPC  C216 2344   2.745   6.194   8.868 -0.3510  0.8308 -0.2115
   18SAPC  H16R 2345   2.848   6.213   8.907  0.2257  0.6378 -1.5946
   18SAPC  H16S 2346   2.746   6.229   8.763  0.1167  1.0728 -0.1321
   18SAPC  C217 2347   2.745   6.040   8.880 -0.1088 -0.2348  0.0266
   18SAPC  H17R 2348   2.753   6.001   8.983 -1.1186 -0.1388  0.1511
   18SAPC  H17S 2349   2.832   6.005   8.820 -0.9228 -0.4908 -1.0384
   18SAPC  C218 2350   2.619   5.991   8.809  0.2662  0.4702 -0.4204
   18SAPC  H18R 2351   2.610   6.050   8.716  3.3534  3.7927  1.1581
   18SAPC  H18S 2352   2.533   5.987   8.879  2.0707 -2.2668  1.8937
   18SAPC  C219 2353   2.638   5.840   8.769 -0.7652  0.1148  0.1037
   18SAPC  H19R 2354   2.656   5.780   8.861  1.5807 -0.7131 -0.8509
   18SAPC  H19S 2355   2.726   5.833   8.703 -0.8091  1.1108 -0.0798
   18SAPC  C220 2356   2.522   5.770   8.698  0.3612 -0.0771  0.2027
   18SAPC  H20R 2357   2.427   5.794   8.751  0.5221  0.8273  0.1057
   18SAPC  H20S 2358   2.544   5.662   8.706  2.6380  0.2763 -0.6661
   18SAPC  H20T 2359   2.508   5.797   8.591  1.1824  0.0150  0.1127
   18SAPC   C33 2360   2.550   6.119   9.904 -0.5639 -0.1461 -0.2509
   18SAPC   H3X 2361   2.653   6.078   9.913 -1.1710 -1.9348 -0.9883
   18SAPC   H3Y 2362   2.569   6.228   9.894  0.7819 -0.4197 -0.9136
   18SAPC   C34 2363   2.482   6.031   9.802  0.2816  0.1777  0.3302
   18SAPC   H4X 2364   2.522   6.064   9.704  1.4354 -0.6029  0.5204
   18SAPC   H4Y 2365   2.373   6.049   9.817 -0.1579 -1.0434 -1.1276
   18SAPC   C35 2366   2.498   5.874   9.814  0.3353  0.1601 -0.9121
   18SAPC   H5X 2367   2.455   5.835   9.909 -0.1831  1.1118 -0.7465
   18SAPC   H5Y 2368   2.608   5.864   9.809  0.2195 -2.1294  0.0568
   18SAPC   C36 2369   2.428   5.814   9.687 -0.2189 -0.5707 -0.5339
   18SAPC   H6X 2370   2.327   5.851   9.662 -0.9748 -1.8568  0.4942
   18SAPC   H6Y 2371   2.424   5.703   9.691  2.8433 -0.7425  1.4352
   18SAPC   C37 2372   2.525   5.822   9.559  0.2452 -0.5676 -1.2005
   18SAPC   H7X 2373   2.623   5.771   9.571  1.7451  2.4140  0.2455
   18SAPC   H7Y 2374   2.556   5.928   9.549  0.1125 -0.3188  0.6051
   18SAPC   C38 2375   2.464   5.782   9.425  0.3280 -0.4402  0.6840
   18SAPC   H8X 2376   2.371   5.843   9.424  1.0108  0.7681 -2.6885
   18SAPC   H8Y 2377   2.449   5.672   9.428 -0.6429 -0.3787 -0.9713
   18SAPC   C39 2378   2.544   5.835   9.301  0.7928 -0.2059 -0.1420
   18SAPC   H9X 2379   2.655   5.835   9.314  0.9836  1.4192 -1.4303
   18SAPC   H9Y 2380   2.522   5.942   9.281  0.5018 -0.5216 -1.6728
   18SAPC  C310 2381   2.506   5.763   9.174 -0.2427  0.1216  0.1602
   18SAPC  H10X 2382   2.562   5.802   9.086 -0.9018 -1.7637 -1.1780
   18SAPC  H10Y 2383   2.401   5.780   9.141  0.2901 -1.2857 -2.6067
   18SAPC  C311 2384   2.531   5.606   9.195  0.7374 -0.5718 -0.5005
   18SAPC  H11X 2385   2.462   5.551   9.262 -0.5101  1.2095 -0.2627
   18SAPC  H11Y 2386   2.629   5.601   9.248  0.6958  3.1997  0.2043
   18SAPC  C312 2387   2.525   5.528   9.065 -0.6159  0.7092 -0.1210
   18SAPC  H12X 2388   2.559   5.595   8.983 -2.6663  1.3815 -0.4974
   18SAPC  H12Y 2389   2.423   5.490   9.042 -1.0641  2.0011 -0.3492
   18SAPC  C313 2390   2.617   5.408   9.073 -0.7605  0.2432  0.6272
   18SAPC  H13X 2391   2.579   5.332   9.144 -0.6270 -0.9129 -0.5052
   18SAPC  H13Y 2392   2.714   5.450   9.110  0.1361  0.9909 -2.2740
   18SAPC  C314 2393   2.640   5.334   8.941  0.2020 -0.2258  0.1039
   18SAPC  H14X 2394   2.539   5.331   8.893  0.3110 -4.0304 -0.1669
   18SAPC  H14Y 2395   2.671   5.227   8.946 -2.2361 -1.0385 -0.7015
   18SAPC  C315 2396   2.745   5.409   8.855  0.0438  0.2433 -0.3916
   18SAPC  H15X 2397   2.841   5.381   8.904 -0.5593  0.5505  1.0211
   18SAPC  H15Y 2398   2.738   5.520   8.859  1.1756  0.3231 -0.3895
   18SAPC  C316 2399   2.739   5.366   8.709  0.0435  0.0357 -0.5846
   18SAPC  H16X 2400   2.638   5.376   8.664  0.2027  1.4006 -0.6857
   18SAPC  H16Y 2401   2.778   5.262   8.704 -0.0730 -0.1087  0.9223
   18SAPC  C317 2402   2.833   5.451   8.623  0.1582  0.6719  0.1403
   18SAPC  H17X 2403   2.931   5.448   8.676 -0.1754  2.3310  0.9319
   18SAPC  H17Y 2404   2.793   5.555   8.623 -0.8832  0.3005 -1.3881
   18SAPC  C318 2405   2.859   5.405   8.477 -0.0477 -0.3693  0.4117
   18SAPC  H18X 2406   2.936   5.474   8.435  0.0405 -1.4173 -1.2474
   18SAPC  H18Y 2407   2.769   5.415   8.412  0.8622  1.7666 -0.6408
   18SAPC  H18Z 2408   2.906   5.305   8.473 -0.1155 -0.3684 -1.6258
   19SAPC     N 2409   1.896   0.029  10.647 -0.4238 -0.6258  0.3063
   19SAPC   C12 2410   1.942   0.163  10.583 -0.4650  0.1262  0.5067
   19SAPC  H12A 2411   2.020   0.134  10.514  0.9155 -0.1040  2.1040
   19SAPC  H12B 2412   1.982   0.227  10.660  0.5496 -0.3395  0.3815
   19SAPC   C13 2413   1.830  -0.057  10.550  0.2419  0.4813  1.0501
   19SAPC  H13A 2414   1.803  -0.151  10.597  1.7115  0.0192  1.0019
   19SAPC  H13B 2415   1.740  -0.004  10.522  0.2935  0.9720  1.7936
   19SAPC  H13C 2416   1.895  -0.077  10.467 -1.2491 -0.8416  0.1376
   19SAPC   C14 2417   2.003  -0.051  10.712 -0.4494  0.6923 -0.7992
   19SAPC  H14A 2418   2.049   0.003  10.793 -1.3335  0.9232 -0.4381
   19SAPC  H14B 2419   1.979  -0.148  10.754  0.4575  0.9719  0.4332
   19SAPC  H14C 2420   2.082  -0.059  10.639  0.3668  0.7321  0.0453
   19SAPC   C15 2421   1.795   0.069  10.751 -0.0550 -0.1558  0.4195
   19SAPC  H15A 2422   1.731  -0.014  10.777 -0.6551 -0.5133 -1.9440
   19SAPC  H15B 2423   1.830   0.132  10.832 -0.3856  0.8183 -0.1682
   19SAPC  H15C 2424   1.728   0.136  10.699 -2.7785 -2.1784  1.1046
   19SAPC   C11 2425   1.853   0.245  10.480  0.1280 -0.1150  0.5116
   19SAPC  H11A 2426   1.854   0.186  10.386 -1.7538 -0.4957  0.6850
   19SAPC  H11B 2427   1.909   0.339  10.466  0.5441 -0.7583 -2.7623
   19SAPC     P 2428   1.592   0.270  10.435 -0.0129 -0.0741  0.0584
   19SAPC   O13 2429   1.541   0.132  10.429 -0.0052 -0.6430  0.3306
   19SAPC   O14 2430   1.502   0.365  10.512  0.4142  0.0503 -0.1264
   19SAPC   O12 2431   1.719   0.264  10.522  0.1238  0.7615 -0.1377
   19SAPC   O11 2432   1.638   0.327  10.298 -0.0990 -0.2568 -0.2655
   19SAPC    C1 2433   1.689   0.456  10.287 -0.2703  0.2494 -0.3585
   19SAPC    HA 2434   1.625   0.534  10.333 -2.1180 -1.9325  0.9699
   19SAPC    HB 2435   1.789   0.458  10.336  0.1363  0.8220 -1.1853
   19SAPC    C2 2436   1.727   0.489  10.139  0.0148 -0.5018 -0.0732
   19SAPC    HS 2437   1.779   0.587  10.139 -1.4331  0.3385  1.8720
   19SAPC   O21 2438   1.610   0.500  10.055 -0.2563  0.2548  0.1594
   19SAPC   C21 2439   1.522   0.590  10.074  0.3826  0.0531 -0.4403
   19SAPC   O22 2440   1.527   0.679  10.157 -0.4409 -1.2448 -0.6949
   19SAPC   C22 2441   1.402   0.570   9.980  0.2625 -0.0573  0.0220
   19SAPC   H2R 2442   1.418   0.498   9.896 -0.7299  0.2101 -0.4078
   19SAPC   H2S 2443   1.324   0.527  10.046 -0.5110  0.0767 -0.7803
   19SAPC    C3 2444   1.823   0.376  10.078 -0.0141 -0.6422 -0.2099
   19SAPC    HX 2445   1.754   0.290  10.064  0.1747 -0.9691  0.7752
   19SAPC    HY 2446   1.903   0.352  10.152  0.0924  2.1856  0.6931
   19SAPC   O31 2447   1.893   0.418   9.958  0.3929  0.2313  0.1217
   19SAPC   C31 2448   1.906   0.330   9.861 -0.3962 -0.0877 -0.0620
   19SAPC   O32 2449   1.856   0.221   9.862 -0.3879  0.4722 -0.6669
   19SAPC   C32 2450   1.961   0.405   9.740 -0.0912 -0.1859 -0.3050
   19SAPC   H2X 2451   2.066   0.434   9.761 -0.6581  1.4621  0.3546
   19SAPC   H2Y 2452   1.889   0.488   9.724 -0.8435 -1.2093 -2.7389
   19SAPC   C23 2453   1.352   0.696   9.907  0.4367  0.2225 -0.4450
   19SAPC   H3R 2454   1.425   0.730   9.830  0.1867  0.7603 -0.4489
   19SAPC   H3S 2455   1.350   0.775   9.985 -0.2820  1.4705 -1.6937
   19SAPC   C24 2456   1.209   0.676   9.844 -0.8203  0.2518  0.0815
   19SAPC   H4R 2457   1.134   0.632   9.912  0.3383 -1.3225  0.3978
   19SAPC   H4S 2458   1.214   0.601   9.763  0.3470 -0.7350  1.0172
   19SAPC   C25 2459   1.138   0.799   9.788 -0.1211  0.1325  0.3195
   19SAPC   H5R 2460   1.102   0.866   9.868 -3.4212 -1.2763  0.1433
   19SAPC   C26 2461   1.103   0.812   9.662  0.0818 -0.0907 -0.2491
   19SAPC   H6R 2462   1.054   0.904   9.626  2.7988  1.3327 -0.5314
   19SAPC   C27 2463   1.136   0.717   9.554 -0.0886 -0.0135  0.2616
   19SAPC   H7R 2464   1.081   0.623   9.575  0.8550 -0.5111  0.5533
   19SAPC   H7S 2465   1.241   0.683   9.544  0.1369  0.7041  0.1249
   19SAPC   C28 2466   1.073   0.770   9.428  0.1609 -0.5009 -0.3387
   19SAPC   H8R 2467   0.980   0.827   9.445 -1.7485 -2.8203 -2.3794
   19SAPC   C29 2468   1.110   0.756   9.299 -0.3321  0.5495 -0.6520
   19SAPC   H9R 2469   1.059   0.806   9.215  2.2494 -1.0239 -3.3383
   19SAPC  C210 2470   1.229   0.685   9.245  0.5384 -0.0417  0.5395
   19SAPC  H10R 2471   1.272   0.623   9.326 -2.8922 -0.5839  2.1207
   19SAPC  H10S 2472   1.304   0.755   9.200  0.3189  0.8332  1.5137
   19SAPC  C211 2473   1.179   0.585   9.140 -0.4898  0.0693 -0.0179
   19SAPC  H11R 2474   1.152   0.485   9.176 -0.7729 -0.2869 -1.2090
   19SAPC  C212 2475   1.177   0.600   9.004 -0.5222 -0.0794  0.1445
   19SAPC  H12R 2476   1.135   0.518   8.943  2.1503 -0.8692 -0.7607
   19SAPC  C213 2477   1.220   0.721   8.931  0.2584 -0.7399  0.7204
   19SAPC  H13R 2478   1.308   0.694   8.868 -1.1911 -2.6734 -0.6074
   19SAPC  H13S 2479   1.258   0.797   9.003  2.1458 -0.7930 -0.1565
   19SAPC  C214 2480   1.103   0.784   8.850  0.6621 -0.2880  0.7017
   19SAPC  H14R 2481   1.036   0.851   8.905 -0.7141 -3.0374  2.5929
   19SAPC  C215 2482   1.099   0.778   8.714  0.0865 -0.1816 -0.0600
   19SAPC  H15R 2483   1.010   0.815   8.661 -1.0065  1.2620  2.5640
   19SAPC  C216 2484   1.202   0.698   8.632  0.5847  0.1191  0.2684
   19SAPC  H16R 2485   1.142   0.655   8.550 -0.6047  1.1857  0.5280
   19SAPC  H16S 2486   1.259   0.618   8.684  0.8058  1.4090  2.1120
   19SAPC  C217 2487   1.304   0.792   8.582 -0.0549  0.0387  0.3061
   19SAPC  H17R 2488   1.328   0.866   8.661 -2.8006  2.7018 -1.1565
   19SAPC  H17S 2489   1.267   0.857   8.500  0.8214 -0.3023 -0.3810
   19SAPC  C218 2490   1.428   0.721   8.528  0.5255  0.2344  0.1498
   19SAPC  H18R 2491   1.393   0.653   8.447  1.1141 -0.1988  0.2506
   19SAPC  H18S 2492   1.486   0.667   8.605 -1.5338  0.9787  2.3374
   19SAPC  C219 2493   1.523   0.830   8.478  0.1721 -0.8375 -0.1553
   19SAPC  H19R 2494   1.553   0.897   8.561 -1.5845  0.6385 -0.6413
   19SAPC  H19S 2495   1.458   0.885   8.407 -0.4617 -1.5937 -0.1799
   19SAPC  C220 2496   1.653   0.794   8.411  0.2273 -0.1390 -1.1922
   19SAPC  H20R 2497   1.694   0.875   8.347  2.2757  0.5530  0.8342
   19SAPC  H20S 2498   1.636   0.716   8.334 -0.0815 -0.6521 -0.6140
   19SAPC  H20T 2499   1.735   0.755   8.475 -1.5601 -0.4290  1.0430
   19SAPC   C33 2500   1.962   0.306   9.622 -0.1926  0.0560  0.0725
   19SAPC   H3X 2501   1.855   0.278   9.605 -0.0282  0.2083 -1.3145
   19SAPC   H3Y 2502   2.028   0.218   9.638 -0.5626 -0.0036  1.3897
   19SAPC   C34 2503   2.012   0.373   9.492 -0.3314 -0.3547 -0.2579
   19SAPC   H4X 2504   2.122   0.354   9.485  0.0605  1.3652  0.5725
   19SAPC   H4Y 2505   2.013   0.484   9.487 -1.0373 -0.3761 -1.0766
   19SAPC   C35 2506   1.944   0.321   9.366 -0.1270 -0.4081 -0.3098
   19SAPC   H5X 2507   1.835   0.341   9.353  0.1155  0.8145 -0.6267
   19SAPC   H5Y 2508   1.951   0.210   9.369 -0.2043 -0.4013  0.3989
   19SAPC   C36 2509   2.010   0.377   9.237 -0.4584  0.1663 -0.0104
   19SAPC   H6X 2510   2.121   0.373   9.249 -0.6981 -0.1958  3.1601
   19SAPC   H6Y 2511   1.983   0.484   9.233  0.4657  0.4554  0.8668
   19SAPC   C37 2512   1.967   0.313   9.109 -0.6827 -0.1485 -0.1700
   19SAPC   H7X 2513   1.859   0.311   9.083 -0.0197 -1.7867 -3.3964
   19SAPC   H7Y 2514   1.997   0.206   9.103 -1.6165 -0.3956 -0.7176
   19SAPC   C38 2515   2.041   0.383   8.995 -0.2327 -0.1717  0.0704
   19SAPC   H8X 2516   2.036   0.491   9.020 -1.0148 -0.9270  3.8990
   19SAPC   H8Y 2517   1.996   0.360   8.896 -0.7786 -0.7583  0.4494
   19SAPC   C39 2518   2.185   0.344   8.987 -0.1151  0.3857  0.0793
   19SAPC   H9X 2519   2.196   0.234   8.980 -0.6348  0.3223  0.2629
   19SAPC   H9Y 2520   2.251   0.373   9.072  1.2051 -0.9026 -0.4667
   19SAPC  C310 2521   2.258   0.422   8.880  0.0915 -0.1257  0.2128
   19SAPC  H10X 2522   2.248   0.530   8.901  1.2021 -0.1990  1.2050
   19SAPC  H10Y 2523   2.199   0.410   8.787 -0.3557 -0.7451  0.5642
   19SAPC  C311 2524   2.407   0.377   8.862 -0.3172  0.3837 -0.2723
   19SAPC  H11X 2525   2.415   0.272   8.829  1.5308  0.5140 -0.2993
   19SAPC  H11Y 2526   2.456   0.388   8.961  0.4859  0.1429 -0.6412
   19SAPC  C312 2527   2.489   0.462   8.756  0.4268  0.5529  0.1932
   19SAPC  H12X 2528   2.497   0.567   8.791  2.5432 -0.1480  2.0963
   19SAPC  H12Y 2529   2.432   0.452   8.662 -0.5146  0.2146  0.7867
   19SAPC  C313 2530   2.630   0.426   8.743 -0.1786 -0.7027  0.1360
   19SAPC  H13X 2531   2.619   0.316   8.729 -0.4103 -0.6562 -0.0518
   19SAPC  H13Y 2532   2.678   0.454   8.839 -1.6549  1.6810  0.2690
   19SAPC  C314 2533   2.699   0.505   8.618 -0.1858  0.7874 -0.3625
   19SAPC  H14X 2534   2.685   0.614   8.632 -1.2782  0.6229 -0.0875
   19SAPC  H14Y 2535   2.642   0.474   8.528 -2.7527  0.1384  1.3793
   19SAPC  C315 2536   2.844   0.465   8.595 -0.2615 -0.4860  0.4189
   19SAPC  H15X 2537   2.871   0.502   8.494 -3.4247  2.4176  0.4622
   19SAPC  H15Y 2538   2.848   0.354   8.587 -1.4242 -0.4650 -0.7870
   19SAPC  C316 2539   2.938   0.529   8.705  0.0894  0.7279  0.0985
   19SAPC  H16X 2540   3.047   0.509   8.694  0.2278 -0.2204  2.5941
   19SAPC  H16Y 2541   2.924   0.492   8.808 -1.2934  5.2847  1.7855
   19SAPC  C317 2542   2.910   0.679   8.740  0.2126  0.1278 -0.0955
   19SAPC  H17X 2543   2.978   0.710   8.822  0.0253 -0.7728  0.4131
   19SAPC  H17Y 2544   2.806   0.689   8.777  0.5810  1.3524  0.6512
   19SAPC  C318 2545   2.922   0.778   8.623 -0.6871 -0.5416 -0.9685
   19SAPC  H18X 2546   2.896   0.738   8.523  0.8443  2.1040 -2.5613
   19SAPC  H18Y 2547   3.026   0.807   8.597 -1.1720 -0.2601 -2.7290
   19SAPC  H18Z 2548   2.865   0.871   8.646 -1.1425 -0.4842 -2.2455
   20SAPC     N 2549   0.629   2.339  10.950 -0.0472 -0.0298  0.4316
   20SAPC   C12 2550   0.681   2.457  11.041 -0.2553  1.2744  0.6083
   20SAPC  H12A 2551   0.646   2.443  11.142 -0.2378 -1.8863  0.2633
   20SAPC  H12B 2552   0.640   2.554  11.016 -2.9171  0.3719  1.1686
   20SAPC   C13 2553   0.665   2.356  10.807 -0.2947  0.2178 -0.9366
   20SAPC  H13A 2554   0.640   2.455  10.773  0.7454  0.4060 -1.1680
   20SAPC  H13B 2555   0.771   2.340  10.792 -0.2688 -0.5527 -0.0676
   20SAPC  H13C 2556   0.603   2.284  10.755 -1.5320  0.2920  0.3541
   20SAPC   C14 2557   0.674   2.220  11.003  0.0869  0.1991 -0.0543
   20SAPC  H14A 2558   0.663   2.132  10.941 -0.5670  0.0267  0.2953
   20SAPC  H14B 2559   0.780   2.239  11.003  0.1585 -0.0790  1.6247
   20SAPC  H14C 2560   0.630   2.196  11.098 -0.7597  0.3046 -0.4098
   20SAPC   C15 2561   0.480   2.345  10.949 -0.3994  0.5551  0.0871
   20SAPC  H15A 2562   0.436   2.354  11.047  1.0383  0.9208  0.7205
   20SAPC  H15B 2563   0.447   2.436  10.901  3.1877  1.1041 -1.6274
   20SAPC  H15C 2564   0.435   2.259  10.901  0.6795  0.3312 -0.5491
   20SAPC   C11 2565   0.830   2.469  11.056 -0.7040 -0.4853 -0.5165
   20SAPC  H11A 2566   0.889   2.478  10.962  0.1239  0.8315  0.0981
   20SAPC  H11B 2567   0.877   2.374  11.089  0.1433 -0.0743 -0.5011
   20SAPC     P 2568   0.827   2.720  11.085  0.3029 -0.5445  0.2561
   20SAPC   O13 2569   0.678   2.736  11.083  0.4118 -0.2311  0.5669
   20SAPC   O14 2570   0.899   2.821  11.158 -0.3685  0.0364 -0.2033
   20SAPC   O12 2571   0.866   2.577  11.144  0.3184  0.0841 -0.2733
   20SAPC   O11 2572   0.874   2.706  10.933 -0.3582 -0.5899  0.1086
   20SAPC    C1 2573   1.015   2.741  10.902  0.0900 -0.5982 -0.1533
   20SAPC    HA 2574   1.043   2.846  10.923  1.9090 -1.2553  0.9538
   20SAPC    HB 2575   1.081   2.675  10.963 -0.8024  0.0372  1.5488
   20SAPC    C2 2576   1.045   2.710  10.754  0.3927 -0.3187  0.1156
   20SAPC    HS 2577   1.155   2.713  10.737  0.2659 -0.2776 -0.7314
   20SAPC   O21 2578   0.972   2.799  10.673 -0.2274 -1.0954  0.4419
   20SAPC   C21 2579   1.021   2.918  10.661  0.0065  0.5387 -0.0041
   20SAPC   O22 2580   1.128   2.960  10.703  0.3038 -0.3006  0.0531
   20SAPC   C22 2581   0.932   3.012  10.571 -0.4827 -0.3192  0.1637
   20SAPC   H2R 2582   0.916   2.951  10.479  0.6844  2.5425 -2.1062
   20SAPC   H2S 2583   0.829   3.031  10.607  0.1081  1.5517  0.9601
   20SAPC    C3 2584   1.010   2.566  10.725  0.2709  1.0787  0.2562
   20SAPC    HX 2585   0.913   2.544  10.774  1.8565 -0.3227  3.0112
   20SAPC    HY 2586   1.076   2.490  10.771 -1.3944 -0.2184  0.6218
   20SAPC   O31 2587   1.012   2.540  10.579  0.0895 -0.1535 -0.5175
   20SAPC   C31 2588   0.893   2.533  10.525  0.8103  0.0515  0.0146
   20SAPC   O32 2589   0.784   2.518  10.581  0.2542  0.0094  0.4411
   20SAPC   C32 2590   0.914   2.544  10.372  0.2155  0.1102 -0.3030
   20SAPC   H2X 2591   0.910   2.437  10.341 -1.7382  0.2402 -0.6540
   20SAPC   H2Y 2592   1.009   2.592  10.339 -0.2035  0.9549 -0.3036
   20SAPC   C23 2593   1.002   3.146  10.543  0.0426 -0.4687  0.0748
   20SAPC   H3R 2594   1.100   3.131  10.493  0.4596  0.6759  0.4975
   20SAPC   H3S 2595   1.024   3.197  10.639  0.2897  0.7843 -0.6249
   20SAPC   C24 2596   0.909   3.243  10.461  0.1236 -0.1421  0.2439
   20SAPC   H4R 2597   0.952   3.345  10.463  0.4616 -0.1564 -2.5813
   20SAPC   H4S 2598   0.806   3.243  10.502  0.0358 -0.4080  0.0217
   20SAPC   C25 2599   0.894   3.190  10.322 -0.0481  0.0887  0.3536
   20SAPC   H5R 2600   0.885   3.081  10.308 -1.9016  0.1057  1.0645
   20SAPC   C26 2601   0.881   3.272  10.213 -0.1372  0.2889  0.3051
   20SAPC   H6R 2602   0.872   3.229  10.112 -1.3707  1.5858 -0.1578
   20SAPC   C27 2603   0.892   3.428  10.202  0.4496  0.2017  0.0229
   20SAPC   H7R 2604   0.938   3.454  10.104  1.5407  0.6345  0.6275
   20SAPC   H7S 2605   0.955   3.468  10.285  0.3706  0.7423 -0.1709
   20SAPC   C28 2606   0.763   3.504  10.204  0.4748 -0.5209  0.3436
   20SAPC   H8R 2607   0.681   3.437  10.235  1.0318 -0.4996  1.9924
   20SAPC   C29 2608   0.741   3.638  10.178  0.2967  0.4040  1.2206
   20SAPC   H9R 2609   0.642   3.681  10.197 -0.1690  0.2450 -0.6589
   20SAPC  C210 2610   0.838   3.743  10.142 -0.5318  0.6056  0.2383
   20SAPC  H10R 2611   0.778   3.836  10.153 -1.1072  0.1564  1.0652
   20SAPC  H10S 2612   0.862   3.724  10.036 -0.5813 -0.7013  0.4424
   20SAPC  C211 2613   0.953   3.740  10.237  0.4277  0.1291 -0.0215
   20SAPC  H11R 2614   0.925   3.735  10.343  0.5219  0.1324  0.0030
   20SAPC  C212 2615   1.087   3.752  10.215 -0.9379  0.8757 -0.4376
   20SAPC  H12R 2616   1.143   3.753  10.310 -0.1086  1.1805 -0.9210
   20SAPC  C213 2617   1.168   3.766  10.087  0.8280  0.6348  0.6026
   20SAPC  H13R 2618   1.246   3.844  10.103  0.2425  1.1103  1.2013
   20SAPC  H13S 2619   1.105   3.797  10.000 -0.8177 -1.0531  1.1242
   20SAPC  C214 2620   1.236   3.639  10.062 -0.3492 -0.2488  0.3884
   20SAPC  H14R 2621   1.326   3.632  10.126  0.3236  1.8061 -0.2648
   20SAPC  C215 2622   1.205   3.540   9.977  0.0162  0.5537 -0.9395
   20SAPC  H15R 2623   1.257   3.445   9.994 -2.0653 -0.4269  0.4120
   20SAPC  C216 2624   1.102   3.530   9.873 -0.0071  0.4728  0.4103
   20SAPC  H16R 2625   1.038   3.620   9.881  1.9698  1.8764  1.4818
   20SAPC  H16S 2626   1.048   3.433   9.885  0.0719  0.4371  0.4840
   20SAPC  C217 2627   1.169   3.533   9.738 -0.0256 -0.0986 -0.2362
   20SAPC  H17R 2628   1.238   3.620   9.739 -1.9095  1.5901  3.6123
   20SAPC  H17S 2629   1.092   3.547   9.660  1.3673  1.5950 -1.3915
   20SAPC  C218 2630   1.253   3.405   9.706  0.7826 -0.0749  0.3453
   20SAPC  H18R 2631   1.187   3.316   9.704  0.9114 -0.2011 -2.1554
   20SAPC  H18S 2632   1.331   3.396   9.785  0.5724 -1.3463  0.4291
   20SAPC  C219 2633   1.299   3.416   9.563  0.6972  0.0601  0.1295
   20SAPC  H19R 2634   1.367   3.504   9.554 -1.9423  1.9659 -3.0435
   20SAPC  H19S 2635   1.210   3.442   9.503  0.2110 -1.5148  0.1433
   20SAPC  C220 2636   1.357   3.291   9.503  0.1758 -0.5362 -0.1629
   20SAPC  H20R 2637   1.312   3.200   9.548  0.5986  0.5239  2.6863
   20SAPC  H20S 2638   1.460   3.278   9.541  0.5964 -0.7706 -1.3737
   20SAPC  H20T 2639   1.356   3.299   9.393  2.3765  0.7863 -0.1370
   20SAPC   C33 2640   0.802   2.628  10.295  0.2360 -0.0615  0.0330
   20SAPC   H3X 2641   0.792   2.726  10.346 -1.9786 -0.8025  1.1904
   20SAPC   H3Y 2642   0.705   2.573  10.289  0.5684 -0.5407 -1.6350
   20SAPC   C34 2643   0.828   2.650  10.151  0.4868  0.5179  1.3557
   20SAPC   H4X 2644   0.834   2.554  10.096 -0.2874  0.6236  1.0863
   20SAPC   H4Y 2645   0.926   2.697  10.127  0.5392 -0.7972 -1.3479
   20SAPC   C35 2646   0.723   2.733  10.082 -0.3110  0.1506  0.5565
   20SAPC   H5X 2647   0.713   2.829  10.136 -5.9864 -0.9782  2.1226
   20SAPC   H5Y 2648   0.622   2.688  10.097 -0.5371 -1.5037 -4.1432
   20SAPC   C36 2649   0.725   2.747   9.926 -0.1848 -0.2903  0.4638
   20SAPC   H6X 2650   0.823   2.794   9.905 -0.8584  0.9435 -0.0211
   20SAPC   H6Y 2651   0.650   2.824   9.899  1.2948  0.8647 -0.5129
   20SAPC   C37 2652   0.696   2.614   9.844 -0.8547 -0.9078 -0.0672
   20SAPC   H7X 2653   0.672   2.537   9.920 -2.4924  0.3878  0.8101
   20SAPC   H7Y 2654   0.796   2.579   9.811  0.3219  0.8459  1.4200
   20SAPC   C38 2655   0.605   2.617   9.720  0.6066  0.1539 -0.0773
   20SAPC   H8X 2656   0.503   2.650   9.750  1.0715  0.7139  0.9680
   20SAPC   H8Y 2657   0.606   2.517   9.673  1.4885  1.5684 -3.3780
   20SAPC   C39 2658   0.639   2.704   9.601 -0.3787  0.1268 -0.5714
   20SAPC   H9X 2659   0.735   2.663   9.564  0.2280  1.0970 -0.1143
   20SAPC   H9Y 2660   0.649   2.805   9.648 -4.0228 -0.4186  1.7491
   20SAPC  C310 2661   0.529   2.716   9.497  1.0989  0.3149  0.2426
   20SAPC  H10X 2662   0.564   2.794   9.426 -0.3871 -0.6738 -1.6812
   20SAPC  H10Y 2663   0.434   2.753   9.541  1.5077  0.6973  0.8240
   20SAPC  C311 2664   0.500   2.583   9.420  0.1573 -0.9581  0.4338
   20SAPC  H11X 2665   0.467   2.504   9.492 -0.7401 -1.2617 -0.2917
   20SAPC  H11Y 2666   0.586   2.547   9.360  0.0954 -0.3959  0.0002
   20SAPC  C312 2667   0.385   2.600   9.320 -0.2013 -0.2792  0.0724
   20SAPC  H12X 2668   0.296   2.627   9.381  0.2219  1.6148 -0.1056
   20SAPC  H12Y 2669   0.365   2.503   9.271 -3.0793  1.2106 -1.9596
   20SAPC  C313 2670   0.395   2.702   9.212  0.5288 -0.3102  0.0490
   20SAPC  H13X 2671   0.484   2.687   9.147 -0.0607  0.6449 -1.0179
   20SAPC  H13Y 2672   0.413   2.807   9.246  0.1219 -0.1706 -0.1586
   20SAPC  C314 2673   0.265   2.694   9.122  1.0091  0.0979  0.9902
   20SAPC  H14X 2674   0.173   2.719   9.179  1.2426  0.9655  1.0096
   20SAPC  H14Y 2675   0.248   2.593   9.081  0.9574 -0.6161  2.6669
   20SAPC  C315 2676   0.269   2.804   9.011 -0.3666  0.0149  0.6570
   20SAPC  H15X 2677   0.285   2.896   9.071 -2.4103 -0.0177  1.2995
   20SAPC  H15Y 2678   0.174   2.817   8.956  0.9887 -0.4286 -1.9455
   20SAPC  C316 2679   0.376   2.778   8.903  0.1869  0.4254  0.1276
   20SAPC  H16X 2680   0.359   2.673   8.870  0.3426  0.2843  0.4905
   20SAPC  H16Y 2681   0.475   2.789   8.953 -0.1243 -1.8544  1.3880
   20SAPC  C317 2682   0.363   2.860   8.774  0.4212 -0.1021 -0.1758
   20SAPC  H17X 2683   0.258   2.858   8.739  0.1395  1.5718  0.4671
   20SAPC  H17Y 2684   0.428   2.819   8.694 -0.4215 -2.5336  0.3132
   20SAPC  C318 2685   0.392   3.012   8.802 -0.4610  0.6417  0.6497
   20SAPC  H18X 2686   0.327   3.052   8.882 -0.0017  0.5867  1.0568
   20SAPC  H18Y 2687   0.388   3.073   8.710 -0.7876  1.8399  1.4332
   20SAPC  H18Z 2688   0.499   3.009   8.835 -0.1002 -0.7442 -0.5227
   21SAPC     N 2689   0.081   2.654  10.922 -0.1624 -0.0935  0.0463
   21SAPC   C12 2690   0.055   2.756  10.815 -0.6018  0.0451  0.0243
   21SAPC  H12A 2691   0.036   2.850  10.865 -1.9337  0.2847 -0.8767
   21SAPC  H12B 2692  -0.038   2.724  10.771  0.0713 -0.8740 -0.7794
   21SAPC   C13 2693  -0.042   2.632  11.000 -0.2883  0.2119 -0.2661
   21SAPC  H13A 2694  -0.030   2.565  11.084 -2.8245  0.7388  0.5863
   21SAPC  H13B 2695  -0.090   2.718  11.043 -1.9056 -0.9687  0.3634
   21SAPC  H13C 2696  -0.123   2.588  10.943 -0.0652 -0.1705 -0.2929
   21SAPC   C14 2697   0.135   2.522  10.870  0.0515 -0.0546  0.4574
   21SAPC  H14A 2698   0.157   2.455  10.951 -0.2434 -1.5130 -0.6357
   21SAPC  H14B 2699   0.052   2.476  10.818 -0.2345  0.5236  0.3945
   21SAPC  H14C 2700   0.218   2.532  10.802 -0.5149  0.3715 -0.1863
   21SAPC   C15 2701   0.184   2.704  11.019 -0.5288 -0.1031 -0.5651
   21SAPC  H15A 2702   0.274   2.735  10.968 -0.2558  0.7629  0.4141
   21SAPC  H15B 2703   0.150   2.791  11.073 -0.4296  0.0791 -0.7934
   21SAPC  H15C 2704   0.210   2.625  11.087  0.2900  0.0619 -0.6770
   21SAPC   C11 2705   0.164   2.780  10.700  1.0504  0.1097  0.6137
   21SAPC  H11A 2706   0.123   2.845  10.620  1.5866 -0.2592  0.0368
   21SAPC  H11B 2707   0.199   2.686  10.654  0.9595  1.2312 -1.9083
   21SAPC     P 2708   0.306   2.990  10.747 -0.0591  0.0074  0.1723
   21SAPC   O13 2709   0.174   3.058  10.771 -0.1617 -0.1340 -0.0263
   21SAPC   O14 2710   0.425   3.030  10.821  0.2199 -0.3325 -0.4401
   21SAPC   O12 2711   0.276   2.839  10.765  0.5412 -0.0632 -0.9751
   21SAPC   O11 2712   0.342   3.012  10.598 -0.7934 -0.1272  0.0073
   21SAPC    C1 2713   0.478   2.997  10.554 -0.8017 -0.0823 -0.0865
   21SAPC    HA 2714   0.512   3.098  10.523  2.6844 -0.8420  0.8139
   21SAPC    HB 2715   0.548   2.961  10.632  0.0747 -1.6826 -1.5538
   21SAPC    C2 2716   0.486   2.895  10.435  0.1486  0.0213  0.0898
   21SAPC    HS 2717   0.593   2.865  10.427  0.5647  1.8262 -2.3140
   21SAPC   O21 2718   0.430   2.942  10.315  0.0380 -0.1742  0.2358
   21SAPC   C21 2719   0.500   3.050  10.263  0.1089 -0.1249  0.6136
   21SAPC   O22 2720   0.610   3.082  10.301  0.0003  0.3023 -0.3230
   21SAPC   C22 2721   0.424   3.098  10.135 -0.8418 -0.1979  0.6787
   21SAPC   H2R 2722   0.418   3.010  10.066 -0.8020  0.9908 -0.8905
   21SAPC   H2S 2723   0.318   3.117  10.160 -0.9355  2.8968 -1.5486
   21SAPC    C3 2724   0.403   2.768  10.465 -0.6175  0.2672  0.2999
   21SAPC    HX 2725   0.297   2.799  10.452 -1.2395 -2.1724 -1.1053
   21SAPC    HY 2726   0.412   2.754  10.575  1.7506  0.7711  0.2160
   21SAPC   O31 2727   0.436   2.656  10.378 -0.0076 -0.0737  0.1699
   21SAPC   C31 2728   0.346   2.552  10.388 -0.7504 -0.8131 -0.4032
   21SAPC   O32 2729   0.258   2.549  10.471 -0.3526 -0.0781 -0.2808
   21SAPC   C32 2730   0.370   2.449  10.284 -0.0440 -0.0997  0.5085
   21SAPC   H2X 2731   0.398   2.360  10.343  3.1371 -0.0846 -0.7893
   21SAPC   H2Y 2732   0.463   2.462  10.225 -0.4976 -1.6996 -0.6105
   21SAPC   C23 2733   0.474   3.230  10.067  0.3239  0.5184  0.4887
   21SAPC   H3R 2734   0.487   3.306  10.147  0.7277 -0.2594  1.1826
   21SAPC   H3S 2735   0.403   3.264   9.989  1.7521  1.8981 -0.2736
   21SAPC   C24 2736   0.611   3.212   9.998 -0.1620 -0.2010 -0.1050
   21SAPC   H4R 2737   0.654   3.118  10.039 -1.0002 -0.3186  0.5366
   21SAPC   H4S 2738   0.674   3.301  10.022 -1.3550  0.9741 -1.1559
   21SAPC   C25 2739   0.597   3.185   9.848 -0.2186  0.1660  0.3403
   21SAPC   H5R 2740   0.527   3.107   9.815  0.2639 -0.6682  1.2657
   21SAPC   C26 2741   0.665   3.248   9.749 -0.2664 -0.8683 -0.5304
   21SAPC   H6R 2742   0.642   3.234   9.642 -0.5453  1.2505 -0.7969
   21SAPC   C27 2743   0.778   3.349   9.759  0.8462 -0.8905 -1.2148
   21SAPC   H7R 2744   0.854   3.337   9.679  1.1683  1.9201 -1.4464
   21SAPC   H7S 2745   0.835   3.330   9.853 -0.2429 -2.3745 -0.8214
   21SAPC   C28 2746   0.730   3.494   9.773  0.3256 -0.0543  0.5551
   21SAPC   H8R 2747   0.692   3.526   9.871 -0.1193 -0.2549  0.4523
   21SAPC   C29 2748   0.716   3.589   9.679  0.3210  0.0366  0.2714
   21SAPC   H9R 2749   0.688   3.691   9.707 -2.5893 -1.0605  1.7676
   21SAPC  C210 2750   0.750   3.569   9.535 -0.5545 -0.3690  0.4330
   21SAPC  H10R 2751   0.659   3.525   9.489  0.5017 -1.1923 -0.9778
   21SAPC  H10S 2752   0.832   3.498   9.509  0.5170  2.3416 -5.0649
   21SAPC  C211 2753   0.789   3.701   9.470  0.6546 -0.2323  0.7215
   21SAPC  H11R 2754   0.820   3.789   9.527  1.3486  1.0619 -1.5076
   21SAPC  C212 2755   0.788   3.726   9.338  0.4329  1.0833 -0.4753
   21SAPC  H12R 2756   0.817   3.820   9.289  0.0222  0.3318 -2.2419
   21SAPC  C213 2757   0.747   3.625   9.236  0.0615  0.3711  0.0535
   21SAPC  H13R 2758   0.728   3.680   9.142  0.4092  0.2858 -0.0665
   21SAPC  H13S 2759   0.649   3.587   9.273 -1.0409  1.0290 -2.0357
   21SAPC  C214 2760   0.825   3.499   9.206 -0.1359 -0.0346 -0.4571
   21SAPC  H14R 2761   0.905   3.469   9.275  0.2481 -1.7100 -1.5787
   21SAPC  C215 2762   0.806   3.420   9.095 -0.9389 -0.5927  0.6914
   21SAPC  H15R 2763   0.864   3.327   9.092  0.2409  0.1401 -1.5917
   21SAPC  C216 2764   0.704   3.440   8.981 -0.1271 -0.0817 -0.4684
   21SAPC  H16R 2765   0.709   3.545   8.944 -0.0024  0.4380  0.9263
   21SAPC  H16S 2766   0.604   3.433   9.029 -0.0173  1.1935 -0.0164
   21SAPC  C217 2767   0.700   3.328   8.882 -0.2056 -0.6910 -0.4478
   21SAPC  H17R 2768   0.644   3.369   8.795 -0.6933  0.5482  0.4216
   21SAPC  H17S 2769   0.647   3.239   8.920 -0.1330 -0.6807 -0.3198
   21SAPC  C218 2770   0.837   3.272   8.831 -0.3413  0.3739  0.0948
   21SAPC  H18R 2771   0.896   3.217   8.908 -0.1729 -0.2702 -0.4848
   21SAPC  H18S 2772   0.898   3.359   8.799  0.2245 -0.2836 -0.6475
   21SAPC  C219 2773   0.822   3.174   8.714  0.2254  0.1161  0.4585
   21SAPC  H19R 2774   0.750   3.097   8.748  0.6481 -0.8809 -0.8335
   21SAPC  H19S 2775   0.921   3.131   8.689  0.9794  2.2686 -0.5633
   21SAPC  C220 2776   0.772   3.238   8.588  0.9367 -0.7410 -0.6809
   21SAPC  H20R 2777   0.835   3.323   8.556 -0.4267  0.9393  0.8779
   21SAPC  H20S 2778   0.673   3.288   8.589  2.1630  1.9800  2.4193
   21SAPC  H20T 2779   0.766   3.166   8.504 -2.3035 -1.2506 -0.1549
   21SAPC   C33 2780   0.246   2.421  10.200  0.2802  0.1627 -0.2594
   21SAPC   H3X 2781   0.210   2.514  10.150 -3.1806 -1.7468 -1.6654
   21SAPC   H3Y 2782   0.162   2.378  10.258 -0.2536 -1.5350 -2.1565
   21SAPC   C34 2783   0.275   2.334  10.074  0.4662 -0.8415 -0.4393
   21SAPC   H4X 2784   0.177   2.308  10.029 -1.6468  2.2269  1.9169
   21SAPC   H4Y 2785   0.323   2.241  10.110 -1.2103 -2.1195 -1.3402
   21SAPC   C35 2786   0.367   2.406   9.974 -0.0811  0.3765 -0.4590
   21SAPC   H5X 2787   0.469   2.430  10.011  1.1630  1.3765 -4.0665
   21SAPC   H5Y 2788   0.322   2.505   9.953  0.9862  0.6416 -1.6279
   21SAPC   C36 2789   0.395   2.315   9.852  0.2624  0.0278 -0.2700
   21SAPC   H6X 2790   0.394   2.208   9.882  0.5315  0.2674  0.6452
   21SAPC   H6Y 2791   0.498   2.341   9.820  0.8394  0.4294  1.7708
   21SAPC   C37 2792   0.290   2.339   9.746 -0.4667 -0.4187  0.3845
   21SAPC   H7X 2793   0.286   2.448   9.724 -0.3819 -0.3819  0.5530
   21SAPC   H7Y 2794   0.191   2.302   9.781 -0.8108  1.2346  1.3145
   21SAPC   C38 2795   0.343   2.272   9.618  0.4870 -0.0377 -0.4149
   21SAPC   H8X 2796   0.381   2.169   9.637  0.2624 -0.0319  0.0940
   21SAPC   H8Y 2797   0.441   2.313   9.587  0.5608 -1.0306 -1.5534
   21SAPC   C39 2798   0.248   2.279   9.495  0.0137 -0.0060 -0.1378
   21SAPC   H9X 2799   0.222   2.386   9.477  1.8762  0.5115  0.0738
   21SAPC   H9Y 2800   0.151   2.233   9.525 -0.8194  0.7376 -1.6033
   21SAPC  C310 2801   0.306   2.219   9.365  0.4232  0.4124 -0.1687
   21SAPC  H10X 2802   0.322   2.113   9.396 -3.1169 -0.0341  0.4952
   21SAPC  H10Y 2803   0.405   2.264   9.340  0.8418  0.8161  2.0375
   21SAPC  C311 2804   0.216   2.221   9.250  0.7322  0.3081  0.0586
   21SAPC  H11X 2805   0.207   2.330   9.228 -0.3143  0.0101 -1.1213
   21SAPC  H11Y 2806   0.118   2.180   9.282  1.4466 -1.4963  0.0707
   21SAPC  C312 2807   0.257   2.123   9.131  0.2213 -0.1930 -0.0272
   21SAPC  H12X 2808   0.241   2.019   9.167  0.1735 -0.6014 -1.1930
   21SAPC  H12Y 2809   0.365   2.128   9.103  1.1888 -1.0723  3.0600
   21SAPC  C313 2810   0.171   2.140   9.013  0.1491 -0.2256  0.5490
   21SAPC  H13X 2811   0.205   2.231   8.958  0.5631  0.3307  1.7097
   21SAPC  H13Y 2812   0.064   2.148   9.042  0.3086 -0.0979  1.1153
   21SAPC  C314 2813   0.190   2.027   8.908 -0.2139 -0.0503 -0.0317
   21SAPC  H14X 2814   0.154   1.932   8.953 -1.8672 -0.9783 -3.0248
   21SAPC  H14Y 2815   0.295   2.020   8.873 -0.2326  1.8358 -0.5583
   21SAPC  C315 2816   0.094   2.035   8.793 -0.1827 -0.3455 -0.2683
   21SAPC  H15X 2817  -0.008   2.042   8.837 -1.0859 -2.3748 -1.8411
   21SAPC  H15Y 2818   0.100   1.940   8.735 -2.5073 -2.2143  2.2561
   21SAPC  C316 2819   0.128   2.153   8.704  0.1831 -0.1443 -0.5268
   21SAPC  H16X 2820   0.236   2.156   8.678  0.5826  2.0950  1.1648
   21SAPC  H16Y 2821   0.113   2.247   8.760  0.2713 -0.1380 -0.5136
   21SAPC  C317 2822   0.039   2.166   8.583  0.9455  0.1300 -0.5843
   21SAPC  H17X 2823  -0.065   2.145   8.616  1.2722 -0.3058  0.2159
   21SAPC  H17Y 2824   0.066   2.084   8.513  1.0477  0.3471 -0.7981
   21SAPC  C318 2825   0.061   2.300   8.509 -0.4605  0.3931 -0.4070
   21SAPC  H18X 2826  -0.006   2.303   8.420 -1.7851 -1.1806  0.4902
   21SAPC  H18Y 2827   0.159   2.314   8.458 -0.4181  0.4859 -0.2990
   21SAPC  H18Z 2828   0.032   2.392   8.564 -0.8575 -0.3259  0.5928
   22SAPC     N 2829   0.161   6.771  10.919  0.1609  0.5679  0.0170
   22SAPC   C12 2830   0.121   6.917  10.876  0.2248  0.6900  0.5427
   22SAPC  H12A 2831   0.069   6.964  10.959 -1.2210  0.4008 -0.1623
   22SAPC  H12B 2832   0.052   6.906  10.794  0.5445 -0.5604  0.4290
   22SAPC   C13 2833   0.034   6.695  10.895  0.0893  0.8499  0.5828
   22SAPC  H13A 2834   0.045   6.596  10.937  0.9415  1.0246  0.7915
   22SAPC  H13B 2835  -0.052   6.738  10.944 -0.6956 -0.5446  0.4762
   22SAPC  H13C 2836   0.008   6.693  10.790  0.3109  1.5243  0.5065
   22SAPC   C14 2837   0.271   6.713  10.825  0.5156  1.0816  0.1644
   22SAPC  H14A 2838   0.303   6.617  10.864 -0.2673  1.1991  1.1285
   22SAPC  H14B 2839   0.236   6.697  10.724 -1.0788  0.5382  0.7683
   22SAPC  H14C 2840   0.348   6.787  10.812 -0.7840  2.1375 -1.9902
   22SAPC   C15 2841   0.214   6.777  11.059  0.1303  0.5825 -0.5326
   22SAPC  H15A 2842   0.257   6.682  11.087 -0.9901  0.5593  1.2609
   22SAPC  H15B 2843   0.291   6.852  11.066  0.4943  0.4901 -2.6302
   22SAPC  H15C 2844   0.129   6.792  11.123 -0.1884 -0.8016 -0.5979
   22SAPC   C11 2845   0.234   7.011  10.823 -0.0967  0.5414  0.1926
   22SAPC  H11A 2846   0.180   7.100  10.783 -0.2311  0.0922 -0.6553
   22SAPC  H11B 2847   0.277   6.953  10.739 -2.3809 -1.2398  0.1496
   22SAPC     P 2848   0.339   7.178  10.988  0.2798 -0.1641 -0.9151
   22SAPC   O13 2849   0.225   7.175  11.086  0.2993 -0.3376 -0.1897
   22SAPC   O14 2850   0.477   7.194  11.045  0.2074 -0.2526 -0.5449
   22SAPC   O12 2851   0.343   7.039  10.907  0.0889 -0.2237  0.0843
   22SAPC   O11 2852   0.316   7.287  10.880 -0.4279 -0.2019  0.0612
   22SAPC    C1 2853   0.191   7.360  10.877 -1.1018  0.4029 -0.2918
   22SAPC    HA 2854   0.110   7.287  10.855  0.2994 -0.6686 -2.2320
   22SAPC    HB 2855   0.176   7.412  10.974  1.2337 -0.6365  0.7237
   22SAPC    C2 2856   0.194   7.468  10.766 -0.5382 -1.1390 -0.0773
   22SAPC    HS 2857   0.099   7.524  10.750  0.1534  0.6226  1.6658
   22SAPC   O21 2858   0.231   7.403  10.642  0.0706  0.3748 -0.2627
   22SAPC   C21 2859   0.136   7.316  10.595 -0.0345 -0.9297 -0.1208
   22SAPC   O22 2860   0.018   7.318  10.626 -0.0017  0.1420 -0.1719
   22SAPC   C22 2861   0.205   7.217  10.494  0.4299 -1.1210 -0.2288
   22SAPC   H2R 2862   0.301   7.259  10.459 -0.9960  1.6654 -1.0894
   22SAPC   H2S 2863   0.212   7.118  10.545 -0.5281 -0.7435  0.6724
   22SAPC    C3 2864   0.302   7.574  10.806  0.1399 -0.6167  0.1893
   22SAPC    HX 2865   0.386   7.538  10.870  0.4986 -0.0423  0.0523
   22SAPC    HY 2866   0.250   7.644  10.873 -0.6195  0.2975 -1.3060
   22SAPC   O31 2867   0.350   7.657  10.694  0.0886  0.0846  0.0519
   22SAPC   C31 2868   0.452   7.601  10.625 -0.3672 -0.9683  0.3847
   22SAPC   O32 2869   0.520   7.514  10.673 -0.0841  0.2801 -0.7252
   22SAPC   C32 2870   0.448   7.645  10.475 -0.5152  0.2159  0.2055
   22SAPC   H2X 2871   0.545   7.698  10.458  0.2173 -1.4410 -1.0686
   22SAPC   H2Y 2872   0.358   7.709  10.461  0.9467  2.3070 -0.2002
   22SAPC   C23 2873   0.117   7.210  10.373  0.2520 -0.6405 -0.2421
   22SAPC   H3R 2874   0.178   7.160  10.294 -2.1309 -0.3369 -2.4328
   22SAPC   H3S 2875   0.093   7.309  10.330  1.1508 -0.1650  0.3222
   22SAPC   C24 2876  -0.011   7.130  10.388 -0.2053 -0.3377 -0.1687
   22SAPC   H4R 2877  -0.077   7.175  10.310  1.5579  1.4572 -0.7049
   22SAPC   H4S 2878  -0.060   7.149  10.486  0.9048 -1.9004  0.7251
   22SAPC   C25 2879   0.008   6.985  10.370  0.0839  0.9956  0.0186
   22SAPC   H5R 2880   0.010   6.919  10.458  0.2513 -1.9999 -2.0948
   22SAPC   C26 2881   0.014   6.927  10.250 -0.3191  0.1006  0.7694
   22SAPC   H6R 2882   0.020   6.817  10.246 -0.1475  0.1228  0.3291
   22SAPC   C27 2883   0.001   6.987  10.108  0.0115 -0.4023 -0.2932
   22SAPC   H7R 2884   0.080   6.946  10.040  0.7892  2.6729 -1.4133
   22SAPC   H7S 2885   0.029   7.094  10.097 -1.1732 -0.1830 -1.4041
   22SAPC   C28 2886  -0.141   6.971  10.056 -0.2473  0.2684 -0.0313
   22SAPC   H8R 2887  -0.213   7.027  10.116  0.8172  0.7588  0.8250
   22SAPC   C29 2888  -0.178   6.919   9.932 -0.1720  0.3199 -0.1639
   22SAPC   H9R 2889  -0.284   6.913   9.905 -0.6449 -0.0582  1.6636
   22SAPC  C210 2890  -0.083   6.864   9.828  0.8239 -0.1534  0.0948
   22SAPC  H10R 2891   0.021   6.860   9.867  0.0625  1.0925  2.4201
   22SAPC  H10S 2892  -0.085   6.935   9.743  0.3742 -1.7638 -1.2958
   22SAPC  C211 2893  -0.129   6.736   9.766  0.0729  0.0630 -0.0469
   22SAPC  H11R 2894  -0.178   6.657   9.825 -2.0847  0.1461 -1.5974
   22SAPC  C212 2895  -0.119   6.701   9.638 -0.4017  0.1442 -0.3504
   22SAPC  H12R 2896  -0.152   6.604   9.599  0.5628 -0.5213  0.4439
   22SAPC  C213 2897  -0.047   6.783   9.530 -0.1827 -0.9992 -0.2229
   22SAPC  H13R 2898   0.026   6.711   9.487 -0.5939 -0.9743 -0.9681
   22SAPC  H13S 2899   0.021   6.862   9.569 -2.0018  0.7328 -0.3981
   22SAPC  C214 2900  -0.139   6.833   9.419  0.0601 -0.8829 -0.3017
   22SAPC  H14R 2901  -0.238   6.863   9.457  0.3057 -2.0729  1.3753
   22SAPC  C215 2902  -0.105   6.840   9.286  0.2079  1.0919  0.1852
   22SAPC  H15R 2903  -0.185   6.878   9.221  0.0141  0.2962 -0.0466
   22SAPC  C216 2904   0.019   6.803   9.214 -0.0358  0.3437  0.3464
   22SAPC  H16R 2905   0.054   6.705   9.252 -0.8866  0.9150  2.7805
   22SAPC  H16S 2906   0.091   6.881   9.248  1.3235  0.3155 -2.2196
   22SAPC  C217 2907   0.017   6.801   9.058  0.7072 -0.1941  0.6523
   22SAPC  H17R 2908  -0.005   6.900   9.014 -4.1135 -1.5870 -0.5816
   22SAPC  H17S 2909  -0.067   6.732   9.035 -1.2800  0.4915  4.8287
   22SAPC  C218 2910   0.143   6.743   8.998 -0.2613 -0.2675  0.4470
   22SAPC  H18R 2911   0.229   6.778   9.060 -0.5239 -0.0741  0.7073
   22SAPC  H18S 2912   0.153   6.810   8.909  1.5818  2.2245  2.3726
   22SAPC  C219 2913   0.133   6.597   8.954  0.3651 -0.3962 -0.1935
   22SAPC  H19R 2914   0.044   6.543   8.993 -0.1823 -1.0292 -2.1945
   22SAPC  H19S 2915   0.206   6.536   9.010 -1.7482 -3.0246 -0.1026
   22SAPC  C220 2916   0.137   6.570   8.808  0.1739 -0.0931  0.5375
   22SAPC  H20R 2917   0.039   6.582   8.756  0.0658 -3.6348 -0.3329
   22SAPC  H20S 2918   0.164   6.463   8.795 -2.7218 -0.9670  0.8630
   22SAPC  H20T 2919   0.210   6.632   8.752  0.5026  0.1707  1.2450
   22SAPC   C33 2920   0.450   7.521  10.390  1.3781 -0.6060  0.0361
   22SAPC   H3X 2921   0.347   7.479  10.390  0.2085  2.0576 -0.3683
   22SAPC   H3Y 2922   0.522   7.444  10.425  0.6304 -2.0903 -1.5071
   22SAPC   C34 2923   0.482   7.560  10.250 -0.1669  0.0804  0.2116
   22SAPC   H4X 2924   0.563   7.500  10.204  0.0970  0.8712 -0.3751
   22SAPC   H4Y 2925   0.518   7.665  10.248 -1.4908  0.6044  1.5741
   22SAPC   C35 2926   0.365   7.555  10.153 -0.3188  0.0995  0.0287
   22SAPC   H5X 2927   0.290   7.629  10.189 -1.3239 -0.3206 -1.1203
   22SAPC   H5Y 2928   0.317   7.455  10.155  1.7572 -0.9397  2.2326
   22SAPC   C36 2929   0.417   7.578  10.012  0.0767  0.6126 -0.5963
   22SAPC   H6X 2930   0.492   7.499   9.993 -0.4867 -0.6333  1.9499
   22SAPC   H6Y 2931   0.478   7.671  10.008 -0.2146  0.9338  1.3992
   22SAPC   C37 2932   0.304   7.581   9.913  0.1174 -0.6665  0.3734
   22SAPC   H7X 2933   0.255   7.681   9.914 -0.5012 -0.8988 -1.7950
   22SAPC   H7Y 2934   0.231   7.505   9.948 -0.1085 -0.7991 -0.3701
   22SAPC   C38 2935   0.346   7.558   9.768 -0.2823 -0.6503 -0.2719
   22SAPC   H8X 2936   0.403   7.462   9.770 -0.2584 -0.6683 -1.4792
   22SAPC   H8Y 2937   0.411   7.638   9.729  1.0421 -2.5070 -2.0566
   22SAPC   C39 2938   0.228   7.549   9.673 -0.0891  0.6484 -0.0413
   22SAPC   H9X 2939   0.149   7.627   9.667 -0.7786 -0.1083 -2.2271
   22SAPC   H9Y 2940   0.173   7.453   9.690 -0.6326  1.1269  0.9941
   22SAPC  C310 2941   0.270   7.527   9.525 -0.1946  0.2433  0.5053
   22SAPC  H10X 2942   0.314   7.425   9.515 -3.2216 -1.2806  1.3663
   22SAPC  H10Y 2943   0.352   7.598   9.505  0.3981 -0.6347 -0.2666
   22SAPC  C311 2944   0.149   7.525   9.424 -0.0610  0.2468  0.0558
   22SAPC  H11X 2945   0.100   7.624   9.417  0.7277  0.5237 -2.7514
   22SAPC  H11Y 2946   0.075   7.455   9.468 -0.2531 -1.0469 -2.1558
   22SAPC  C312 2947   0.194   7.475   9.278 -0.2411 -0.2097 -0.2315
   22SAPC  H12X 2948   0.257   7.385   9.288 -0.7336 -0.4857  0.5489
   22SAPC  H12Y 2949   0.251   7.554   9.225 -0.6269 -0.2304 -0.6850
   22SAPC  C313 2950   0.068   7.420   9.210 -0.5082  0.5022 -0.7590
   22SAPC  H13X 2951  -0.003   7.373   9.282 -0.8314 -0.5094 -1.7161
   22SAPC  H13Y 2952   0.092   7.337   9.141  0.0965  0.0380  0.0025
   22SAPC  C314 2953  -0.008   7.534   9.141 -0.6139  0.2736 -0.4162
   22SAPC  H14X 2954   0.072   7.582   9.079 -0.1032 -1.6721 -1.3529
   22SAPC  H14Y 2955  -0.029   7.607   9.222  1.8562  1.2326 -0.5276
   22SAPC  C315 2956  -0.123   7.489   9.063  0.8304  0.0185  0.0791
   22SAPC  H15X 2957  -0.170   7.585   9.031 -0.1912  0.0744  1.6486
   22SAPC  H15Y 2958  -0.183   7.424   9.131 -0.4483  0.4639 -0.5741
   22SAPC  C316 2959  -0.087   7.400   8.941 -0.0044 -0.7178 -0.0344
   22SAPC  H16X 2960  -0.074   7.294   8.971  1.6878 -0.0823  1.6309
   22SAPC  H16Y 2961   0.006   7.447   8.902  0.4837  0.0879  1.9810
   22SAPC  C317 2962  -0.190   7.400   8.830 -0.0131  0.5888 -0.0042
   22SAPC  H17X 2963  -0.194   7.508   8.803 -0.6236  0.5226 -0.1989
   22SAPC  H17Y 2964  -0.284   7.365   8.877  1.0282 -1.3288  0.7603
   22SAPC  C318 2965  -0.163   7.321   8.702 -0.4197 -0.0814  0.4138
   22SAPC  H18X 2966  -0.079   7.369   8.647 -1.0867 -0.8094 -1.3375
   22SAPC  H18Y 2967  -0.247   7.323   8.628 -1.3172  0.9878  1.4220
   22SAPC  H18Z 2968  -0.142   7.215   8.724  2.0910  0.4918  1.0030
   23SAPC     N 2969   1.194   2.113  11.205  0.2279  0.3897 -0.0178
   23SAPC   C12 2970   1.161   2.214  11.102 -0.0330  0.8283  0.4059
   23SAPC  H12A 2971   1.156   2.307  11.157  1.6831  1.3911 -0.3235
   23SAPC  H12B 2972   1.065   2.187  11.060  0.1671 -0.9310  1.0067
   23SAPC   C13 2973   1.328   2.157  11.265  0.7111 -0.2540  0.4185
   23SAPC  H13A 2974   1.384   2.081  11.319  0.5436  0.3525  1.4830
   23SAPC  H13B 2975   1.389   2.172  11.178  1.0405  1.9057  0.9732
   23SAPC  H13C 2976   1.310   2.252  11.314 -0.8502  1.4800 -3.1953
   23SAPC   C14 2977   1.093   2.099  11.315 -0.1926 -0.1847  0.4422
   23SAPC  H14A 2978   0.998   2.066  11.276 -0.6704  0.8085  0.7331
   23SAPC  H14B 2979   1.130   2.024  11.384  1.8348  1.0829  0.8125
   23SAPC  H14C 2980   1.072   2.193  11.363 -1.5774 -1.1889  1.9173
   23SAPC   C15 2981   1.219   1.975  11.149 -0.1702  0.3724  0.0626
   23SAPC  H15A 2982   1.299   1.978  11.078 -0.9383 -0.5123 -0.8762
   23SAPC  H15B 2983   1.233   1.903  11.229 -0.5142  2.0033  1.6560
   23SAPC  H15C 2984   1.128   1.949  11.096 -0.1800 -0.4292  0.4604
   23SAPC   C11 2985   1.255   2.235  10.984  0.2151 -0.8225  0.5519
   23SAPC  H11A 2986   1.201   2.307  10.918  1.8339  1.4888  1.5758
   23SAPC  H11B 2987   1.281   2.141  10.932  0.7745 -1.3648  1.7736
   23SAPC     P 2988   1.417   2.426  10.946 -0.1895  0.1712  0.2385
   23SAPC   O13 2989   1.315   2.534  10.966  0.5781  0.2860 -0.5386
   23SAPC   O14 2990   1.559   2.463  10.981  0.2076 -0.0078 -0.4268
   23SAPC   O12 2991   1.376   2.293  11.030 -0.1531  0.3722  0.7207
   23SAPC   O11 2992   1.412   2.369  10.800 -0.1004 -0.1502  0.2313
   23SAPC    C1 2993   1.540   2.323  10.736 -0.0839  0.4993 -0.1678
   23SAPC    HA 2994   1.624   2.307  10.808  1.0968 -1.3555 -1.8563
   23SAPC    HB 2995   1.515   2.224  10.692  1.4723 -0.7178  1.5062
   23SAPC    C2 2996   1.585   2.409  10.619  0.4627  0.1099  0.1293
   23SAPC    HS 2997   1.611   2.511  10.654  2.1392  0.7930 -2.7878
   23SAPC   O21 2998   1.479   2.405  10.521  0.6959 -0.3633  0.3332
   23SAPC   C21 2999   1.393   2.507  10.528 -0.4502 -0.5466 -0.0016
   23SAPC   O22 3000   1.388   2.589  10.617  0.0951 -0.3620  0.3440
   23SAPC   C22 3001   1.292   2.508  10.405  0.1206 -0.1903 -0.7559
   23SAPC   H2R 3002   1.228   2.421  10.430  3.1665 -2.3109  0.2583
   23SAPC   H2S 3003   1.225   2.594  10.424  1.6122  1.0728 -1.0440
   23SAPC    C3 3004   1.721   2.367  10.548 -0.3391 -0.5674 -0.4430
   23SAPC    HX 3005   1.808   2.387  10.614 -0.8465  1.1242 -0.2498
   23SAPC    HY 3006   1.736   2.443  10.469 -0.7033 -3.1071 -3.1164
   23SAPC   O31 3007   1.722   2.235  10.487 -0.0598  0.2227  0.4592
   23SAPC   C31 3008   1.801   2.218  10.385  0.6035 -0.1785 -0.5284
   23SAPC   O32 3009   1.887   2.296  10.340 -0.3167  0.5383 -0.5469
   23SAPC   C32 3010   1.776   2.078  10.334  0.3093 -0.2761  0.3344
   23SAPC   H2X 3011   1.671   2.083  10.299  0.7821  2.1908 -0.9695
   23SAPC   H2Y 3012   1.782   2.008  10.420  2.0960 -1.1919 -0.4844
   23SAPC   C23 3013   1.356   2.516  10.264 -0.0684 -0.2271  0.2662
   23SAPC   H3R 3014   1.400   2.417  10.240 -1.1209 -1.2102  2.1721
   23SAPC   H3S 3015   1.435   2.594  10.273 -0.3006 -0.0910  1.2051
   23SAPC   C24 3016   1.267   2.567  10.151 -0.0484 -0.4174  0.9181
   23SAPC   H4R 3017   1.337   2.616  10.080 -2.4086  0.0732 -1.2371
   23SAPC   H4S 3018   1.213   2.651  10.200  1.4566  0.2724  1.4333
   23SAPC   C25 3019   1.173   2.464  10.090  0.1628  0.3631  0.6686
   23SAPC   H5R 3020   1.125   2.400  10.165  1.1096 -2.1217 -0.7310
   23SAPC   C26 3021   1.141   2.447   9.964  0.5487  0.1967 -0.0835
   23SAPC   H6R 3022   1.071   2.369   9.933 -0.4187  2.0823 -3.0396
   23SAPC   C27 3023   1.204   2.523   9.843  0.5680 -0.6266 -0.2575
   23SAPC   H7R 3024   1.232   2.462   9.755  0.5383  0.9292 -1.3887
   23SAPC   H7S 3025   1.301   2.566   9.876  0.4349 -0.5476  0.0377
   23SAPC   C28 3026   1.115   2.638   9.800  0.5188  1.2982  0.8986
   23SAPC   H8R 3027   1.096   2.709   9.882  1.6456  0.1588  2.1813
   23SAPC   C29 3028   1.052   2.651   9.684 -0.5456  0.0273  0.1798
   23SAPC   H9R 3029   0.983   2.737   9.684 -0.6690 -0.0126  2.2037
   23SAPC  C210 3030   1.052   2.556   9.572 -0.3171 -0.1911  0.1818
   23SAPC  H10R 3031   0.949   2.527   9.539 -0.8811  0.8073  0.9968
   23SAPC  H10S 3032   1.104   2.461   9.595 -1.2860 -1.5061 -2.5440
   23SAPC  C211 3033   1.120   2.624   9.457 -0.2268 -0.1283  0.1343
   23SAPC  H11R 3034   1.223   2.656   9.476 -0.4743 -0.0995  1.5295
   23SAPC  C212 3035   1.064   2.652   9.342  0.0247 -0.4833  0.2548
   23SAPC  H12R 3036   1.137   2.690   9.269 -1.1214  2.3281  0.4328
   23SAPC  C213 3037   0.921   2.625   9.293 -0.0944 -0.2413 -0.0532
   23SAPC  H13R 3038   0.895   2.700   9.216 -0.7298  1.2983  1.5706
   23SAPC  H13S 3039   0.851   2.646   9.377  1.3315  0.7941  0.9213
   23SAPC  C214 3040   0.887   2.485   9.252  0.6649  0.2894  0.3570
   23SAPC  H14R 3041   0.930   2.401   9.310 -1.9025 -0.0441  1.9331
   23SAPC  C215 3042   0.804   2.453   9.150 -0.3117 -0.6643  0.3767
   23SAPC  H15R 3043   0.797   2.344   9.136  0.8101 -0.5578 -1.3518
   23SAPC  C216 3044   0.737   2.549   9.059 -0.0905 -0.4611 -0.6700
   23SAPC  H16R 3045   0.718   2.641   9.119  0.7699 -0.5312 -0.2839
   23SAPC  H16S 3046   0.641   2.508   9.019 -1.1608  1.1051  0.1879
   23SAPC  C217 3047   0.816   2.584   8.933 -0.8325  0.6486 -0.7737
   23SAPC  H17R 3048   0.836   2.486   8.886 -1.0628  0.4647 -0.4897
   23SAPC  H17S 3049   0.904   2.643   8.968  0.1689 -0.7579 -0.8639
   23SAPC  C218 3050   0.737   2.671   8.839 -0.2316 -0.2214  1.0111
   23SAPC  H18R 3051   0.702   2.765   8.886  1.6310  1.2758 -0.4354
   23SAPC  H18S 3052   0.643   2.617   8.814  1.2607 -1.9210 -1.3235
   23SAPC  C219 3053   0.821   2.691   8.716 -0.7965  0.4935  1.1150
   23SAPC  H19R 3054   0.853   2.592   8.676 -0.5819  2.2336 -3.7355
   23SAPC  H19S 3055   0.913   2.746   8.744 -0.8177  1.0054  0.2208
   23SAPC  C220 3056   0.754   2.766   8.604  0.6236 -0.0563 -0.4066
   23SAPC  H20R 3057   0.798   2.863   8.572 -1.6425  0.3782 -2.4751
   23SAPC  H20S 3058   0.650   2.787   8.635  1.0625  0.0512  1.0703
   23SAPC  H20T 3059   0.746   2.704   8.512 -0.4122  1.7554 -1.5943
   23SAPC   C33 3060   1.873   2.055  10.215  0.1467 -0.5179 -0.8501
   23SAPC   H3X 3061   1.885   1.948  10.189 -0.3293 -0.1478 -2.7866
   23SAPC   H3Y 3062   1.969   2.095  10.255  0.2019 -0.8980 -0.6009
   23SAPC   C34 3063   1.829   2.125  10.076  0.0317 -0.0130 -0.0172
   23SAPC   H4X 3064   1.805   2.231  10.100  0.5184 -0.3807  2.3939
   23SAPC   H4Y 3065   1.746   2.064  10.036 -0.8043  0.9250  0.2387
   23SAPC   C35 3066   1.947   2.120   9.974  0.1317 -0.0923  0.2087
   23SAPC   H5X 3067   1.986   2.017   9.965 -4.0585 -1.9775  1.0373
   23SAPC   H5Y 3068   2.030   2.177  10.022  0.5002 -2.4308  2.5364
   23SAPC   C36 3069   1.907   2.174   9.839  0.7202 -0.3708  0.0005
   23SAPC   H6X 3070   1.872   2.279   9.851 -0.9302 -1.1290  2.4531
   23SAPC   H6Y 3071   1.815   2.125   9.800  1.4296 -0.6800 -1.3410
   23SAPC   C37 3072   2.012   2.176   9.734 -0.0197 -0.8400  0.2000
   23SAPC   H7X 3073   2.035   2.076   9.693 -1.7616 -1.2681  0.1809
   23SAPC   H7Y 3074   2.096   2.225   9.788 -0.0385  2.1759 -2.2443
   23SAPC   C38 3075   1.971   2.276   9.625  0.0328  0.0602  0.5123
   23SAPC   H8X 3076   1.977   2.384   9.646 -2.8567  0.8276 -1.8181
   23SAPC   H8Y 3077   1.867   2.257   9.590  0.4880  0.9479 -1.4522
   23SAPC   C39 3078   2.056   2.241   9.507 -0.6583  0.2120 -0.1349
   23SAPC   H9X 3079   2.075   2.132   9.509 -0.8084  0.1971  0.6305
   23SAPC   H9Y 3080   2.157   2.287   9.511 -1.5584  2.3703 -0.5099
   23SAPC  C310 3081   1.999   2.295   9.375 -0.0756  0.7648  0.3067
   23SAPC  H10X 3082   2.081   2.282   9.301 -0.7319  0.4948 -0.3863
   23SAPC  H10Y 3083   1.965   2.401   9.376  0.8353  1.0708 -0.0473
   23SAPC  C311 3084   1.874   2.215   9.328 -0.2481 -0.5639 -0.0634
   23SAPC  H11X 3085   1.784   2.231   9.392 -1.5153 -0.2901 -1.8386
   23SAPC  H11Y 3086   1.905   2.109   9.337  3.8055  0.4790  0.2099
   23SAPC  C312 3087   1.832   2.241   9.184  0.0106 -0.2884  0.1990
   23SAPC  H12X 3088   1.903   2.186   9.119 -0.2014  0.7044 -0.9104
   23SAPC  H12Y 3089   1.833   2.349   9.156  3.0017 -0.4046 -0.4552
   23SAPC  C313 3090   1.693   2.176   9.151 -0.2940 -0.0904  0.3278
   23SAPC  H13X 3091   1.631   2.241   9.218  1.2128  2.8536 -0.9403
   23SAPC  H13Y 3092   1.680   2.073   9.191 -1.3689  0.1110  0.5464
   23SAPC  C314 3093   1.660   2.190   9.003 -0.5834 -0.4734  0.3398
   23SAPC  H14X 3094   1.671   2.294   8.966 -0.9910  0.1092  1.7953
   23SAPC  H14Y 3095   1.555   2.153   8.997 -0.1537 -2.5600  3.3040
   23SAPC  C315 3096   1.743   2.108   8.907  0.0838 -0.1234  0.6289
   23SAPC  H15X 3097   1.749   2.001   8.938 -0.2768  0.4713  2.9011
   23SAPC  H15Y 3098   1.845   2.148   8.887  0.0218 -0.0552  0.4487
   23SAPC  C316 3099   1.672   2.093   8.770  0.6945  0.0171  0.2763
   23SAPC  H16X 3100   1.675   2.189   8.713 -1.0651  0.3975  0.7735
   23SAPC  H16Y 3101   1.569   2.054   8.778  0.6214 -0.7927 -3.0950
   23SAPC  C317 3102   1.729   1.991   8.677  0.0674  0.6226  0.3559
   23SAPC  H17X 3103   1.651   1.962   8.604 -0.8818  2.7346  0.4593
   23SAPC  H17Y 3104   1.755   1.898   8.731 -2.4032 -0.8497 -0.8170
   23SAPC  C318 3105   1.862   2.033   8.600  0.2374 -0.0479  0.0504
   23SAPC  H18X 3106   1.888   1.942   8.542  1.5985 -0.9938  2.0241
   23SAPC  H18Y 3107   1.944   2.064   8.668 -0.6768  0.9805  0.7112
   23SAPC  H18Z 3108   1.844   2.121   8.535 -1.5726  0.0519  0.6220
   24SAPC     N 3109   3.553   3.414  11.353  0.3929 -0.1392 -0.6844
   24SAPC   C12 3110   3.696   3.364  11.372  0.1023 -0.2783 -0.4138
   24SAPC  H12A 3111   3.738   3.395  11.467  0.8251 -0.9719 -0.4997
   24SAPC  H12B 3112   3.757   3.417  11.301 -0.3160  0.5723 -0.1595
   24SAPC   C13 3113   3.455   3.336  11.437 -0.2635  0.1426 -0.0041
   24SAPC  H13A 3114   3.442   3.234  11.407  3.3371 -0.4299  0.0160
   24SAPC  H13B 3115   3.487   3.322  11.539 -1.2586 -4.5176 -0.1076
   24SAPC  H13C 3116   3.360   3.388  11.438  0.4115  1.4365 -0.1527
   24SAPC   C14 3117   3.543   3.559  11.380 -0.1313  0.5270  0.3883
   24SAPC  H14A 3118   3.585   3.616  11.299  0.7696  0.8350  1.0575
   24SAPC  H14B 3119   3.443   3.594  11.402 -0.8671 -2.4268  2.2211
   24SAPC  H14C 3120   3.611   3.596  11.456  0.5544 -0.2804  0.1743
   24SAPC   C15 3121   3.520   3.393  11.207  0.4231 -0.0919 -0.1878
   24SAPC  H15A 3122   3.585   3.445  11.139  0.6800  0.0223  0.1419
   24SAPC  H15B 3123   3.522   3.287  11.184  0.8913  0.2424 -1.7797
   24SAPC  H15C 3124   3.425   3.440  11.188 -0.4347 -1.4229  0.5677
   24SAPC   C11 3125   3.717   3.217  11.349 -0.1515 -0.4445 -0.5127
   24SAPC  H11A 3126   3.676   3.177  11.254  0.0080 -1.6511 -0.0850
   24SAPC  H11B 3127   3.659   3.168  11.431  0.5207 -0.0938  0.1883
   24SAPC     P 3128   3.956   3.204  11.234  0.2342 -0.2242  0.0049
   24SAPC   O13 3129   3.955   3.347  11.186 -0.3541 -0.4563 -0.2210
   24SAPC   O14 3130   4.085   3.143  11.266  0.4511  0.3155  0.2877
   24SAPC   O12 3131   3.859   3.196  11.359  0.6088  0.7291 -0.5027
   24SAPC   O11 3132   3.878   3.114  11.126 -0.6326  0.7123  0.1416
   24SAPC    C1 3133   3.898   2.970  11.136  0.1364  0.5926 -0.5383
   24SAPC    HA 3134   3.921   2.941  11.240 -1.1886 -0.3897 -0.4913
   24SAPC    HB 3135   3.798   2.924  11.118 -0.6229  1.3385  1.5587
   24SAPC    C2 3136   3.982   2.919  11.025 -0.4612  0.0512 -0.2543
   24SAPC    HS 3137   4.074   2.981  11.030 -0.7981  0.5644 -0.2228
   24SAPC   O21 3138   3.917   2.924  10.895  0.1928  0.6404 -0.6141
   24SAPC   C21 3139   3.999   2.933  10.799 -0.3102 -0.1552 -0.1140
   24SAPC   O22 3140   4.121   2.944  10.807 -0.0500 -0.3484  0.0274
   24SAPC   C22 3141   3.915   2.932  10.670  0.8840 -0.6488  0.4033
   24SAPC   H2R 3142   3.932   2.832  10.625  2.0877 -0.7031  0.9332
   24SAPC   H2S 3143   3.808   2.948  10.695  1.1366  2.9591 -0.2057
   24SAPC    C3 3144   4.014   2.770  11.063 -0.5838  0.3609 -0.0845
   24SAPC    HX 3145   3.917   2.718  11.057 -0.8163  0.6472  1.0488
   24SAPC    HY 3146   4.057   2.760  11.165 -1.0927 -3.1056 -0.1182
   24SAPC   O31 3147   4.102   2.706  10.977  0.6970 -0.0019  0.6664
   24SAPC   C31 3148   4.229   2.736  10.990  0.3504  0.7968 -0.3078
   24SAPC   O32 3149   4.272   2.835  11.041  0.2721  0.1894 -0.2699
   24SAPC   C32 3150   4.308   2.630  10.923  0.1400 -0.0625  0.7391
   24SAPC   H2X 3151   4.313   2.551  11.000 -0.8811  1.1913  2.1634
   24SAPC   H2Y 3152   4.414   2.663  10.917  0.1041  0.4103  2.2434
   24SAPC   C23 3153   3.955   3.040  10.564 -0.1570  0.4769 -0.1491
   24SAPC   H3R 3154   4.052   3.002  10.524 -0.2757 -0.4262  0.3961
   24SAPC   H3S 3155   3.978   3.139  10.607  1.1923 -0.4120  1.2892
   24SAPC   C24 3156   3.852   3.058  10.458 -0.2477 -0.2131  0.1022
   24SAPC   H4R 3157   3.881   3.142  10.391 -0.2890 -0.3159 -0.0456
   24SAPC   H4S 3158   3.760   3.098  10.505  1.9719  3.3013  1.8461
   24SAPC   C25 3159   3.819   2.924  10.393  0.2864 -0.0491 -0.0638
   24SAPC   H5R 3160   3.772   2.855  10.464  0.3736 -1.9285 -1.7628
   24SAPC   C26 3161   3.827   2.887  10.264 -0.7310  0.4730 -0.7984
   24SAPC   H6R 3162   3.791   2.785  10.246 -0.6369 -0.0751  1.8457
   24SAPC   C27 3163   3.882   2.971  10.151  0.1623  0.0091 -0.2060
   24SAPC   H7R 3164   3.976   2.935  10.104 -0.8766 -1.7491 -1.0415
   24SAPC   H7S 3165   3.918   3.070  10.185 -0.0272  0.5236 -1.4301
   24SAPC   C28 3166   3.796   2.991  10.026  0.7384 -0.4458  0.3223
   24SAPC   H8R 3167   3.744   3.088  10.028 -0.4655 -1.0668  0.0033
   24SAPC   C29 3168   3.788   2.910   9.909 -1.0562  0.0419 -0.0618
   24SAPC   H9R 3169   3.716   2.938   9.831 -1.0257  2.0504  0.5775
   24SAPC  C210 3170   3.866   2.775   9.891 -0.5931  0.7556 -0.8342
   24SAPC  H10R 3171   3.933   2.759   9.977  1.0730  2.9716 -1.6213
   24SAPC  H10S 3172   3.939   2.786   9.808  0.5832 -0.0357  0.0670
   24SAPC  C211 3173   3.786   2.646   9.875 -0.2955 -0.7957 -0.4227
   24SAPC  H11R 3174   3.740   2.614   9.970 -0.5168 -1.0485 -0.6146
   24SAPC  C212 3175   3.743   2.592   9.759  1.0577 -0.6308 -0.1172
   24SAPC  H12R 3176   3.687   2.498   9.757  0.9874 -0.6045 -2.0376
   24SAPC  C213 3177   3.790   2.638   9.624 -0.5284 -0.4207 -0.0333
   24SAPC  H13R 3178   3.820   2.744   9.612 -3.8345  0.4173 -2.3925
   24SAPC  H13S 3179   3.698   2.635   9.561  0.1761 -1.7609 -1.0415
   24SAPC  C214 3180   3.898   2.539   9.566  0.3673 -0.5325  0.4950
   24SAPC  H14R 3181   3.920   2.444   9.616  1.1234 -0.6314 -0.0131
   24SAPC  C215 3182   3.956   2.556   9.442 -0.6658 -0.5228 -0.0879
   24SAPC  H15R 3183   4.036   2.488   9.411  1.2838 -0.0299  3.4286
   24SAPC  C216 3184   3.939   2.674   9.348  0.2766  0.0113 -0.0077
   24SAPC  H16R 3185   4.031   2.734   9.332  1.7202 -0.8083  4.0665
   24SAPC  H16S 3186   3.884   2.754   9.400 -0.3132 -1.0220  1.0129
   24SAPC  C217 3187   3.847   2.645   9.227 -0.2094  0.8264  0.1471
   24SAPC  H17R 3188   3.763   2.577   9.252 -0.2673  0.5064 -0.8888
   24SAPC  H17S 3189   3.902   2.595   9.145 -0.1161 -0.6320  1.0699
   24SAPC  C218 3190   3.788   2.774   9.164 -0.0219 -0.1632  0.2599
   24SAPC  H18R 3191   3.874   2.844   9.159  0.0426 -0.3142 -0.9693
   24SAPC  H18S 3192   3.718   2.820   9.238  0.3900  0.7627  0.0850
   24SAPC  C219 3193   3.718   2.747   9.032  0.0085  0.2063  0.0177
   24SAPC  H19R 3194   3.648   2.664   9.058  0.6893 -0.6258 -0.7317
   24SAPC  H19S 3195   3.785   2.711   8.951 -1.2050 -1.6553 -0.2320
   24SAPC  C220 3196   3.627   2.857   8.983  0.3594 -0.2966  0.2098
   24SAPC  H20R 3197   3.677   2.947   8.941 -0.3459 -0.1697 -0.3792
   24SAPC  H20S 3198   3.556   2.891   9.061 -0.5546  0.5865 -0.9797
   24SAPC  H20T 3199   3.573   2.812   8.897  1.7927  0.7092 -1.2792
   24SAPC   C33 3200   4.252   2.588  10.782 -0.7084  0.0648  0.0865
   24SAPC   H3X 3201   4.142   2.603  10.777 -0.7147 -0.5018 -1.8259
   24SAPC   H3Y 3202   4.259   2.481  10.756  0.7105  0.9790 -4.0972
   24SAPC   C34 3203   4.303   2.691  10.680 -0.2981  1.0027  0.1408
   24SAPC   H4X 3204   4.413   2.681  10.662 -0.4480  1.1349 -0.9250
   24SAPC   H4Y 3205   4.281   2.790  10.726  1.2298  1.1385  0.6540
   24SAPC   C35 3206   4.234   2.673  10.539  0.2721  0.1879 -0.7842
   24SAPC   H5X 3207   4.124   2.673  10.552  0.4996  1.5759  1.7709
   24SAPC   H5Y 3208   4.272   2.583  10.487 -1.2422 -2.2823  2.0800
   24SAPC   C36 3209   4.267   2.798  10.453  0.1467 -0.2364  0.0219
   24SAPC   H6X 3210   4.375   2.820  10.449 -0.2596  2.2471  0.6536
   24SAPC   H6Y 3211   4.235   2.890  10.507  0.7082  0.5327 -0.9434
   24SAPC   C37 3212   4.218   2.799  10.311 -0.0477 -0.5394  0.2547
   24SAPC   H7X 3213   4.225   2.902  10.272  1.1171 -1.0835 -1.0585
   24SAPC   H7Y 3214   4.112   2.766  10.304  0.0508 -0.6124 -1.2171
   24SAPC   C38 3215   4.298   2.701  10.220 -0.5250  0.0062 -0.4844
   24SAPC   H8X 3216   4.267   2.596  10.240  1.3709 -0.8198 -1.5715
   24SAPC   H8Y 3217   4.405   2.702  10.251 -0.4781 -0.2588 -0.6355
   24SAPC   C39 3218   4.281   2.733  10.070  0.4981 -0.2837 -0.4898
   24SAPC   H9X 3219   4.306   2.839  10.049 -1.2713 -0.0036 -1.3607
   24SAPC   H9Y 3220   4.174   2.726  10.041  0.0265  3.5052 -0.1958
   24SAPC  C310 3221   4.356   2.647   9.971  0.4217 -0.1616  0.4153
   24SAPC  H10X 3222   4.324   2.543   9.991  0.6021 -0.3258 -0.1225
   24SAPC  H10Y 3223   4.464   2.672   9.978  0.4569 -0.0681 -0.3357
   24SAPC  C311 3224   4.309   2.681   9.824  0.3046  0.4300  0.2354
   24SAPC  H11X 3225   4.372   2.766   9.791 -0.0170  0.5319 -0.1099
   24SAPC  H11Y 3226   4.206   2.718   9.835  0.3964  0.7156  0.1258
   24SAPC  C312 3227   4.321   2.567   9.725  1.1172 -0.3637  0.3273
   24SAPC  H12X 3228   4.282   2.602   9.627  3.2628  0.1551 -0.4118
   24SAPC  H12Y 3229   4.253   2.486   9.758 -0.3059  0.7635  0.2428
   24SAPC  C313 3230   4.459   2.521   9.706 -0.8958  0.5357  0.0400
   24SAPC  H13X 3231   4.500   2.496   9.806  0.3286 -1.8667 -0.9910
   24SAPC  H13Y 3232   4.531   2.600   9.675  0.1505 -1.1271 -1.9490
   24SAPC  C314 3233   4.469   2.395   9.618 -0.5902  0.2699 -0.4480
   24SAPC  H14X 3234   4.400   2.315   9.652  0.7060 -1.2115 -1.2029
   24SAPC  H14Y 3235   4.574   2.359   9.625 -0.9285 -0.6036  0.2486
   24SAPC  C315 3236   4.427   2.415   9.470 -0.1441  0.1060  0.0951
   24SAPC  H15X 3237   4.325   2.455   9.457  0.3611  1.2429 -0.4613
   24SAPC  H15Y 3238   4.437   2.320   9.414  0.5265  0.8902 -1.1469
   24SAPC  C316 3239   4.514   2.516   9.387  0.2704 -1.1613  1.1187
   24SAPC  H16X 3240   4.620   2.509   9.420  1.0112  1.2034 -0.4732
   24SAPC  H16Y 3241   4.474   2.617   9.412 -1.0578 -0.9689 -1.4953
   24SAPC  C317 3242   4.512   2.493   9.236 -0.0493  0.0941  0.1417
   24SAPC  H17X 3243   4.533   2.385   9.217 -0.5589 -0.2126  1.2033
   24SAPC  H17Y 3244   4.596   2.551   9.193 -1.4032 -0.2765 -3.3039
   24SAPC  C318 3245   4.385   2.521   9.155 -0.2623  0.3805 -0.7563
   24SAPC  H18X 3246   4.320   2.432   9.167  0.8041 -0.2015  1.1094
   24SAPC  H18Y 3247   4.409   2.540   9.048  0.7065  0.7827 -0.4860
   24SAPC  H18Z 3248   4.345   2.616   9.197  1.2906  1.2700 -1.1907
   25SAPC     N 3249   2.701   0.495   5.956 -0.0578 -0.3941 -0.4011
   25SAPC   C12 3250   2.623   0.490   6.088  0.6297  0.2691  0.2158
   25SAPC  H12A 3251   2.553   0.572   6.093 -0.7372 -0.8282 -0.3965
   25SAPC  H12B 3252   2.697   0.506   6.166 -0.7313 -0.1793  1.6413
   25SAPC   C13 3253   2.612   0.461   5.837 -1.0726 -0.2662 -0.2412
   25SAPC  H13A 3254   2.581   0.359   5.852  1.9809 -1.2369 -0.0099
   25SAPC  H13B 3255   2.519   0.517   5.831 -0.1262  1.2707 -1.3215
   25SAPC  H13C 3256   2.666   0.484   5.747  0.6415 -1.2130  0.4898
   25SAPC   C14 3257   2.749   0.636   5.939  0.3320  0.2455  0.6354
   25SAPC  H14A 3258   2.784   0.684   6.029  0.3863  0.8644  0.2964
   25SAPC  H14B 3259   2.827   0.638   5.864 -1.5484 -0.7681 -1.4670
   25SAPC  H14C 3260   2.674   0.707   5.907  1.4750  1.8619  1.3806
   25SAPC   C15 3261   2.813   0.404   5.962 -0.8107 -0.0343  0.1469
   25SAPC  H15A 3262   2.854   0.387   5.864  0.0437  2.2865  0.0388
   25SAPC  H15B 3263   2.900   0.417   6.025 -0.2573 -2.5468  0.0243
   25SAPC  H15C 3264   2.777   0.305   5.987  3.1880 -2.2771 -2.0190
   25SAPC   C11 3265   2.554   0.359   6.125 -0.5569 -0.1591 -0.3178
   25SAPC  H11A 3266   2.533   0.356   6.234 -0.7579 -1.7653 -0.3759
   25SAPC  H11B 3267   2.625   0.278   6.098  0.5235  0.9197 -0.7939
   25SAPC     P 3268   2.300   0.402   6.102 -0.1889 -0.0274  0.2205
   25SAPC   O13 3269   2.195   0.407   5.992 -0.8830 -0.4574 -0.2836
   25SAPC   O14 3270   2.259   0.314   6.217  0.6402  0.1153  0.8776
   25SAPC   O12 3271   2.438   0.349   6.050 -0.0886 -0.1778  0.2536
   25SAPC   O11 3272   2.336   0.547   6.155  0.0983  0.2540 -0.1050
   25SAPC    C1 3273   2.228   0.648   6.181 -0.1480  0.6531  0.1268
   25SAPC    HA 3274   2.249   0.730   6.109  1.5777 -1.2451 -1.6697
   25SAPC    HB 3275   2.128   0.607   6.156  1.4555 -4.0002  0.3389
   25SAPC    C2 3276   2.222   0.692   6.329  0.1599 -0.9540  0.0664
   25SAPC    HS 3277   2.310   0.758   6.343 -1.8745  1.7368  1.2042
   25SAPC   O21 3278   2.212   0.585   6.425  0.6673  0.7096  0.0536
   25SAPC   C21 3279   2.323   0.534   6.475 -0.5147  0.0315 -0.3792
   25SAPC   O22 3280   2.439   0.576   6.462  0.4178 -0.4627 -0.0782
   25SAPC   C22 3281   2.302   0.410   6.558  0.5472 -0.3604 -0.5540
   25SAPC   H2R 3282   2.193   0.391   6.564  0.3689 -0.0528 -2.3407
   25SAPC   H2S 3283   2.361   0.338   6.496  1.4867  0.6889 -0.9245
   25SAPC    C3 3284   2.108   0.801   6.348  0.0347  0.0575  0.7281
   25SAPC    HX 3285   2.008   0.757   6.328  0.4358 -1.6949  2.3157
   25SAPC    HY 3286   2.121   0.886   6.277  2.7965 -0.4010  0.5654
   25SAPC   O31 3287   2.110   0.855   6.480 -0.1401  0.0245 -0.0602
   25SAPC   C31 3288   2.198   0.943   6.510  0.3487  0.0322  0.9651
   25SAPC   O32 3289   2.285   0.979   6.437 -0.0714 -0.1964  0.6665
   25SAPC   C32 3290   2.180   0.995   6.649 -0.3202 -0.0666 -0.5056
   25SAPC   H2X 3291   2.164   0.911   6.719 -2.9404 -2.5922 -3.7892
   25SAPC   H2Y 3292   2.089   1.059   6.653  0.1016  0.4762  2.8429
   25SAPC   C23 3293   2.363   0.412   6.704  0.3946  0.4434 -0.5611
   25SAPC   H3R 3294   2.316   0.490   6.767  0.8185  0.8146 -0.6947
   25SAPC   H3S 3295   2.468   0.448   6.704  0.6696 -0.2383 -2.2335
   25SAPC   C24 3296   2.360   0.279   6.787 -0.2337  0.3299  0.8817
   25SAPC   H4R 3297   2.437   0.283   6.867  0.9305  1.5877 -0.2295
   25SAPC   H4S 3298   2.393   0.200   6.716 -1.8993  1.2755 -1.0720
   25SAPC   C25 3299   2.223   0.251   6.834  0.2976  0.4060 -0.0291
   25SAPC   H5R 3300   2.148   0.249   6.753 -2.0160 -0.0257  1.9860
   25SAPC   C26 3301   2.174   0.255   6.960 -0.2707  0.5679 -1.2954
   25SAPC   H6R 3302   2.073   0.218   6.983  0.4090 -0.7495 -0.3125
   25SAPC   C27 3303   2.262   0.265   7.079  0.3441 -0.3538 -0.3611
   25SAPC   H7R 3304   2.366   0.239   7.053  0.7799 -0.1628  1.1032
   25SAPC   H7S 3305   2.224   0.194   7.155 -1.1936  1.3589  0.5573
   25SAPC   C28 3306   2.264   0.404   7.142  0.8582  0.0845  0.3223
   25SAPC   H8R 3307   2.272   0.488   7.070  1.4249 -1.2664 -1.2561
   25SAPC   C29 3308   2.258   0.425   7.273  0.0372 -0.0180 -0.1221
   25SAPC   H9R 3309   2.284   0.527   7.306  0.3923 -0.7086  1.8416
   25SAPC  C210 3310   2.259   0.327   7.382 -0.7954 -0.7971 -0.3791
   25SAPC  H10R 3311   2.178   0.255   7.356  0.2197 -2.2040  0.2198
   25SAPC  H10S 3312   2.216   0.376   7.472 -2.0823 -0.9745 -0.8678
   25SAPC  C211 3313   2.375   0.249   7.426  0.8677 -0.0368  0.0522
   25SAPC  H11R 3314   2.432   0.216   7.338  0.7632  0.7861 -0.3351
   25SAPC  C212 3315   2.423   0.239   7.549  0.3330  0.1214  0.3150
   25SAPC  H12R 3316   2.514   0.179   7.562  1.2715  1.2810 -0.6606
   25SAPC  C213 3317   2.370   0.308   7.676 -0.0686  0.8190 -0.2232
   25SAPC  H13R 3318   2.329   0.227   7.741  0.1014  1.1585  0.3137
   25SAPC  H13S 3319   2.285   0.376   7.659 -2.4139 -1.6487  0.8760
   25SAPC  C214 3320   2.475   0.389   7.747  0.1065 -0.2831  0.3631
   25SAPC  H14R 3321   2.546   0.446   7.685 -0.5543  0.7386  0.5276
   25SAPC  C215 3322   2.484   0.406   7.879 -0.0470 -0.2406  0.2692
   25SAPC  H15R 3323   2.562   0.477   7.910  0.0568  0.0568 -0.6203
   25SAPC  C216 3324   2.402   0.355   7.992 -0.2440  0.4353 -0.5239
   25SAPC  H16R 3325   2.324   0.287   7.951  1.1913 -1.6900  0.0999
   25SAPC  H16S 3326   2.354   0.445   8.036  1.0853  1.5204 -1.1802
   25SAPC  C217 3327   2.479   0.275   8.092  0.2619  0.0862  0.0420
   25SAPC  H17R 3328   2.534   0.183   8.062 -1.6558 -0.9874 -0.3342
   25SAPC  H17S 3329   2.399   0.249   8.164  0.4231  0.0222  0.2020
   25SAPC  C218 3330   2.573   0.370   8.176  0.9559 -0.3032 -0.7618
   25SAPC  H18R 3331   2.510   0.454   8.215  2.1912 -0.0521  0.8314
   25SAPC  H18S 3332   2.641   0.408   8.097 -0.0297 -2.5401 -2.7815
   25SAPC  C219 3333   2.656   0.304   8.284 -0.4766  0.1762  0.1595
   25SAPC  H19R 3334   2.709   0.377   8.348  1.4244 -1.2868  0.3441
   25SAPC  H19S 3335   2.740   0.241   8.247 -2.7146 -1.6826 -2.0725
   25SAPC  C220 3336   2.583   0.202   8.366  0.1068  0.1523  0.2396
   25SAPC  H20R 3337   2.548   0.120   8.301 -1.1721  1.6391 -1.0281
   25SAPC  H20S 3338   2.498   0.243   8.423  0.2130 -0.4242  0.8249
   25SAPC  H20T 3339   2.653   0.152   8.436 -2.0250 -1.6131  1.1885
   25SAPC   C33 3340   2.297   1.086   6.692  0.0574  0.1126 -0.0818
   25SAPC   H3X 3341   2.321   1.168   6.621  3.3255  0.3699  1.1856
   25SAPC   H3Y 3342   2.391   1.028   6.684 -1.1113 -1.7400 -1.4171
   25SAPC   C34 3343   2.281   1.161   6.828 -0.2056 -0.5083 -0.2688
   25SAPC   H4X 3344   2.256   1.077   6.896  1.2690 -1.7238 -1.1692
   25SAPC   H4Y 3345   2.205   1.242   6.827  0.4318  0.2829  3.2452
   25SAPC   C35 3346   2.406   1.242   6.866  0.0981  0.0572 -0.2801
   25SAPC   H5X 3347   2.437   1.315   6.789  1.9170 -0.5616 -0.1911
   25SAPC   H5Y 3348   2.486   1.165   6.880 -0.1391 -0.3125 -0.9406
   25SAPC   C36 3349   2.389   1.326   6.993 -0.5515 -0.0797  0.5224
   25SAPC   H6X 3350   2.327   1.415   6.966  0.8217  1.2411  1.5342
   25SAPC   H6Y 3351   2.482   1.375   7.029 -0.6764 -1.3718  2.7547
   25SAPC   C37 3352   2.334   1.251   7.115 -0.5081  0.2627  0.6489
   25SAPC   H7X 3353   2.396   1.159   7.128  2.8480  2.2012 -0.4581
   25SAPC   H7Y 3354   2.228   1.222   7.094 -0.5251 -0.4650  1.6750
   25SAPC   C38 3355   2.347   1.338   7.239  0.0248  0.0183  0.2191
   25SAPC   H8X 3356   2.299   1.439   7.230  0.5783  0.3889  1.3022
   25SAPC   H8Y 3357   2.453   1.369   7.238  1.1055 -3.3010 -1.7425
   25SAPC   C39 3358   2.286   1.272   7.364 -0.2033  0.4577  0.2199
   25SAPC   H9X 3359   2.312   1.164   7.359 -1.0311  0.2186  0.7856
   25SAPC   H9Y 3360   2.175   1.281   7.357 -0.2473  1.1177  1.5258
   25SAPC  C310 3361   2.321   1.341   7.495 -0.2261  0.0246 -0.2489
   25SAPC  H10X 3362   2.282   1.444   7.510 -0.1929  0.1687 -1.1208
   25SAPC  H10Y 3363   2.430   1.355   7.480  0.1044 -0.1327  1.6838
   25SAPC  C311 3364   2.314   1.248   7.620  0.3817  0.5870  1.1623
   25SAPC  H11X 3365   2.379   1.288   7.700  2.5910  1.0159 -0.7418
   25SAPC  H11Y 3366   2.354   1.150   7.587  0.9987  0.9787  0.7279
   25SAPC  C312 3367   2.168   1.243   7.666  0.1848 -0.3201 -0.3889
   25SAPC  H12X 3368   2.113   1.165   7.610 -2.6356  0.3348  1.2634
   25SAPC  H12Y 3369   2.113   1.338   7.650  1.7738  0.6709 -0.2374
   25SAPC  C313 3370   2.151   1.196   7.811  0.0682 -0.8145  0.3079
   25SAPC  H13X 3371   2.201   1.266   7.882 -2.0504 -1.0254  2.1207
   25SAPC  H13Y 3372   2.191   1.093   7.823  0.9628 -0.7923 -1.9109
   25SAPC  C314 3373   2.004   1.211   7.857  0.7619  0.5507 -0.6305
   25SAPC  H14X 3374   1.936   1.154   7.790 -1.5587  0.0814  1.9536
   25SAPC  H14Y 3375   1.968   1.315   7.867  0.1012  0.1139  2.9312
   25SAPC  C315 3376   1.981   1.153   8.002 -0.3481  0.5529  0.0230
   25SAPC  H15X 3377   2.054   1.190   8.078 -0.4263 -3.0072  2.0636
   25SAPC  H15Y 3378   2.012   1.047   7.993 -0.0251  0.5838  0.6885
   25SAPC  C316 3379   1.853   1.180   8.062 -0.3472 -0.3863  0.2847
   25SAPC  H16X 3380   1.778   1.132   7.995  0.4116  1.3367 -1.9057
   25SAPC  H16Y 3381   1.845   1.289   8.080  1.7242 -0.2047  0.2892
   25SAPC  C317 3382   1.838   1.112   8.196 -0.1612  0.1558 -0.3898
   25SAPC  H17X 3383   1.930   1.131   8.254 -0.6812 -2.7002  1.5868
   25SAPC  H17Y 3384   1.833   1.001   8.187 -0.8413  0.2752 -1.8512
   25SAPC  C318 3385   1.715   1.167   8.271  0.2564  0.2286 -0.6052
   25SAPC  H18X 3386   1.629   1.164   8.201  0.9275 -2.0833 -1.4164
   25SAPC  H18Y 3387   1.728   1.270   8.311  1.8612 -0.1195 -0.1423
   25SAPC  H18Z 3388   1.677   1.111   8.359  0.9745  1.5471  0.5965
   26SAPC     N 3389   0.381   0.524   6.156  0.7052  0.2716  0.4415
   26SAPC   C12 3390   0.519   0.456   6.174  0.7472  0.5637  0.3203
   26SAPC  H12A 3391   0.567   0.450   6.077 -3.4783  2.2391 -2.1402
   26SAPC  H12B 3392   0.510   0.355   6.212 -0.1997  1.0135  1.3297
   26SAPC   C13 3393   0.308   0.439   6.058  0.5627  0.1520  0.5467
   26SAPC  H13A 3394   0.291   0.343   6.103 -0.3769 -0.2127 -0.5444
   26SAPC  H13B 3395   0.209   0.473   6.033 -0.8797 -2.0813  2.7199
   26SAPC  H13C 3396   0.362   0.421   5.966 -0.9191  1.1952 -0.5645
   26SAPC   C14 3397   0.316   0.534   6.286  0.1083  0.0184  1.0057
   26SAPC  H14A 3398   0.213   0.565   6.274 -0.0347 -1.1039 -1.0200
   26SAPC  H14B 3399   0.308   0.441   6.341 -2.3905  0.2084  1.0988
   26SAPC  H14C 3400   0.350   0.618   6.345 -0.7198  0.9134  0.2286
   26SAPC   C15 3401   0.405   0.659   6.100  0.1693 -0.1270  0.5398
   26SAPC  H15A 3402   0.312   0.702   6.064  0.2583 -1.7706 -1.9526
   26SAPC  H15B 3403   0.458   0.721   6.170  0.1790 -1.2137  1.5040
   26SAPC  H15C 3404   0.481   0.666   6.023 -0.0128  1.3646  0.4506
   26SAPC   C11 3405   0.623   0.524   6.279  0.7762 -0.1922  0.3858
   26SAPC  H11A 3406   0.716   0.463   6.276 -0.1535 -1.8586  2.5098
   26SAPC  H11B 3407   0.578   0.492   6.375 -0.8922  0.8103 -0.0217
   26SAPC     P 3408   0.645   0.751   6.398 -0.4227 -0.1474 -0.2250
   26SAPC   O13 3409   0.726   0.689   6.510  0.4004  0.0465 -0.4356
   26SAPC   O14 3410   0.688   0.890   6.367 -0.3387 -0.0223 -0.1664
   26SAPC   O12 3411   0.641   0.667   6.264  1.0457  0.3300 -0.0342
   26SAPC   O11 3412   0.491   0.745   6.444 -0.0685  0.1814  0.3595
   26SAPC    C1 3413   0.400   0.853   6.426  0.3670 -0.3009 -0.0772
   26SAPC    HA 3414   0.409   0.896   6.324  0.8580  1.1386  0.5466
   26SAPC    HB 3415   0.299   0.809   6.444 -0.2348  0.1665 -2.0860
   26SAPC    C2 3416   0.422   0.974   6.526 -0.0147  1.2426  0.2838
   26SAPC    HS 3417   0.513   1.032   6.498  1.5513 -1.1958  0.0080
   26SAPC   O21 3418   0.421   0.926   6.658  0.0450 -0.1766 -0.2255
   26SAPC   C21 3419   0.464   1.011   6.743  0.1063  0.3220 -0.5669
   26SAPC   O22 3420   0.513   1.120   6.722  0.3294  0.1617 -0.6660
   26SAPC   C22 3421   0.469   0.943   6.882  0.7933 -0.5585 -0.3214
   26SAPC   H2R 3422   0.365   0.934   6.919  0.7092 -0.1704 -0.4546
   26SAPC   H2S 3423   0.525   0.847   6.878  0.4955 -0.7065 -1.1077
   26SAPC    C3 3424   0.309   1.083   6.509 -0.4137  0.0349  0.4793
   26SAPC    HX 3425   0.297   1.104   6.400 -0.0070 -1.0447  0.2181
   26SAPC    HY 3426   0.337   1.179   6.559  0.1406  1.2172 -1.9347
   26SAPC   O31 3427   0.181   1.040   6.564 -0.4643 -0.4587  0.1222
   26SAPC   C31 3428   0.082   1.140   6.567 -0.4526  0.3079  0.5106
   26SAPC   O32 3429   0.093   1.247   6.508  0.3642  0.0662  0.0797
   26SAPC   C32 3430  -0.036   1.100   6.643 -0.1916  0.0968 -0.3577
   26SAPC   H2X 3431  -0.063   0.993   6.647 -0.9277  0.2283 -1.4376
   26SAPC   H2Y 3432  -0.107   1.143   6.570  0.4002  2.6855  0.4824
   26SAPC   C23 3433   0.532   1.041   6.986  0.7045  0.7126  0.1270
   26SAPC   H3R 3434   0.480   1.139   6.985 -0.7355 -0.0270 -0.0105
   26SAPC   H3S 3435   0.643   1.054   6.981  1.1012 -1.4434  1.5964
   26SAPC   C24 3436   0.508   0.985   7.128 -0.0956 -0.5469 -0.1162
   26SAPC   H4R 3437   0.596   0.920   7.141 -0.3858 -1.5391 -2.5978
   26SAPC   H4S 3438   0.425   0.913   7.115  1.3029 -2.1482 -0.4724
   26SAPC   C25 3439   0.473   1.086   7.240  0.6133  0.8290  0.1664
   26SAPC   H5R 3440   0.387   1.145   7.206  0.7084 -0.0563 -1.7433
   26SAPC   C26 3441   0.507   1.091   7.369 -0.0128 -0.3060 -0.7393
   26SAPC   H6R 3442   0.464   1.167   7.435  2.0404  0.5167 -0.2862
   26SAPC   C27 3443   0.597   0.993   7.446  0.7782 -0.5287  0.2606
   26SAPC   H7R 3444   0.667   1.059   7.501 -2.1485  0.0836  3.6388
   26SAPC   H7S 3445   0.639   0.922   7.372  2.2556  1.6797 -1.1754
   26SAPC   C28 3446   0.516   0.923   7.549  0.1276 -0.0788  0.1948
   26SAPC   H8R 3447   0.431   0.861   7.515  2.2449 -1.9111 -2.2352
   26SAPC   C29 3448   0.546   0.919   7.678 -0.0749 -0.1021 -0.5041
   26SAPC   H9R 3449   0.480   0.852   7.735  0.4243 -0.3981 -0.2723
   26SAPC  C210 3450   0.652   0.990   7.754 -0.1401 -0.1118  0.5171
   26SAPC  H10R 3451   0.715   1.046   7.682 -0.5567 -1.2052 -0.7245
   26SAPC  H10S 3452   0.717   0.922   7.814 -0.9215  0.1142  1.6574
   26SAPC  C211 3453   0.585   1.091   7.844  0.6065  0.1750 -0.9114
   26SAPC  H11R 3454   0.508   1.148   7.791  0.6614 -0.0419 -1.2271
   26SAPC  C212 3455   0.603   1.115   7.979 -0.0877  0.4995  0.4970
   26SAPC  H12R 3456   0.527   1.176   8.031 -0.8723  0.7683 -0.9157
   26SAPC  C213 3457   0.711   1.054   8.064  0.0033  0.3347  0.7223
   26SAPC  H13R 3458   0.805   1.037   8.007 -0.1266 -3.3157  1.3975
   26SAPC  H13S 3459   0.678   0.954   8.099 -0.0931 -0.0355 -0.4065
   26SAPC  C214 3460   0.756   1.142   8.177 -0.9564 -0.7914  0.2617
   26SAPC  H14R 3461   0.693   1.231   8.192 -3.2053 -2.5406  1.7944
   26SAPC  C215 3462   0.867   1.119   8.251  0.0654 -0.1972 -0.2647
   26SAPC  H15R 3463   0.886   1.179   8.342  0.6380 -0.9995  0.1568
   26SAPC  C216 3464   0.953   1.007   8.239 -0.0610  0.9497 -0.1023
   26SAPC  H16R 3465   0.906   0.930   8.173 -1.6487  2.2203 -0.5085
   26SAPC  H16S 3466   0.969   0.960   8.338  2.1992 -1.5144 -1.4972
   26SAPC  C217 3467   1.085   1.061   8.189  0.1562  0.6763  0.0735
   26SAPC  H17R 3468   1.122   1.145   8.252  0.9296 -0.2428  0.8799
   26SAPC  H17S 3469   1.091   1.102   8.086  2.5520 -1.9380 -0.9690
   26SAPC  C218 3470   1.186   0.940   8.182 -0.6367 -0.5159  0.1159
   26SAPC  H18R 3471   1.142   0.874   8.104 -1.3675  1.2001 -0.9954
   26SAPC  H18S 3472   1.178   0.883   8.277 -1.2600 -1.4666 -0.4877
   26SAPC  C219 3473   1.338   0.980   8.152  0.7886  0.0445 -0.0754
   26SAPC  H19R 3474   1.399   0.888   8.145  1.4968  0.5245 -0.3427
   26SAPC  H19S 3475   1.365   1.031   8.247  1.0196 -1.6404  0.8111
   26SAPC  C220 3476   1.363   1.063   8.027  0.4317  0.8740 -0.0157
   26SAPC  H20R 3477   1.336   1.171   8.036 -0.0927  0.8985 -1.6727
   26SAPC  H20S 3478   1.317   1.028   7.933 -2.8468  1.0014  1.4115
   26SAPC  H20T 3479   1.473   1.065   8.008  0.8151  0.2713  1.8648
   26SAPC   C33 3480  -0.039   1.156   6.785 -0.4832  0.3080 -0.5148
   26SAPC   H3X 3481  -0.130   1.120   6.837  0.1741 -0.3973  0.1869
   26SAPC   H3Y 3482  -0.036   1.267   6.795 -0.0977  0.2950 -0.4554
   26SAPC   C34 3483   0.084   1.116   6.873  0.2391  0.0449 -0.7248
   26SAPC   H4X 3484   0.178   1.167   6.844 -0.1463  1.7855  0.8331
   26SAPC   H4Y 3485   0.098   1.007   6.855  0.8900 -0.3685  1.9019
   26SAPC   C35 3486   0.075   1.130   7.020  0.9228  0.4140  0.7120
   26SAPC   H5X 3487  -0.017   1.190   7.037 -0.0146 -1.3208  2.0782
   26SAPC   H5Y 3488   0.166   1.188   7.047 -0.5682  1.9421  2.7968
   26SAPC   C36 3489   0.071   0.999   7.101  0.0561  0.3662 -0.1139
   26SAPC   H6X 3490   0.157   0.933   7.077  0.9225  1.0909  0.9429
   26SAPC   H6Y 3491  -0.009   0.932   7.062  0.5934  0.6893 -1.8368
   26SAPC   C37 3492   0.074   1.009   7.257  0.1900 -0.3523 -0.3440
   26SAPC   H7X 3493  -0.023   1.060   7.276  0.3864  0.0229 -0.3330
   26SAPC   H7Y 3494   0.157   1.077   7.285 -2.3552  3.4027 -1.0927
   26SAPC   C38 3495   0.078   0.884   7.332 -0.0674  0.3921 -0.2193
   26SAPC   H8X 3496   0.170   0.827   7.308  0.3047  1.2275 -0.8245
   26SAPC   H8Y 3497  -0.007   0.813   7.328 -1.1969  1.5710  1.5398
   26SAPC   C39 3498   0.112   0.913   7.481 -0.5561 -0.8845  0.7183
   26SAPC   H9X 3499   0.043   0.974   7.544  1.2884  2.5599 -0.3605
   26SAPC   H9Y 3500   0.213   0.958   7.484  0.2973 -2.7268  1.7407
   26SAPC  C310 3501   0.121   0.787   7.565 -0.1748  0.6988 -0.5610
   26SAPC  H10X 3502   0.218   0.733   7.555 -0.6779 -0.3450  0.1226
   26SAPC  H10Y 3503   0.033   0.723   7.545 -0.7539  0.4762  2.3335
   26SAPC  C311 3504   0.121   0.815   7.718 -0.1475  0.3521  0.6613
   26SAPC  H11X 3505   0.042   0.885   7.753 -1.2138  0.7631 -2.2990
   26SAPC  H11Y 3506   0.214   0.870   7.742  2.0625 -1.6455 -2.4994
   26SAPC  C312 3507   0.113   0.680   7.798  0.4136  0.7136 -0.1813
   26SAPC  H12X 3508   0.204   0.617   7.788  0.8229  0.8597  2.1474
   26SAPC  H12Y 3509   0.031   0.618   7.755 -1.1918  1.8581  1.0920
   26SAPC  C313 3510   0.086   0.712   7.951 -0.2005  0.1831  0.5021
   26SAPC  H13X 3511   0.157   0.787   7.993 -2.3379  2.7404 -0.2035
   26SAPC  H13Y 3512   0.092   0.613   8.002 -0.2422  0.7131  1.5548
   26SAPC  C314 3513  -0.055   0.751   7.982  0.1567 -0.0582  0.2860
   26SAPC  H14X 3514  -0.129   0.692   7.923 -0.1896  0.4431  0.2068
   26SAPC  H14Y 3515  -0.084   0.854   7.950 -2.1739 -0.7042  0.1088
   26SAPC  C315 3516  -0.068   0.734   8.135  0.4758 -1.2473 -0.3930
   26SAPC  H15X 3517   0.015   0.789   8.184  0.1276 -2.3992  1.6260
   26SAPC  H15Y 3518  -0.043   0.629   8.162  1.3465 -0.3706  2.6993
   26SAPC  C316 3519  -0.211   0.764   8.187  0.8402  0.4733  0.4063
   26SAPC  H16X 3520  -0.288   0.710   8.128 -0.0554  2.2995 -0.2001
   26SAPC  H16Y 3521  -0.248   0.869   8.178 -0.4561  0.1126  1.2221
   26SAPC  C317 3522  -0.231   0.726   8.340 -0.9680 -0.1170 -0.1202
   26SAPC  H17X 3523  -0.150   0.779   8.395  0.7751 -2.1438 -0.6110
   26SAPC  H17Y 3524  -0.191   0.623   8.347  2.2999  1.0840  0.9427
   26SAPC  C318 3525  -0.361   0.743   8.406  0.4495  0.2134  0.7599
   26SAPC  H18X 3526  -0.423   0.657   8.374  1.1193  0.6439 -1.9545
   26SAPC  H18Y 3527  -0.405   0.841   8.375 -0.2433 -0.6077 -1.0127
   26SAPC  H18Z 3528  -0.347   0.724   8.514  1.9281  0.0006  0.5488
   27SAPC     N 3529   5.769   2.314   6.474  0.4959 -0.1588  0.3830
   27SAPC   C12 3530   5.642   2.391   6.461  0.3681 -0.8521 -0.2740
   27SAPC  H12A 3531   5.641   2.458   6.377  1.6643  0.1569  0.4833
   27SAPC  H12B 3532   5.644   2.457   6.546  0.1090 -1.6087  0.3310
   27SAPC   C13 3533   5.771   2.242   6.610  0.0545  0.7869 -0.0771
   27SAPC  H13A 3534   5.845   2.164   6.604 -0.1303  0.5927  0.1913
   27SAPC  H13B 3535   5.797   2.310   6.690 -2.0770  0.7088  0.7683
   27SAPC  H13C 3536   5.674   2.196   6.621  0.8927 -1.3460 -1.1445
   27SAPC   C14 3537   5.777   2.206   6.366 -0.6519  0.6553 -0.3400
   27SAPC  H14A 3538   5.690   2.145   6.348  1.2714 -2.5248  0.2456
   27SAPC  H14B 3539   5.808   2.253   6.274 -0.0603  0.4659 -0.2458
   27SAPC  H14C 3540   5.856   2.136   6.393 -0.6441 -0.1648 -2.3131
   27SAPC   C15 3541   5.892   2.390   6.459  0.5230 -0.0170 -0.2105
   27SAPC  H15A 3542   5.976   2.331   6.426  0.0945 -1.8403  1.7547
   27SAPC  H15B 3543   5.886   2.475   6.393 -2.5680  1.6325  1.9486
   27SAPC  H15C 3544   5.923   2.431   6.554 -1.1766  1.4434 -0.2362
   27SAPC   C11 3545   5.508   2.310   6.477 -0.3181 -0.2603  0.8196
   27SAPC  H11A 3546   5.503   2.227   6.404 -0.5837 -0.2998  0.8790
   27SAPC  H11B 3547   5.425   2.380   6.450  0.3956  0.9994  1.7736
   27SAPC     P 3548   5.429   2.359   6.720  0.2976  0.1452  0.0138
   27SAPC   O13 3549   5.542   2.441   6.756 -0.1176 -0.8574  0.2031
   27SAPC   O14 3550   5.307   2.426   6.662 -1.0629  0.2820  0.1821
   27SAPC   O12 3551   5.490   2.261   6.607 -0.4084 -0.6953  0.3431
   27SAPC   O11 3552   5.380   2.271   6.840  0.2123 -0.0826 -0.1869
   27SAPC    C1 3553   5.313   2.146   6.805  1.0679 -0.0645 -0.5816
   27SAPC    HA 3554   5.287   2.133   6.698 -0.9132  1.4605 -0.3462
   27SAPC    HB 3555   5.375   2.062   6.843  0.5182  0.4423  1.6303
   27SAPC    C2 3556   5.183   2.138   6.885  0.0149  0.5957 -0.2465
   27SAPC    HS 3557   5.108   2.214   6.853  0.4851  0.2229 -2.3673
   27SAPC   O21 3558   5.206   2.149   7.023  0.3312  0.1741  0.2797
   27SAPC   C21 3559   5.103   2.191   7.098  0.1956  0.5884  0.2141
   27SAPC   O22 3560   4.992   2.219   7.057  0.4026 -0.5735  0.0546
   27SAPC   C22 3561   5.154   2.210   7.242  0.0552  0.0205  0.4002
   27SAPC   H2R 3562   5.208   2.115   7.263 -1.4253 -1.0809 -0.5872
   27SAPC   H2S 3563   5.226   2.294   7.251 -0.3361  0.4655 -0.5282
   27SAPC    C3 3564   5.129   1.993   6.853 -0.0815 -0.2399  0.4359
   27SAPC    HX 3565   5.213   1.923   6.875  0.8874  0.7474 -0.0343
   27SAPC    HY 3566   5.101   1.982   6.746  1.5834 -0.9965  0.0463
   27SAPC   O31 3567   5.025   1.959   6.935  0.6174  0.4831 -0.7107
   27SAPC   C31 3568   5.005   1.826   6.957 -0.5944  0.2763 -0.3524
   27SAPC   O32 3569   5.084   1.741   6.911 -0.1977  0.1873  0.1820
   27SAPC   C32 3570   4.882   1.785   7.037  0.3730 -0.0522  0.3429
   27SAPC   H2X 3571   4.890   1.674   7.025  2.0980  0.1243 -0.4728
   27SAPC   H2Y 3572   4.801   1.819   6.969  1.8627  1.4000 -0.7745
   27SAPC   C23 3573   5.045   2.223   7.358 -0.3474  0.6792  0.3538
   27SAPC   H3R 3574   4.978   2.135   7.344  2.2626 -1.1400 -2.1053
   27SAPC   H3S 3575   4.989   2.318   7.349 -0.6014  0.5377  0.4369
   27SAPC   C24 3576   5.105   2.205   7.499  0.3348 -0.2280  0.2862
   27SAPC   H4R 3577   5.185   2.282   7.509 -0.5013  0.7351 -0.2835
   27SAPC   H4S 3578   5.163   2.110   7.498  0.7549  0.0257  0.3151
   27SAPC   C25 3579   5.007   2.207   7.609 -0.0486 -0.0164 -0.5865
   27SAPC   H5R 3580   4.900   2.197   7.588 -0.6048  1.2372  1.3177
   27SAPC   C26 3581   5.044   2.212   7.738 -0.0796  0.2261  0.2014
   27SAPC   H6R 3582   4.966   2.210   7.816  0.6131  0.5845  0.9248
   27SAPC   C27 3583   5.187   2.223   7.793 -0.5421  0.3638  0.7037
   27SAPC   H7R 3584   5.203   2.318   7.848  0.5327 -0.0865  1.2066
   27SAPC   H7S 3585   5.251   2.241   7.704 -1.4706  0.7847  0.1039
   27SAPC   C28 3586   5.231   2.100   7.872  0.2307 -0.2146 -0.6598
   27SAPC   H8R 3587   5.295   2.023   7.825 -0.7196 -1.5234  0.1237
   27SAPC   C29 3588   5.195   2.077   7.997  0.1725 -0.5787  0.0132
   27SAPC   H9R 3589   5.238   1.996   8.057 -3.6387 -0.8084  2.8535
   27SAPC  C210 3590   5.109   2.162   8.092 -0.1346 -0.1636  0.1534
   27SAPC  H10R 3591   5.089   2.260   8.044  2.3467 -0.5958 -1.9633
   27SAPC  H10S 3592   5.179   2.186   8.176 -0.3112  2.8465 -0.4500
   27SAPC  C211 3593   4.982   2.104   8.149  0.4096 -0.1157 -0.7950
   27SAPC  H11R 3594   4.909   2.080   8.071  1.2192  0.3509 -1.7153
   27SAPC  C212 3595   4.948   2.091   8.278  0.2674 -0.7080  0.5507
   27SAPC  H12R 3596   4.850   2.051   8.309  0.3432 -0.7724  0.7075
   27SAPC  C213 3597   5.030   2.132   8.401  0.4284  0.4576  0.0543
   27SAPC  H13R 3598   4.960   2.177   8.474  1.0281  2.4692 -0.5517
   27SAPC  H13S 3599   5.103   2.210   8.372  0.8174  0.8974  2.0700
   27SAPC  C214 3600   5.115   2.025   8.460 -0.0325 -0.1665  0.1678
   27SAPC  H14R 3601   5.210   2.029   8.404 -1.2476 -0.8660 -2.0676
   27SAPC  C215 3602   5.078   1.918   8.536 -0.3364 -0.1609  0.5089
   27SAPC  H15R 3603   5.163   1.849   8.551  0.0645  0.1642 -0.1983
   27SAPC  C216 3604   4.940   1.894   8.595 -0.8221 -0.9101  0.0787
   27SAPC  H16R 3605   4.852   1.919   8.532 -1.2432 -0.3140  0.8901
   27SAPC  H16S 3606   4.923   1.971   8.673 -0.5771  1.9148 -2.4929
   27SAPC  C217 3607   4.929   1.754   8.650 -0.4060 -0.2492 -0.2840
   27SAPC  H17R 3608   4.948   1.683   8.567 -1.1260 -0.0988 -0.5769
   27SAPC  H17S 3609   4.824   1.735   8.679 -0.8219 -0.8597 -2.0956
   27SAPC  C218 3610   5.035   1.725   8.762 -0.2040 -0.3245  0.0970
   27SAPC  H18R 3611   5.141   1.736   8.731 -0.3695 -1.9730 -1.2293
   27SAPC  H18S 3612   5.033   1.615   8.778 -1.4039 -0.2646  0.5077
   27SAPC  C219 3613   4.999   1.791   8.894 -0.1653 -0.3591 -0.1957
   27SAPC  H19R 3614   4.891   1.773   8.912 -0.3203  1.6012  1.2198
   27SAPC  H19S 3615   5.003   1.902   8.887 -4.1135  0.0972  1.9724
   27SAPC  C220 3616   5.065   1.748   9.018 -0.3120  0.3895 -0.1713
   27SAPC  H20R 3617   5.035   1.791   9.115 -0.2036 -0.5841  0.3095
   27SAPC  H20S 3618   5.171   1.781   9.017 -0.4328  0.7738 -0.3637
   27SAPC  H20T 3619   5.051   1.638   9.030 -0.1273  0.3338 -0.4386
   27SAPC   C33 3620   4.869   1.831   7.183 -0.1296  0.3968 -0.0863
   27SAPC   H3X 3621   4.766   1.805   7.217 -0.1206 -1.6029 -1.4328
   27SAPC   H3Y 3622   4.879   1.941   7.176 -0.6154  0.3469 -1.9192
   27SAPC   C34 3623   4.959   1.767   7.284  0.1480  0.6139 -0.1525
   27SAPC   H4X 3624   5.065   1.791   7.257  0.1920 -1.3691 -1.9599
   27SAPC   H4Y 3625   4.940   1.658   7.291  2.0034  0.3331  1.8079
   27SAPC   C35 3626   4.921   1.815   7.425 -0.0968  0.0276  0.5628
   27SAPC   H5X 3627   4.827   1.768   7.463 -0.1946  0.6964  1.1660
   27SAPC   H5Y 3628   4.901   1.924   7.433  0.8027  0.1971  0.6473
   27SAPC   C36 3629   5.013   1.772   7.534 -0.6002  0.4179  0.0091
   27SAPC   H6X 3630   5.106   1.830   7.520 -1.1266  1.6753  1.4572
   27SAPC   H6Y 3631   5.029   1.663   7.520  0.2995  0.4419  0.8097
   27SAPC   C37 3632   4.956   1.797   7.671 -0.2076  0.4245 -1.0357
   27SAPC   H7X 3633   4.854   1.754   7.677  0.1244 -0.1630  1.0204
   27SAPC   H7Y 3634   4.963   1.905   7.694  0.2040 -0.3124  2.9366
   27SAPC   C38 3635   5.050   1.732   7.774 -0.4243 -0.5441  0.1842
   27SAPC   H8X 3636   5.153   1.764   7.748 -0.2350 -2.0133 -1.0507
   27SAPC   H8Y 3637   5.045   1.621   7.769 -0.5873 -0.4775 -2.5176
   27SAPC   C39 3638   5.016   1.768   7.922 -0.5126 -0.3652 -0.0706
   27SAPC   H9X 3639   5.003   1.877   7.942 -0.9654 -0.5527  0.7022
   27SAPC   H9Y 3640   5.085   1.721   7.995 -0.5596  0.3591  0.4507
   27SAPC  C310 3641   4.877   1.722   7.973 -1.3870 -0.0459 -0.1054
   27SAPC  H10X 3642   4.863   1.612   7.961 -0.0045 -0.1330 -1.2394
   27SAPC  H10Y 3643   4.798   1.767   7.911 -2.3332  0.4515  1.3992
   27SAPC  C311 3644   4.846   1.755   8.123  0.4528 -0.1978 -0.1682
   27SAPC  H11X 3645   4.737   1.763   8.146  0.5804  4.3938 -0.0681
   27SAPC  H11Y 3646   4.882   1.860   8.137  2.2924 -0.7099 -0.8438
   27SAPC  C312 3647   4.923   1.661   8.224 -0.5726  0.8328  0.4532
   27SAPC  H12X 3648   4.907   1.707   8.324  0.3135  1.8778  0.1351
   27SAPC  H12Y 3649   5.033   1.668   8.211 -0.7519  0.7864 -1.3793
   27SAPC  C313 3650   4.881   1.518   8.226  0.2682  0.3481  1.2153
   27SAPC  H13X 3651   4.919   1.455   8.143  0.0138  0.5393  0.9541
   27SAPC  H13Y 3652   4.770   1.508   8.226  0.1839  1.0672  0.2873
   27SAPC  C314 3653   4.931   1.442   8.354 -0.3420 -0.2515  0.5617
   27SAPC  H14X 3654   4.877   1.488   8.440 -2.3969 -0.4880 -0.5394
   27SAPC  H14Y 3655   5.041   1.453   8.363 -0.5213  1.3530  1.2084
   27SAPC  C315 3656   4.896   1.296   8.341 -0.4206  0.2512  0.3181
   27SAPC  H15X 3657   4.954   1.237   8.266  0.2253  1.2879 -0.0183
   27SAPC  H15Y 3658   4.791   1.288   8.309 -0.8094  1.7851  1.1040
   27SAPC  C316 3659   4.926   1.229   8.477 -0.2959  0.4635 -0.4358
   27SAPC  H16X 3660   4.837   1.187   8.528 -1.6099  4.3107  0.8203
   27SAPC  H16Y 3661   4.966   1.302   8.550 -0.2807  0.3736 -0.3551
   27SAPC  C317 3662   5.042   1.123   8.482 -0.8156 -0.4057 -0.7101
   27SAPC  H17X 3663   5.139   1.177   8.471 -0.0586 -1.6998 -0.6153
   27SAPC  H17Y 3664   5.037   1.057   8.393  1.5487  2.2573 -3.0251
   27SAPC  C318 3665   5.046   1.042   8.610  0.1075  0.1579 -0.5792
   27SAPC  H18X 3666   5.111   0.952   8.605  0.4393  0.2040  1.9236
   27SAPC  H18Y 3667   4.946   1.007   8.645  0.6072  1.0640  1.9258
   27SAPC  H18Z 3668   5.079   1.097   8.700 -0.2970 -0.1470 -0.2402
   28SAPC     N 3669   3.898   6.260   6.364 -0.3953  0.1201  0.1741
   28SAPC   C12 3670   4.027   6.189   6.351  0.0897 -0.0406 -0.1250
   28SAPC  H12A 3671   4.102   6.259   6.385 -1.2719  1.2637  0.3217
   28SAPC  H12B 3672   4.054   6.176   6.247  0.5473  1.0626 -0.1583
   28SAPC   C13 3673   3.891   6.380   6.274  0.3650 -0.5700  0.5336
   28SAPC  H13A 3674   3.802   6.441   6.283  0.9757  0.5448 -0.6828
   28SAPC  H13B 3675   3.978   6.438   6.302 -1.6224  2.9343  0.0200
   28SAPC  H13C 3676   3.911   6.372   6.169  1.2780 -0.4930  0.6855
   28SAPC   C14 3677   3.778   6.187   6.326  0.1408 -0.0744  0.5301
   28SAPC  H14A 3678   3.707   6.172   6.406  0.1234  1.1454  0.7622
   28SAPC  H14B 3679   3.714   6.249   6.264  0.9579  0.6371  0.3884
   28SAPC  H14C 3680   3.808   6.093   6.284  1.6850  2.2490 -4.2877
   28SAPC   C15 3681   3.873   6.305   6.506  0.0302 -0.6323 -0.3750
   28SAPC  H15A 3682   3.893   6.236   6.586  2.7444  0.2783 -0.1340
   28SAPC  H15B 3683   3.937   6.386   6.537  0.6938 -1.2988  0.0356
   28SAPC  H15C 3684   3.772   6.341   6.514 -0.2475 -0.6610 -2.9810
   28SAPC   C11 3685   4.033   6.055   6.430 -0.0639  0.0628  0.3246
   28SAPC  H11A 3686   4.019   6.082   6.537  1.8876 -1.1746  0.9611
   28SAPC  H11B 3687   4.135   6.014   6.414 -0.2124  0.4537 -1.8256
   28SAPC     P 3688   3.932   5.809   6.435 -0.7153 -0.2142 -0.4609
   28SAPC   O13 3689   3.986   5.728   6.324  0.1176  0.3998 -0.5289
   28SAPC   O14 3690   3.995   5.806   6.570  0.1735 -0.5032  0.0934
   28SAPC   O12 3691   3.929   5.966   6.384 -0.7407 -0.1661  0.4809
   28SAPC   O11 3692   3.779   5.767   6.454 -0.1272  0.1637  0.2925
   28SAPC    C1 3693   3.674   5.844   6.508 -0.1030  0.4805 -0.2004
   28SAPC    HA 3694   3.716   5.933   6.559  0.5248 -0.8915  1.8245
   28SAPC    HB 3695   3.615   5.887   6.425  0.6836  0.2027 -0.9178
   28SAPC    C2 3696   3.599   5.767   6.619  0.2440 -0.6627  0.1551
   28SAPC    HS 3697   3.530   5.835   6.673  0.2584  0.6751 -1.4383
   28SAPC   O21 3698   3.702   5.710   6.697 -0.1997 -0.2941 -0.2541
   28SAPC   C21 3699   3.763   5.791   6.780  0.6850  0.3762 -0.0065
   28SAPC   O22 3700   3.725   5.901   6.810 -0.0737 -0.2674 -0.0923
   28SAPC   C22 3701   3.864   5.710   6.853  0.1718  0.3260 -0.2703
   28SAPC   H2R 3702   3.805   5.623   6.888 -0.8459  1.7818  1.8013
   28SAPC   H2S 3703   3.938   5.669   6.781  1.3837 -0.3774  1.3334
   28SAPC    C3 3704   3.507   5.661   6.553 -0.1056 -0.4335 -0.1253
   28SAPC    HX 3705   3.578   5.595   6.498  0.7648  0.6749 -0.3676
   28SAPC    HY 3706   3.452   5.713   6.473 -0.6061  1.8613  1.6151
   28SAPC   O31 3707   3.418   5.598   6.645 -0.2269 -0.1053  0.0105
   28SAPC   C31 3708   3.318   5.531   6.597 -0.2404  0.0101  0.5956
   28SAPC   O32 3709   3.301   5.527   6.477 -0.9843  0.0592  0.0677
   28SAPC   C32 3710   3.244   5.457   6.702 -0.4701 -0.1672 -0.5527
   28SAPC   H2X 3711   3.231   5.535   6.781  0.7107  1.2507 -1.6972
   28SAPC   H2Y 3712   3.306   5.376   6.747 -1.2094 -0.4045  0.0649
   28SAPC   C23 3713   3.938   5.785   6.968 -0.0123  0.4662  0.2053
   28SAPC   H3R 3714   3.868   5.824   7.045 -1.1340  1.9858 -1.4765
   28SAPC   H3S 3715   3.991   5.872   6.925  0.2123 -0.1943 -0.8869
   28SAPC   C24 3716   4.047   5.687   7.023  0.4229  0.2705 -0.5678
   28SAPC   H4R 3717   4.118   5.664   6.941  1.5740  2.8432 -0.3759
   28SAPC   H4S 3718   4.102   5.754   7.093  2.0718  0.5117 -2.0320
   28SAPC   C25 3719   3.983   5.570   7.094  0.4892  0.4511 -0.2399
   28SAPC   H5R 3720   3.928   5.502   7.028 -0.4212  0.1736  0.7666
   28SAPC   C26 3721   3.970   5.545   7.226 -0.0644 -0.2264 -0.1630
   28SAPC   H6R 3722   3.924   5.452   7.262  1.8769 -1.1877 -0.0292
   28SAPC   C27 3723   4.024   5.625   7.342 -0.1835  0.0464  0.0545
   28SAPC   H7R 3724   3.937   5.657   7.402 -0.8591  0.1609 -0.9597
   28SAPC   H7S 3725   4.074   5.718   7.307  0.8290 -0.3447  0.3983
   28SAPC   C28 3726   4.118   5.546   7.434  0.0488 -0.0935  0.6152
   28SAPC   H8R 3727   4.066   5.452   7.456  0.5349 -0.6971 -0.7289
   28SAPC   C29 3728   4.239   5.577   7.480  0.4427  0.2033  0.0938
   28SAPC   H9R 3729   4.290   5.499   7.538 -0.3210 -0.4068 -0.0446
   28SAPC  C210 3730   4.307   5.711   7.453 -0.0831 -0.3846  0.0782
   28SAPC  H10R 3731   4.339   5.755   7.550 -0.4481 -0.7428  0.3667
   28SAPC  H10S 3732   4.229   5.785   7.424 -1.5162 -2.8938 -3.1312
   28SAPC  C211 3733   4.412   5.721   7.348 -0.1080  0.0095  0.2727
   28SAPC  H11R 3734   4.402   5.654   7.261 -0.9151  2.3390 -1.5385
   28SAPC  C212 3735   4.520   5.799   7.352  0.3313 -0.7913  0.0381
   28SAPC  H12R 3736   4.598   5.785   7.275  0.8214 -1.0890  0.5784
   28SAPC  C213 3737   4.565   5.899   7.468  1.2043  0.3592  0.8131
   28SAPC  H13R 3738   4.498   5.876   7.554 -0.5898  0.1927 -0.5616
   28SAPC  H13S 3739   4.541   6.006   7.446 -0.7255 -0.2595 -0.3324
   28SAPC  C214 3740   4.712   5.882   7.476 -0.7960 -0.2093  0.4499
   28SAPC  H14R 3741   4.770   5.942   7.405 -0.8623  0.9179  1.3125
   28SAPC  C215 3742   4.781   5.811   7.573 -0.2007 -0.2175 -0.1531
   28SAPC  H15R 3743   4.890   5.793   7.570 -0.1943 -0.7989  2.0700
   28SAPC  C216 3744   4.718   5.731   7.684  0.1037 -0.0956 -0.3619
   28SAPC  H16R 3745   4.765   5.631   7.695 -0.2328 -0.2172  0.0130
   28SAPC  H16S 3746   4.611   5.709   7.667 -0.2756  0.0608  1.5681
   28SAPC  C217 3747   4.722   5.794   7.826  0.5125  0.0461 -0.1327
   28SAPC  H17R 3748   4.683   5.711   7.889 -1.4536  1.6250  0.8479
   28SAPC  H17S 3749   4.648   5.873   7.852  0.1788 -0.8742  1.9154
   28SAPC  C218 3750   4.856   5.833   7.885  0.1471 -0.8034 -0.8411
   28SAPC  H18R 3751   4.840   5.892   7.978  2.6772 -1.3853  0.0414
   28SAPC  H18S 3752   4.894   5.906   7.810 -0.5556  1.8928  1.2835
   28SAPC  C219 3753   4.947   5.714   7.899 -0.1599 -0.0886 -0.1852
   28SAPC  H19R 3754   4.941   5.648   7.810 -3.2152  1.6554 -1.4087
   28SAPC  H19S 3755   4.904   5.651   7.979 -1.9235 -0.0502 -1.0522
   28SAPC  C220 3756   5.098   5.729   7.933  0.7978  0.7879 -0.0825
   28SAPC  H20R 3757   5.146   5.630   7.949  0.9764  0.9815  0.6055
   28SAPC  H20S 3758   5.103   5.800   8.018 -1.3949 -1.4995  2.1250
   28SAPC  H20T 3759   5.156   5.769   7.847  1.2958 -0.8879 -0.5567
   28SAPC   C33 3760   3.112   5.401   6.646 -0.4646 -0.0358  0.2467
   28SAPC   H3X 3761   3.140   5.324   6.571  4.8507 -0.8315  2.5499
   28SAPC   H3Y 3762   3.054   5.484   6.602  3.3548  3.7659  1.6777
   28SAPC   C34 3763   3.030   5.327   6.750  0.0078 -0.2726 -0.5904
   28SAPC   H4X 3764   2.994   5.392   6.833 -1.0054 -0.4630 -0.8681
   28SAPC   H4Y 3765   3.094   5.247   6.793 -1.1653  0.0731  2.0041
   28SAPC   C35 3766   2.898   5.259   6.704  0.3863  0.2662 -0.0905
   28SAPC   H5X 3767   2.932   5.203   6.614  0.7965 -2.1031  1.4258
   28SAPC   H5Y 3768   2.824   5.330   6.661  0.5138  1.7169  1.9471
   28SAPC   C36 3769   2.831   5.175   6.809 -0.1649 -0.5024  0.2719
   28SAPC   H6X 3770   2.893   5.091   6.845 -0.3884 -1.2089 -0.9317
   28SAPC   H6Y 3771   2.745   5.128   6.755 -0.6068 -0.3249  0.8125
   28SAPC   C37 3772   2.782   5.261   6.928  0.3904  0.4578 -0.6520
   28SAPC   H7X 3773   2.745   5.362   6.899  2.1277  0.1758 -4.2672
   28SAPC   H7Y 3774   2.876   5.268   6.988  1.6380 -0.7114 -2.3728
   28SAPC   C38 3775   2.690   5.186   7.022 -0.4999  0.4255  0.1246
   28SAPC   H8X 3776   2.747   5.097   7.057  0.3821  0.3397 -1.4646
   28SAPC   H8Y 3777   2.600   5.151   6.967  1.0909 -1.2742 -1.5247
   28SAPC   C39 3778   2.659   5.279   7.141 -0.4981 -0.4815 -0.5017
   28SAPC   H9X 3779   2.580   5.233   7.204 -0.4284 -1.8267 -1.3476
   28SAPC   H9Y 3780   2.615   5.370   7.094  2.0532  0.7982 -0.5591
   28SAPC  C310 3781   2.784   5.293   7.239  0.2442  0.6104  0.0446
   28SAPC  H10X 3782   2.869   5.347   7.191 -1.0416  2.1130 -0.6506
   28SAPC  H10Y 3783   2.814   5.189   7.262  1.8581  0.3993 -2.5355
   28SAPC  C311 3784   2.744   5.371   7.361  0.0636  0.0323  0.2277
   28SAPC  H11X 3785   2.646   5.331   7.396  0.9324 -3.2657 -0.8087
   28SAPC  H11Y 3786   2.738   5.478   7.332  0.0672  0.0113  0.1519
   28SAPC  C312 3787   2.846   5.358   7.472 -0.7889 -0.0691 -0.0481
   28SAPC  H12X 3788   2.947   5.382   7.431 -0.8117 -3.7717 -2.8671
   28SAPC  H12Y 3789   2.852   5.249   7.493  1.2474 -0.0752 -0.4283
   28SAPC  C313 3790   2.818   5.439   7.606 -0.0686  0.2018  0.0424
   28SAPC  H13X 3791   2.727   5.400   7.656 -0.4245 -1.0212 -1.4955
   28SAPC  H13Y 3792   2.810   5.547   7.582  1.6768  0.3441 -0.0869
   28SAPC  C314 3793   2.926   5.426   7.717 -0.0318 -0.2152  0.4588
   28SAPC  H14X 3794   3.011   5.490   7.685 -0.2422 -0.3677 -0.4164
   28SAPC  H14Y 3795   2.971   5.326   7.704  0.8928 -0.1420  2.6102
   28SAPC  C315 3796   2.875   5.453   7.854  0.0114  0.6883  0.1368
   28SAPC  H15X 3797   2.817   5.360   7.874  0.5445 -0.3484 -2.6543
   28SAPC  H15Y 3798   2.807   5.539   7.837  0.2913  0.6596 -1.2508
   28SAPC  C316 3799   2.984   5.485   7.954  0.6338 -0.3369  0.1662
   28SAPC  H16X 3800   3.054   5.568   7.933  0.3600 -0.6088 -2.0709
   28SAPC  H16Y 3801   3.038   5.389   7.971  2.7366  0.7339 -0.2104
   28SAPC  C317 3802   2.924   5.521   8.090 -0.3161  0.2348  0.0162
   28SAPC  H17X 3803   2.861   5.435   8.124 -0.3302 -0.6917 -2.1713
   28SAPC  H17Y 3804   2.848   5.600   8.074  0.3459  2.2166  4.9510
   28SAPC  C318 3805   3.023   5.573   8.196  0.4097 -0.9064 -0.2313
   28SAPC  H18X 3806   2.956   5.633   8.261 -0.8085 -0.4258 -1.8683
   28SAPC  H18Y 3807   3.093   5.648   8.154 -3.0231  0.8551 -3.2574
   28SAPC  H18Z 3808   3.072   5.497   8.261  0.4978 -0.3007  0.4194
   29SAPC     N 3809   0.955   2.316   6.523  0.0272 -0.2973  0.2478
   29SAPC   C12 3810   0.905   2.180   6.527 -0.4074 -0.0032 -0.2225
   29SAPC  H12A 3811   0.988   2.118   6.557 -0.4642  1.2282  2.8338
   29SAPC  H12B 3812   0.880   2.152   6.426 -1.8957  1.6121 -0.3520
   29SAPC   C13 3813   1.005   2.353   6.657 -0.7078  0.6071 -0.3862
   29SAPC  H13A 3814   0.919   2.377   6.718  0.3305  0.5721  1.1494
   29SAPC  H13B 3815   1.077   2.288   6.706  1.9455  3.7428  0.2448
   29SAPC  H13C 3816   1.054   2.450   6.658 -1.3796  0.9494  1.2652
   29SAPC   C14 3817   1.070   2.331   6.422 -0.0086  1.0669  0.8256
   29SAPC  H14A 3818   1.110   2.430   6.437 -1.9801  1.6979  2.2570
   29SAPC  H14B 3819   1.156   2.268   6.440 -1.5600 -0.7774  2.2593
   29SAPC  H14C 3820   1.034   2.331   6.320  0.2648 -0.0331  0.7081
   29SAPC   C15 3821   0.846   2.413   6.480 -0.6245 -0.6251 -0.1845
   29SAPC  H15A 3822   0.889   2.511   6.467 -0.4564 -0.8976 -1.9682
   29SAPC  H15B 3823   0.808   2.383   6.383  0.0717  0.3860 -0.7961
   29SAPC  H15C 3824   0.765   2.430   6.549 -0.7682  2.9460 -1.0021
   29SAPC   C11 3825   0.776   2.149   6.608 -0.2957 -0.6406 -0.1652
   29SAPC  H11A 3826   0.793   2.199   6.706 -2.6306 -0.9380  0.4717
   29SAPC  H11B 3827   0.768   2.042   6.638  0.1024 -0.6062  0.0663
   29SAPC     P 3828   0.597   2.085   6.439 -0.3098 -0.2549  0.7153
   29SAPC   O13 3829   0.476   2.147   6.382 -0.2031 -0.2910 -0.6055
   29SAPC   O14 3830   0.707   2.057   6.345 -0.0487  0.3539  0.9302
   29SAPC   O12 3831   0.656   2.191   6.541  0.0268 -0.4386  0.2197
   29SAPC   O11 3832   0.563   1.957   6.521  0.0100  0.1224 -0.7653
   29SAPC    C1 3833   0.427   1.928   6.556  0.3392  0.0343  0.0576
   29SAPC    HA 3834   0.362   1.951   6.469  1.4015 -2.2429 -1.4129
   29SAPC    HB 3835   0.419   1.819   6.576  0.6369  0.2526  1.4888
   29SAPC    C2 3836   0.377   2.004   6.685  0.7144 -0.0989 -0.5353
   29SAPC    HS 3837   0.393   2.110   6.656 -0.5615 -0.3667 -2.4162
   29SAPC   O21 3838   0.456   1.968   6.799  0.3929  0.1513  0.0275
   29SAPC   C21 3839   0.476   2.068   6.887 -0.8702  0.3276 -0.1307
   29SAPC   O22 3840   0.458   2.187   6.879  0.1365 -0.3212  0.4760
   29SAPC   C22 3841   0.531   2.005   7.016 -0.0959 -0.3761  0.5618
   29SAPC   H2R 3842   0.455   1.934   7.054 -0.5352 -0.8050 -1.0303
   29SAPC   H2S 3843   0.626   1.954   6.989  0.7234  1.0298  0.6701
   29SAPC    C3 3844   0.222   1.993   6.719 -0.4488 -0.0296 -0.6250
   29SAPC    HX 3845   0.170   2.053   6.641  2.4379  3.3486 -0.2041
   29SAPC    HY 3846   0.201   2.056   6.808  1.9317 -0.0936  0.0337
   29SAPC   O31 3847   0.172   1.860   6.752  0.4400  0.2284  0.4634
   29SAPC   C31 3848   0.093   1.804   6.658  0.3547 -0.9047 -0.1594
   29SAPC   O32 3849   0.071   1.855   6.550  0.0332  0.0863 -0.5637
   29SAPC   C32 3850   0.061   1.658   6.700 -0.4660  0.2078 -0.2143
   29SAPC   H2X 3851   0.079   1.641   6.808  0.5736 -1.6988 -0.6405
   29SAPC   H2Y 3852   0.128   1.599   6.633  2.9644 -0.1292  3.1360
   29SAPC   C23 3853   0.555   2.107   7.127 -0.0200  0.0956 -0.0645
   29SAPC   H3R 3854   0.454   2.141   7.159  0.0622  1.7079 -1.3938
   29SAPC   H3S 3855   0.602   2.201   7.089 -1.6409 -0.5320 -4.1412
   29SAPC   C24 3856   0.630   2.043   7.246 -0.3944 -0.0661  0.6703
   29SAPC   H4R 3857   0.741   2.051   7.235 -0.4453  1.3865  0.9791
   29SAPC   H4S 3858   0.600   1.936   7.247  1.9187 -0.8540 -1.6999
   29SAPC   C25 3859   0.599   2.113   7.378 -0.4157  0.4082  0.8127
   29SAPC   H5R 3860   0.502   2.164   7.383 -0.6930  0.0437 -0.4159
   29SAPC   C26 3861   0.674   2.104   7.484 -0.2426 -0.0034 -0.0170
   29SAPC   H6R 3862   0.626   2.154   7.569 -0.9204 -2.8452  1.3948
   29SAPC   C27 3863   0.804   2.023   7.501  0.5037  0.4900 -0.7400
   29SAPC   H7R 3864   0.866   2.036   7.410 -0.1515  3.1511 -0.8921
   29SAPC   H7S 3865   0.788   1.915   7.520  1.5518  0.3380 -0.6731
   29SAPC   C28 3866   0.877   2.076   7.626 -0.3205 -0.1209 -0.5216
   29SAPC   H8R 3867   0.930   2.170   7.604  0.5830 -0.5281 -0.1356
   29SAPC   C29 3868   0.880   2.026   7.753 -0.3861  0.1252  0.4558
   29SAPC   H9R 3869   0.944   2.078   7.826 -3.2268  1.1061  2.3965
   29SAPC  C210 3870   0.826   1.891   7.791  0.2013  0.0759 -0.1482
   29SAPC  H10R 3871   0.738   1.866   7.727  0.9904 -0.0247 -1.2291
   29SAPC  H10S 3872   0.798   1.899   7.898 -2.1679  2.6375 -0.8331
   29SAPC  C211 3873   0.927   1.781   7.767 -0.2950 -0.3370 -0.3303
   29SAPC  H11R 3874   0.949   1.766   7.660 -1.9432 -3.6987 -0.3451
   29SAPC  C212 3875   0.992   1.716   7.860  0.4247  0.1645 -0.3175
   29SAPC  H12R 3876   1.070   1.647   7.823  0.0510 -0.6514  0.3706
   29SAPC  C213 3877   0.972   1.725   8.012 -0.1326 -0.1994  0.5708
   29SAPC  H13R 3878   0.949   1.833   8.022 -0.4745 -0.0322 -1.5985
   29SAPC  H13S 3879   1.057   1.723   8.084  0.3031  0.6456  0.0899
   29SAPC  C214 3880   0.855   1.641   8.060 -0.6201 -0.4434  0.2812
   29SAPC  H14R 3881   0.756   1.682   8.039 -0.5596  1.1812  2.7993
   29SAPC  C215 3882   0.855   1.541   8.149  0.3901 -0.3767  0.4023
   29SAPC  H15R 3883   0.758   1.495   8.177 -0.4906  0.5981 -0.9086
   29SAPC  C216 3884   0.980   1.480   8.201 -0.5025  0.1502 -0.4405
   29SAPC  H16R 3885   1.056   1.461   8.122 -1.0109  1.1004 -1.1790
   29SAPC  H16S 3886   0.963   1.376   8.236  0.1538  0.5765  1.2485
   29SAPC  C217 3887   1.043   1.550   8.324 -0.7314  0.7526  1.0462
   29SAPC  H17R 3888   1.091   1.644   8.288  0.9067 -0.9292 -1.5565
   29SAPC  H17S 3889   1.135   1.492   8.347 -0.6665  0.4041 -0.0362
   29SAPC  C218 3890   0.952   1.570   8.441  0.5826 -0.5347 -0.1223
   29SAPC  H18R 3891   0.951   1.478   8.503 -0.3722  0.5923  1.6225
   29SAPC  H18S 3892   0.848   1.591   8.409  0.7916  2.9725  0.9996
   29SAPC  C219 3893   0.998   1.689   8.532 -0.0337 -0.7157 -0.2537
   29SAPC  H19R 3894   0.923   1.693   8.614  0.0009 -0.7940 -0.2183
   29SAPC  H19S 3895   0.996   1.782   8.471  0.4530  0.1922  1.0645
   29SAPC  C220 3896   1.136   1.684   8.596  0.1624 -0.3385  1.1320
   29SAPC  H20R 3897   1.157   1.577   8.621  1.3562 -0.3194  0.3058
   29SAPC  H20S 3898   1.142   1.746   8.688 -0.8034  0.7576  0.4737
   29SAPC  H20T 3899   1.214   1.709   8.520 -1.1574 -0.1873 -0.2101
   29SAPC   C33 3900  -0.080   1.604   6.662 -0.7636  0.8692  0.5462
   29SAPC   H3X 3901  -0.085   1.494   6.679 -2.1584  0.2592 -2.9096
   29SAPC   H3Y 3902  -0.089   1.620   6.553  0.6483  0.7204  0.3883
   29SAPC   C34 3903  -0.204   1.661   6.748 -0.4790  0.3467  0.3247
   29SAPC   H4X 3904  -0.290   1.622   6.689 -0.1917 -0.4208  0.4050
   29SAPC   H4Y 3905  -0.205   1.772   6.746  0.1847  0.3833 -2.0547
   29SAPC   C35 3906  -0.195   1.621   6.895 -0.9915 -0.5776  0.3269
   29SAPC   H5X 3907  -0.103   1.654   6.948 -0.4620 -2.8513  0.9121
   29SAPC   H5Y 3908  -0.192   1.510   6.901  1.4916 -0.5393  0.7752
   29SAPC   C36 3909  -0.315   1.676   6.974  0.8224 -0.1358  0.1009
   29SAPC   H6X 3910  -0.399   1.633   6.916  0.1368 -1.0215  1.6904
   29SAPC   H6Y 3911  -0.331   1.784   6.956 -2.1604 -0.4563  0.3556
   29SAPC   C37 3912  -0.331   1.628   7.118  0.3596  0.4987 -0.8200
   29SAPC   H7X 3913  -0.363   1.522   7.114 -0.3723  0.5359  2.1867
   29SAPC   H7Y 3914  -0.422   1.675   7.161  1.4989  0.6714  1.5624
   29SAPC   C38 3915  -0.204   1.633   7.207  0.4934 -0.0078  0.6565
   29SAPC   H8X 3916  -0.157   1.734   7.205  1.7400 -0.5945 -0.8431
   29SAPC   H8Y 3917  -0.135   1.570   7.148 -0.5769  0.0472 -0.7070
   29SAPC   C39 3918  -0.223   1.579   7.349  0.1103  0.6437 -0.8037
   29SAPC   H9X 3919  -0.129   1.530   7.380 -0.4647  0.3401  0.5132
   29SAPC   H9Y 3920  -0.304   1.504   7.356  0.0800  0.7726  0.4078
   29SAPC  C310 3921  -0.250   1.689   7.461  0.4853  0.2281  0.3611
   29SAPC  H10X 3922  -0.358   1.712   7.455  0.0858 -1.6985 -0.2987
   29SAPC  H10Y 3923  -0.179   1.772   7.438 -0.3248  0.7472 -0.3277
   29SAPC  C311 3924  -0.225   1.632   7.600  0.4920  0.3355  0.4468
   29SAPC  H11X 3925  -0.149   1.551   7.602  0.3832  0.1207 -1.6862
   29SAPC  H11Y 3926  -0.317   1.594   7.650  0.9764 -0.0481  1.0521
   29SAPC  C312 3927  -0.186   1.742   7.692  0.2665 -1.1987 -0.1374
   29SAPC  H12X 3928  -0.277   1.805   7.694  0.8394 -0.1589 -2.7656
   29SAPC  H12Y 3929  -0.093   1.789   7.653 -0.0175 -1.7091 -1.4760
   29SAPC  C313 3930  -0.140   1.691   7.826 -0.7096  0.2043 -0.3740
   29SAPC  H13X 3931  -0.209   1.612   7.862  2.0667 -2.1213  0.2403
   29SAPC  H13Y 3932  -0.141   1.771   7.903  0.2054  1.7467 -1.8904
   29SAPC  C314 3933  -0.002   1.625   7.829  0.0944  0.0361  0.3734
   29SAPC  H14X 3934   0.081   1.679   7.780  0.3036 -1.0362 -0.5042
   29SAPC  H14Y 3935  -0.015   1.532   7.770 -1.4109  0.9247 -0.7442
   29SAPC  C315 3936   0.045   1.571   7.969  0.3681  0.4713 -0.0463
   29SAPC  H15X 3937   0.125   1.497   7.953 -0.7079 -1.2539  1.9944
   29SAPC  H15Y 3938  -0.042   1.523   8.019 -1.2507  3.3538  0.1196
   29SAPC  C316 3939   0.085   1.681   8.067 -0.0846  0.5112  0.1232
   29SAPC  H16X 3940   0.017   1.769   8.059  0.6646  1.1189  0.3748
   29SAPC  H16Y 3941   0.190   1.706   8.041  0.3751 -1.5134 -0.1785
   29SAPC  C317 3942   0.094   1.634   8.217  0.3450 -0.2899 -0.0087
   29SAPC  H17X 3943   0.177   1.563   8.235 -0.6907 -1.0231  2.3760
   29SAPC  H17Y 3944   0.001   1.576   8.235 -0.8710  0.2134 -3.8185
   29SAPC  C318 3945   0.091   1.753   8.314  0.9414  0.7655  0.7694
   29SAPC  H18X 3946   0.182   1.810   8.285  1.2191  0.3337  0.7794
   29SAPC  H18Y 3947   0.105   1.714   8.417  0.4961 -0.0911  0.5126
   29SAPC  H18Z 3948  -0.003   1.811   8.298  0.8846  1.3300  2.8021
   30SAPC     N 3949   3.513   3.062   6.124 -0.5638 -0.1679 -0.1509
   30SAPC   C12 3950   3.510   3.026   6.277  0.8122  0.0048  0.3285
   30SAPC  H12A 3951   3.549   2.926   6.282  0.6754 -0.0125  1.3476
   30SAPC  H12B 3952   3.405   3.018   6.304  0.9849  0.5103  1.2152
   30SAPC   C13 3953   3.656   3.111   6.086  0.0587 -0.4242  0.6582
   30SAPC  H13A 3954   3.734   3.040   6.111 -0.8472 -1.1615  1.4822
   30SAPC  H13B 3955   3.660   3.107   5.978  0.2564 -0.2177  0.6584
   30SAPC  H13C 3956   3.682   3.209   6.123  0.2551 -0.3588  0.3532
   30SAPC   C14 3957   3.504   2.927   6.053  0.2608 -0.3255 -0.8982
   30SAPC  H14A 3958   3.510   2.943   5.947 -1.2595  1.8034 -0.7230
   30SAPC  H14B 3959   3.581   2.860   6.089 -1.2670 -1.9309 -0.4575
   30SAPC  H14C 3960   3.409   2.882   6.078 -0.4280  0.3699 -2.1893
   30SAPC   C15 3961   3.413   3.164   6.075 -0.4885 -0.1100  0.3873
   30SAPC  H15A 3962   3.421   3.250   6.141  1.4391  1.0980 -1.3165
   30SAPC  H15B 3963   3.431   3.192   5.972  2.3879  0.3194  0.9288
   30SAPC  H15C 3964   3.309   3.139   6.093 -1.2681  1.8856 -0.9814
   30SAPC   C11 3965   3.570   3.131   6.380 -0.1767 -0.0088  0.1215
   30SAPC  H11A 3966   3.680   3.126   6.367  0.0323  2.5455  0.2522
   30SAPC  H11B 3967   3.549   3.106   6.486  0.3445  0.3851  0.3242
   30SAPC     P 3968   3.406   3.335   6.416  0.2155  0.1212  0.2370
   30SAPC   O13 3969   3.402   3.475   6.369 -0.1743 -0.6798 -0.0777
   30SAPC   O14 3970   3.293   3.252   6.372  0.4452 -0.2649 -0.3144
   30SAPC   O12 3971   3.539   3.271   6.352 -0.2329 -0.3776 -0.1023
   30SAPC   O11 3972   3.417   3.321   6.569  0.0933 -0.3528 -1.0990
   30SAPC    C1 3973   3.542   3.366   6.639 -0.6950  0.5937  0.1975
   30SAPC    HA 3974   3.606   3.278   6.662  1.4219  2.1065  0.3825
   30SAPC    HB 3975   3.609   3.436   6.584  2.4233  0.5797  3.6295
   30SAPC    C2 3976   3.506   3.450   6.761  0.7298 -0.0684 -0.5570
   30SAPC    HS 3977   3.596   3.489   6.812  1.3257 -0.9323 -0.9188
   30SAPC   O21 3978   3.416   3.376   6.850 -0.0307 -0.7336 -0.0016
   30SAPC   C21 3979   3.473   3.282   6.918 -0.5557  0.3707  0.8810
   30SAPC   O22 3980   3.593   3.263   6.928 -0.0358 -0.2477  0.6490
   30SAPC   C22 3981   3.373   3.195   6.994  0.0041 -0.4083  0.3072
   30SAPC   H2R 3982   3.266   3.221   6.992 -0.2823 -1.4730  0.7421
   30SAPC   H2S 3983   3.372   3.092   6.951  0.3542 -0.2002 -0.2036
   30SAPC    C3 3984   3.433   3.585   6.703  0.1628 -0.4916  0.5158
   30SAPC    HX 3985   3.337   3.567   6.651  1.1019  1.9689 -2.3658
   30SAPC    HY 3986   3.496   3.633   6.625 -0.7146  0.0983  0.1585
   30SAPC   O31 3987   3.406   3.673   6.819  0.0065 -0.0582  0.7851
   30SAPC   C31 3988   3.337   3.782   6.782 -0.0368  0.3169 -0.4437
   30SAPC   O32 3989   3.290   3.798   6.671 -0.5247 -0.1014 -0.0666
   30SAPC   C32 3990   3.315   3.873   6.909 -0.1762  0.2867  0.6589
   30SAPC   H2X 3991   3.364   3.966   6.874  1.6333 -0.4745  1.0924
   30SAPC   H2Y 3992   3.382   3.829   6.986 -0.2538 -0.5540  0.2561
   30SAPC   C23 3993   3.409   3.188   7.146 -0.0324 -0.2558  0.0523
   30SAPC   H3R 3994   3.429   3.295   7.168  1.2983 -0.9752  2.7692
   30SAPC   H3S 3995   3.494   3.122   7.171  0.3307  0.0200 -0.4374
   30SAPC   C24 3996   3.299   3.127   7.231  0.2962 -0.3198 -0.5057
   30SAPC   H4R 3997   3.195   3.145   7.197 -0.8976 -4.7305  0.1195
   30SAPC   H4S 3998   3.323   3.162   7.334  0.7944  1.3277 -1.1498
   30SAPC   C25 3999   3.298   2.981   7.220  0.6126  0.5170  0.0908
   30SAPC   H5R 4000   3.342   2.953   7.123  0.1311 -0.3086  0.0992
   30SAPC   C26 4001   3.265   2.895   7.318 -0.1711  0.2071 -0.0440
   30SAPC   H6R 4002   3.270   2.788   7.290  1.3613  0.5158 -1.0597
   30SAPC   C27 4003   3.224   2.944   7.454  0.1429  0.6436  0.0027
   30SAPC   H7R 4004   3.149   3.026   7.446 -0.4371  0.2976  1.6067
   30SAPC   H7S 4005   3.310   2.994   7.502 -0.5667  2.8641 -0.9197
   30SAPC   C28 4006   3.153   2.844   7.543  0.4718  0.9069 -0.1571
   30SAPC   H8R 4007   3.066   2.799   7.492  1.4875 -0.9883 -0.3232
   30SAPC   C29 4008   3.178   2.823   7.671 -0.6355 -0.2909 -0.3293
   30SAPC   H9R 4009   3.109   2.760   7.730 -1.1310  0.1691 -0.4053
   30SAPC  C210 4010   3.280   2.887   7.758  0.1771 -0.3248  0.1355
   30SAPC  H10R 4011   3.240   2.982   7.797 -0.2366 -1.4385  2.5923
   30SAPC  H10S 4012   3.371   2.903   7.697  0.1259 -2.7430 -0.6895
   30SAPC  C211 4013   3.314   2.795   7.869  0.2115  0.0652 -0.0102
   30SAPC  H11R 4014   3.387   2.716   7.846 -1.0155 -1.8479  2.1713
   30SAPC  C212 4015   3.260   2.797   7.996 -0.0181 -0.9030  1.4408
   30SAPC  H12R 4016   3.298   2.725   8.070 -2.3698 -1.7741  1.8585
   30SAPC  C213 4017   3.161   2.896   8.045 -0.6865  0.4706  0.4589
   30SAPC  H13R 4018   3.131   2.965   7.964 -0.1820  0.4599  0.2604
   30SAPC  H13S 4019   3.214   2.965   8.114 -0.4289  1.9412 -1.1498
   30SAPC  C214 4020   3.047   2.811   8.096 -0.4059 -0.0788 -0.3738
   30SAPC  H14R 4021   3.019   2.728   8.030 -0.7387  1.4248 -2.2103
   30SAPC  C215 4022   2.973   2.845   8.213 -0.5545 -0.2517 -0.2724
   30SAPC  H15R 4023   2.883   2.791   8.246  0.4775 -1.9260 -0.0610
   30SAPC  C216 4024   3.001   2.974   8.295  0.6046 -0.2722  0.2019
   30SAPC  H16R 4025   2.945   3.056   8.245  0.1872 -0.6245  0.0871
   30SAPC  H16S 4026   3.108   3.002   8.289  0.4070  0.1962 -2.3417
   30SAPC  C217 4027   2.959   2.954   8.440 -0.0350  0.8284  0.4190
   30SAPC  H17R 4028   3.046   2.998   8.494  0.6873  1.7316 -1.3703
   30SAPC  H17S 4029   2.948   2.846   8.463 -1.2653  1.0012  0.7029
   30SAPC  C218 4030   2.826   3.035   8.469  0.0828 -0.9589 -0.0811
   30SAPC  H18R 4031   2.745   3.010   8.397 -0.6647  0.9478  0.0499
   30SAPC  H18S 4032   2.858   3.138   8.442  0.3724 -0.7971  0.8325
   30SAPC  C219 4033   2.773   3.036   8.616 -0.1044  0.9129  1.0175
   30SAPC  H19R 4034   2.819   3.121   8.670 -0.6268  2.5409 -0.9835
   30SAPC  H19S 4035   2.803   2.940   8.665  1.1831  0.0748 -1.2697
   30SAPC  C220 4036   2.615   3.060   8.614  0.1346 -0.3811 -0.3182
   30SAPC  H20R 4037   2.563   3.070   8.712 -1.8032 -1.6966 -1.1653
   30SAPC  H20S 4038   2.571   2.972   8.563 -0.9158 -0.0214 -0.0534
   30SAPC  H20T 4039   2.605   3.156   8.559  0.7270 -1.1295 -1.7734
   30SAPC   C33 4040   3.172   3.897   6.946  0.3733 -0.1313 -0.8266
   30SAPC   H3X 4041   3.124   3.797   6.948  0.9252 -0.3881  0.1117
   30SAPC   H3Y 4042   3.117   3.946   6.863 -1.5134 -2.1879 -0.8874
   30SAPC   C34 4043   3.145   3.965   7.077 -0.3057  1.0006 -1.3638
   30SAPC   H4X 4044   3.041   4.006   7.080  0.1874  2.3568  2.0739
   30SAPC   H4Y 4045   3.207   4.057   7.089 -0.5512  0.9058  1.1835
   30SAPC   C35 4046   3.175   3.878   7.198 -0.1254  0.4676  0.6855
   30SAPC   H5X 4047   3.280   3.844   7.208 -0.4857 -1.2906 -1.0846
   30SAPC   H5Y 4048   3.104   3.793   7.188 -2.0177  1.9003  1.4169
   30SAPC   C36 4049   3.156   3.958   7.324 -0.3058 -0.1472 -0.2175
   30SAPC   H6X 4050   3.054   4.004   7.323  1.2889  3.7716  0.3706
   30SAPC   H6Y 4051   3.223   4.046   7.326 -0.2517 -0.1859  1.1751
   30SAPC   C37 4052   3.189   3.882   7.458 -0.3267 -0.0718 -0.6174
   30SAPC   H7X 4053   3.298   3.863   7.452  0.0128  2.0180 -2.8296
   30SAPC   H7Y 4054   3.137   3.784   7.456 -1.3256  0.4535 -1.6678
   30SAPC   C38 4055   3.152   3.957   7.583 -0.3126  0.0759  0.0447
   30SAPC   H8X 4056   3.043   3.977   7.579 -0.9064 -2.4176  1.3734
   30SAPC   H8Y 4057   3.210   4.049   7.602  0.3067 -0.5104  1.0878
   30SAPC   C39 4058   3.168   3.879   7.712 -0.1868  0.1227  0.5837
   30SAPC   H9X 4059   3.267   3.829   7.705 -0.0602  0.6236 -2.1877
   30SAPC   H9Y 4060   3.088   3.803   7.722  1.3780 -1.6761  0.0083
   30SAPC  C310 4061   3.169   3.977   7.831 -1.0279  0.2200  0.0537
   30SAPC  H10X 4062   3.080   4.044   7.831 -0.7810  0.5520  0.6725
   30SAPC  H10Y 4063   3.265   4.031   7.827 -1.3463  0.7180 -1.6865
   30SAPC  C311 4064   3.163   3.892   7.957  0.3483 -0.7909 -0.3668
   30SAPC  H11X 4065   3.243   3.816   7.954  1.3812  0.2347  0.5533
   30SAPC  H11Y 4066   3.068   3.835   7.955 -0.9843  1.1880  1.4691
   30SAPC  C312 4067   3.189   3.986   8.081 -0.8592  0.0075  0.1875
   30SAPC  H12X 4068   3.126   4.076   8.067 -2.4030 -1.1018 -0.3087
   30SAPC  H12Y 4069   3.295   4.016   8.065 -0.5862 -2.3361 -3.6721
   30SAPC  C313 4070   3.152   3.917   8.218 -0.4892  0.3061  0.0066
   30SAPC  H13X 4071   3.057   3.861   8.206  0.9351 -2.0191 -1.2385
   30SAPC  H13Y 4072   3.155   4.005   8.286 -1.0067  1.6295 -1.6439
   30SAPC  C314 4073   3.264   3.828   8.276 -0.0755 -0.0142  0.7176
   30SAPC  H14X 4074   3.286   3.746   8.204 -1.6822  0.7500 -0.7473
   30SAPC  H14Y 4075   3.216   3.778   8.362  1.0801 -1.6230  0.4673
   30SAPC  C315 4076   3.389   3.906   8.316 -0.0536  0.4007 -0.2942
   30SAPC  H15X 4077   3.354   3.980   8.392 -1.8420 -0.6136 -0.0685
   30SAPC  H15Y 4078   3.427   3.964   8.229 -0.5822  1.9600  0.4591
   30SAPC  C316 4079   3.498   3.823   8.386 -0.9386 -0.3977  0.4964
   30SAPC  H16X 4080   3.482   3.716   8.360  0.5585 -0.4540 -0.3487
   30SAPC  H16Y 4081   3.484   3.839   8.495 -0.1031  0.2479  0.5184
   30SAPC  C317 4082   3.638   3.870   8.342  0.1424  0.4495  0.4902
   30SAPC  H17X 4083   3.709   3.834   8.419  1.0842 -1.3324 -1.1004
   30SAPC  H17Y 4084   3.633   3.980   8.340  0.0246  0.4549 -1.8666
   30SAPC  C318 4085   3.679   3.808   8.205  0.3668 -0.8897  0.3602
   30SAPC  H18X 4086   3.713   3.702   8.205  1.7264 -0.6048 -3.3938
   30SAPC  H18Y 4087   3.781   3.850   8.186  0.4225 -0.5351  1.4080
   30SAPC  H18Z 4088   3.605   3.826   8.124 -1.0264  0.7597  1.9264
   31SAPC     N 4089   1.613   2.810   6.201  0.4228 -0.1356 -0.0614
   31SAPC   C12 4090   1.558   2.848   6.339  0.6778 -0.7445  0.0167
   31SAPC  H12A 4091   1.478   2.777   6.354  0.8979 -1.3928 -1.6864
   31SAPC  H12B 4092   1.520   2.947   6.318  1.4268 -0.6415 -0.9091
   31SAPC   C13 4093   1.504   2.766   6.109  0.0788  0.0387 -0.3300
   31SAPC  H13A 4094   1.539   2.716   6.021 -0.7831 -1.9898  0.4313
   31SAPC  H13B 4095   1.456   2.684   6.160 -2.8860  2.6560  1.4624
   31SAPC  H13C 4096   1.430   2.844   6.093  1.0834  1.4947  1.5777
   31SAPC   C14 4097   1.688   2.913   6.143 -0.5280 -0.3609 -0.8607
   31SAPC  H14A 4098   1.767   2.965   6.196 -2.6953  0.3962  1.8304
   31SAPC  H14B 4099   1.748   2.871   6.063  0.2943  0.5231 -0.7382
   31SAPC  H14C 4100   1.629   2.983   6.086 -0.1558  1.8729  1.3550
   31SAPC   C15 4101   1.701   2.692   6.223  0.0539 -0.6084  0.4427
   31SAPC  H15A 4102   1.646   2.608   6.263  0.7254 -1.6583 -0.7559
   31SAPC  H15B 4103   1.753   2.665   6.133 -0.8812  0.7398 -0.5466
   31SAPC  H15C 4104   1.783   2.728   6.283  0.5775  2.2733 -1.7487
   31SAPC   C11 4105   1.646   2.854   6.460  0.5262 -0.2506  0.7210
   31SAPC  H11A 4106   1.707   2.762   6.452  0.4754 -0.1153 -3.2242
   31SAPC  H11B 4107   1.584   2.853   6.552  0.1592 -3.2461  0.5403
   31SAPC     P 4108   1.662   3.115   6.447 -0.1883  0.1813 -0.0607
   31SAPC   O13 4109   1.733   3.190   6.340  0.2716  0.4491  0.0662
   31SAPC   O14 4110   1.514   3.105   6.453  0.2028 -0.0634  1.0194
   31SAPC   O12 4111   1.730   2.968   6.449  0.0633  0.7402  0.1749
   31SAPC   O11 4112   1.710   3.165   6.582  0.0434 -0.5904 -0.2190
   31SAPC    C1 4113   1.848   3.192   6.614 -0.6541 -0.6106 -0.6223
   31SAPC    HA 4114   1.898   3.112   6.673 -2.1188 -1.7448 -0.8528
   31SAPC    HB 4115   1.912   3.202   6.524 -0.2697  0.1526 -0.2716
   31SAPC    C2 4116   1.863   3.319   6.704 -0.0801 -0.4734 -0.1010
   31SAPC    HS 4117   1.966   3.325   6.746  0.1980 -1.0223 -0.6780
   31SAPC   O21 4118   1.762   3.318   6.803 -0.5335 -0.1798 -0.1323
   31SAPC   C21 4119   1.804   3.248   6.916 -0.7365 -0.6119 -0.0683
   31SAPC   O22 4120   1.915   3.205   6.938 -0.2527  0.3126  0.4179
   31SAPC   C22 4121   1.700   3.265   7.027 -0.3128 -0.0803  0.0267
   31SAPC   H2R 4122   1.665   3.370   7.013 -0.0082  0.1080  0.6319
   31SAPC   H2S 4123   1.611   3.199   7.020 -1.9004  1.7637  1.3583
   31SAPC    C3 4124   1.847   3.449   6.619  0.7756 -0.8676  0.1457
   31SAPC    HX 4125   1.747   3.444   6.572 -1.2152 -0.7233  3.9188
   31SAPC    HY 4126   1.932   3.452   6.548  0.3408 -0.0296 -0.3437
   31SAPC   O31 4127   1.845   3.570   6.704 -0.4870  0.1720  0.1936
   31SAPC   C31 4128   1.960   3.607   6.766  0.2384 -0.2712 -0.3782
   31SAPC   O32 4129   2.069   3.559   6.733  0.2977 -0.5648  0.0230
   31SAPC   C32 4130   1.938   3.723   6.859  0.2632 -0.1609 -0.8688
   31SAPC   H2X 4131   1.878   3.672   6.937  0.1557  0.8228 -0.2833
   31SAPC   H2Y 4132   1.884   3.804   6.805 -4.2701 -1.6496  0.9762
   31SAPC   C23 4133   1.757   3.246   7.168  0.5859  0.0475  0.9110
   31SAPC   H3R 4134   1.804   3.146   7.176 -0.3610 -0.4298  0.7211
   31SAPC   H3S 4135   1.670   3.236   7.237  1.7009 -0.4613  2.2790
   31SAPC   C24 4136   1.852   3.362   7.220  0.2897 -0.2657 -0.2866
   31SAPC   H4R 4137   1.950   3.352   7.169  1.4416  1.8246  1.3341
   31SAPC   H4S 4138   1.879   3.325   7.321 -1.1978 -1.5759 -0.3226
   31SAPC   C25 4139   1.786   3.499   7.218 -0.5631 -0.3158  0.1085
   31SAPC   H5R 4140   1.811   3.558   7.129 -2.0571 -0.9210 -0.7537
   31SAPC   C26 4141   1.707   3.558   7.311 -0.6850  0.1949 -0.7503
   31SAPC   H6R 4142   1.693   3.664   7.286  0.8789  0.2731 -1.4680
   31SAPC   C27 4143   1.676   3.495   7.444  0.5848 -0.2306  0.1669
   31SAPC   H7R 4144   1.718   3.393   7.446  4.7907  1.2907 -0.5227
   31SAPC   H7S 4145   1.567   3.473   7.443  0.7428 -1.1344 -1.7543
   31SAPC   C28 4146   1.702   3.582   7.562 -0.2438  0.4483  0.1253
   31SAPC   H8R 4147   1.668   3.686   7.550 -2.2038 -0.3193 -1.6846
   31SAPC   C29 4148   1.773   3.546   7.665 -0.5451 -0.3183 -0.9898
   31SAPC   H9R 4149   1.795   3.624   7.739 -4.4232  2.0072 -2.0112
   31SAPC  C210 4150   1.840   3.413   7.697  0.2420 -0.3305  0.0346
   31SAPC  H10R 4151   1.934   3.452   7.741 -0.7671  1.7588  0.4490
   31SAPC  H10S 4152   1.863   3.367   7.599  0.0824  0.9546 -0.6198
   31SAPC  C211 4153   1.773   3.313   7.779  0.8840  0.5300 -0.1369
   31SAPC  H11R 4154   1.754   3.218   7.727 -0.3165 -0.8025  2.4981
   31SAPC  C212 4155   1.718   3.338   7.898  0.1850  0.5460 -0.2959
   31SAPC  H12R 4156   1.682   3.252   7.956 -0.6642  1.1824  0.1463
   31SAPC  C213 4157   1.716   3.471   7.975  0.0756  0.3632  0.1191
   31SAPC  H13R 4158   1.639   3.448   8.052 -0.9269  1.0947 -0.6351
   31SAPC  H13S 4159   1.669   3.550   7.913  0.4479  0.6855  0.2349
   31SAPC  C214 4160   1.842   3.519   8.032  0.1424  0.1839  0.4886
   31SAPC  H14R 4161   1.933   3.458   8.020 -0.5194 -0.7058 -0.1739
   31SAPC  C215 4162   1.853   3.642   8.092  0.5474  0.2309 -0.8254
   31SAPC  H15R 4163   1.952   3.671   8.129 -0.0507  0.4661  0.6457
   31SAPC  C216 4164   1.750   3.742   8.107  0.5329 -0.8459 -0.2435
   31SAPC  H16R 4165   1.650   3.717   8.065 -0.4623  2.0370  0.1682
   31SAPC  H16S 4166   1.769   3.827   8.038 -2.4683 -1.0252 -1.4216
   31SAPC  C217 4167   1.732   3.788   8.250 -0.5105 -0.1277  0.1408
   31SAPC  H17R 4168   1.826   3.835   8.285  1.7916 -2.5835 -2.3242
   31SAPC  H17S 4169   1.687   3.707   8.312 -0.5915 -0.5582 -0.4792
   31SAPC  C218 4170   1.620   3.902   8.260  0.3589  0.1075  0.3489
   31SAPC  H18R 4171   1.526   3.856   8.224 -0.0218  1.4825 -0.4520
   31SAPC  H18S 4172   1.647   3.987   8.194 -1.8338  1.5783  1.2361
   31SAPC  C219 4173   1.594   3.950   8.406 -0.3385 -0.1976 -0.0606
   31SAPC  H19R 4174   1.534   4.042   8.394  0.2005 -0.1442 -3.2661
   31SAPC  H19S 4175   1.693   3.966   8.453 -0.1840 -3.6394  1.0874
   31SAPC  C220 4176   1.512   3.858   8.483 -0.3589  0.2873  0.0197
   31SAPC  H20R 4177   1.564   3.760   8.479 -3.0932 -1.2168 -2.2390
   31SAPC  H20S 4178   1.416   3.836   8.431  0.2235  0.5827 -1.2269
   31SAPC  H20T 4179   1.496   3.895   8.586  0.1791 -1.1851  0.6516
   31SAPC   C33 4180   2.069   3.772   6.924  0.4411 -0.3055 -0.7304
   31SAPC   H3X 4181   2.062   3.873   6.968 -1.9426 -0.1175 -1.4399
   31SAPC   H3Y 4182   2.157   3.771   6.856  0.7008 -1.1136 -0.4035
   31SAPC   C34 4183   2.109   3.689   7.058  0.2111 -0.3450 -0.2489
   31SAPC   H4X 4184   2.220   3.678   7.060  0.0192 -2.5135 -0.0384
   31SAPC   H4Y 4185   2.068   3.587   7.049 -1.6242  0.3120  0.1712
   31SAPC   C35 4186   2.057   3.753   7.187 -0.7600  0.0849  0.5716
   31SAPC   H5X 4187   1.947   3.763   7.191 -0.5985  4.4126 -0.8568
   31SAPC   H5Y 4188   2.098   3.856   7.183  2.1387 -1.0125 -0.6717
   31SAPC   C36 4189   2.120   3.673   7.296 -0.2945  0.1297  0.0358
   31SAPC   H6X 4190   2.231   3.670   7.292 -0.1909  1.6861  0.6887
   31SAPC   H6Y 4191   2.078   3.571   7.299 -2.3065  0.7974 -2.0648
   31SAPC   C37 4192   2.088   3.734   7.434 -0.4712  0.4687 -0.3628
   31SAPC   H7X 4193   1.978   3.734   7.449 -0.3785  0.2067  0.3298
   31SAPC   H7Y 4194   2.116   3.842   7.431  0.6030  0.2011 -0.2440
   31SAPC   C38 4195   2.169   3.664   7.542  0.3453  0.3593  0.4925
   31SAPC   H8X 4196   2.278   3.676   7.522  0.5770  0.7103  1.8593
   31SAPC   H8Y 4197   2.138   3.558   7.551 -0.3513  0.5433  0.2942
   31SAPC   C39 4198   2.138   3.708   7.687  0.1615  0.6399 -0.1952
   31SAPC   H9X 4199   2.032   3.690   7.716  0.2840  1.5789  0.9152
   31SAPC   H9Y 4200   2.155   3.818   7.689  3.6503  0.2036 -0.6587
   31SAPC  C310 4201   2.237   3.649   7.787  0.2054 -0.5311  0.2285
   31SAPC  H10X 4202   2.338   3.692   7.770  0.2952 -1.1108 -0.7399
   31SAPC  H10Y 4203   2.249   3.540   7.770  0.4628 -0.5174  0.3175
   31SAPC  C311 4204   2.186   3.669   7.936  0.3882 -0.6288  0.0557
   31SAPC  H11X 4205   2.089   3.617   7.951  0.4820 -0.4005  1.6512
   31SAPC  H11Y 4206   2.162   3.778   7.937  1.0691 -0.4678 -0.6928
   31SAPC  C312 4207   2.285   3.625   8.053 -0.4599 -0.3611 -0.3139
   31SAPC  H12X 4208   2.387   3.646   8.016 -0.8132  1.7655 -0.2559
   31SAPC  H12Y 4209   2.269   3.517   8.070  0.4830 -0.1061  2.9591
   31SAPC  C313 4210   2.253   3.696   8.183  0.0127  0.3009 -0.0744
   31SAPC  H13X 4211   2.157   3.660   8.226 -0.1675  1.1322  0.2517
   31SAPC  H13Y 4212   2.230   3.802   8.159 -3.7163 -0.4424 -0.4644
   31SAPC  C314 4213   2.355   3.669   8.299  0.2982 -0.3317  0.0395
   31SAPC  H14X 4214   2.457   3.696   8.263  1.1606 -2.0770  1.0117
   31SAPC  H14Y 4215   2.353   3.561   8.324 -0.7625 -0.1608  0.7466
   31SAPC  C315 4216   2.332   3.747   8.425  0.1951  0.4493  0.1896
   31SAPC  H15X 4217   2.348   3.854   8.400 -1.3710  0.7415  0.3036
   31SAPC  H15Y 4218   2.410   3.718   8.499 -2.4871 -1.2146  2.5984
   31SAPC  C316 4219   2.189   3.746   8.487 -0.4914  0.8335 -0.5038
   31SAPC  H16X 4220   2.113   3.770   8.410  0.4609 -1.9403 -2.4641
   31SAPC  H16Y 4221   2.177   3.827   8.562 -0.7808  0.6098 -0.3051
   31SAPC  C317 4222   2.149   3.610   8.548  0.0969 -0.8767 -0.2192
   31SAPC  H17X 4223   2.205   3.593   8.642  0.7426 -2.3061 -0.8216
   31SAPC  H17Y 4224   2.185   3.533   8.477  0.0017  0.3855 -1.6901
   31SAPC  C318 4225   1.999   3.603   8.585  0.7557  0.2774  0.2494
   31SAPC  H18X 4226   1.986   3.508   8.641  0.6561  0.8508  1.2042
   31SAPC  H18Y 4227   1.935   3.601   8.494  2.0136 -0.2754 -0.6537
   31SAPC  H18Z 4228   1.961   3.677   8.658 -0.0768  0.3032 -0.1953
   32SAPC     N 4229   3.900   5.399   6.517  0.0830 -0.1027  0.1955
   32SAPC   C12 4230   3.933   5.256   6.483  0.2175 -0.3011  0.4782
   32SAPC  H12A 4231   3.843   5.201   6.457  1.6538 -1.5132 -2.5072
   32SAPC  H12B 4232   3.978   5.210   6.570  0.5379  0.0753  0.5136
   32SAPC   C13 4233   3.805   5.462   6.415  0.3344  0.4907 -0.6705
   32SAPC  H13A 4234   3.811   5.570   6.419 -0.0262  0.5451 -1.5871
   32SAPC  H13B 4235   3.832   5.438   6.314  0.4361  1.5057 -0.8972
   32SAPC  H13C 4236   3.702   5.433   6.428  0.7634  0.0795  2.9330
   32SAPC   C14 4237   3.834   5.418   6.658 -0.0953 -0.0031  0.0147
   32SAPC  H14A 4238   3.748   5.353   6.670 -0.5576 -0.0403 -2.8848
   32SAPC  H14B 4239   3.906   5.401   6.737 -0.7068 -1.3604  0.3078
   32SAPC  H14C 4240   3.796   5.519   6.662  0.5596  0.2127  1.9371
   32SAPC   C15 4241   4.021   5.494   6.515  0.2867  0.4780 -0.3232
   32SAPC  H15A 4242   4.082   5.467   6.600 -1.2196 -1.0884  0.3374
   32SAPC  H15B 4243   4.085   5.477   6.429  0.2593  2.0805 -0.6923
   32SAPC  H15C 4244   3.993   5.597   6.526  1.0528  0.9667 -2.4948
   32SAPC   C11 4245   4.031   5.235   6.358  0.0316  0.7925  0.2992
   32SAPC  H11A 4246   4.003   5.301   6.273 -0.3629 -0.5631 -0.6560
   32SAPC  H11B 4247   4.018   5.132   6.317  1.0560  0.5700  0.4864
   32SAPC     P 4248   4.261   5.152   6.459 -0.0782  0.0359 -0.0942
   32SAPC   O13 4249   4.308   5.047   6.364  0.0767 -0.1218  0.2896
   32SAPC   O14 4250   4.367   5.223   6.534 -0.5668 -0.1860  0.4904
   32SAPC   O12 4251   4.171   5.259   6.384  0.3063  0.2324  0.1659
   32SAPC   O11 4252   4.154   5.097   6.562  0.5433  0.1102  0.2657
   32SAPC    C1 4253   4.183   5.010   6.669 -0.1588  1.0382 -0.6017
   32SAPC    HA 4254   4.145   4.909   6.641  0.6182 -0.1202  2.1342
   32SAPC    HB 4255   4.292   4.998   6.684 -0.5964 -1.4910  1.1804
   32SAPC    C2 4256   4.121   5.068   6.800 -0.3109  0.4127  0.2116
   32SAPC    HS 4257   4.024   5.108   6.763 -0.3407  0.3221  0.1913
   32SAPC   O21 4258   4.214   5.173   6.850  0.2033 -0.4490 -0.7461
   32SAPC   C21 4259   4.160   5.263   6.929  0.1010 -0.2081 -0.4769
   32SAPC   O22 4260   4.040   5.277   6.939  0.1583  0.0230  0.1237
   32SAPC   C22 4261   4.270   5.346   7.000 -0.1429 -0.3669  0.0054
   32SAPC   H2R 4262   4.369   5.304   6.971 -0.1216  0.5693 -1.3830
   32SAPC   H2S 4263   4.265   5.451   6.965 -1.9405 -0.8050 -1.2061
   32SAPC    C3 4264   4.086   4.973   6.916  0.3950 -0.2567 -0.0582
   32SAPC    HX 4265   3.999   4.912   6.886 -0.2628  0.0047  1.2381
   32SAPC    HY 4266   4.049   5.032   7.003 -0.7669 -0.0025 -0.7107
   32SAPC   O31 4267   4.200   4.892   6.954  0.0277  0.2643  0.2543
   32SAPC   C31 4268   4.182   4.806   7.051  0.0047  0.1226  0.4309
   32SAPC   O32 4269   4.078   4.789   7.111  0.1290 -0.3394 -0.2423
   32SAPC   C32 4270   4.308   4.720   7.066 -0.2894 -0.4380  0.1021
   32SAPC   H2X 4271   4.398   4.780   7.040 -0.8010  0.7025  0.9042
   32SAPC   H2Y 4272   4.322   4.632   6.999  2.6200  0.8178 -1.1356
   32SAPC   C23 4273   4.241   5.317   7.153  0.2247 -0.1366 -0.1368
   32SAPC   H3R 4274   4.135   5.340   7.175  0.0019 -1.6210  0.4266
   32SAPC   H3S 4275   4.299   5.385   7.219 -1.8977  0.4532  1.2017
   32SAPC   C24 4276   4.283   5.176   7.196 -0.3812  0.8124  0.0974
   32SAPC   H4R 4277   4.203   5.110   7.155 -0.6366  0.9918  0.3003
   32SAPC   H4S 4278   4.269   5.180   7.307  1.2416 -2.3986  0.5546
   32SAPC   C25 4279   4.415   5.106   7.160  0.0108 -0.0265  0.5585
   32SAPC   H5R 4280   4.430   5.087   7.053  0.1643  1.7373  0.2361
   32SAPC   C26 4281   4.525   5.097   7.243  0.3659 -0.8359  0.3670
   32SAPC   H6R 4282   4.618   5.040   7.231  0.8829 -0.2939  1.5366
   32SAPC   C27 4283   4.517   5.149   7.390 -0.7770  0.7970  0.6512
   32SAPC   H7R 4284   4.610   5.111   7.437 -0.5919  0.5725  0.1096
   32SAPC   H7S 4285   4.427   5.109   7.442 -1.3036  1.2348  0.0947
   32SAPC   C28 4286   4.510   5.298   7.416 -0.3772 -0.2930  0.7060
   32SAPC   H8R 4287   4.508   5.350   7.319  0.7650 -0.3841  0.6239
   32SAPC   C29 4288   4.534   5.359   7.532  0.0372  0.0763  0.3653
   32SAPC   H9R 4289   4.514   5.466   7.549 -2.5990 -0.6426  2.6145
   32SAPC  C210 4290   4.557   5.287   7.659  0.2954  0.2011  0.1091
   32SAPC  H10R 4291   4.538   5.178   7.651  0.2452 -0.0988  3.0247
   32SAPC  H10S 4292   4.478   5.315   7.732  0.7246  0.4047  0.4968
   32SAPC  C211 4293   4.693   5.315   7.718 -1.0020  0.2054  0.2346
   32SAPC  H11R 4294   4.775   5.289   7.650 -2.1582  2.6717 -2.3173
   32SAPC  C212 4295   4.729   5.353   7.839  0.2768  0.2285 -1.1836
   32SAPC  H12R 4296   4.835   5.363   7.863 -0.2764 -2.2189  3.4251
   32SAPC  C213 4297   4.635   5.381   7.955  0.0882 -0.7287  0.2623
   32SAPC  H13R 4298   4.531   5.407   7.926  0.1685  1.1257  1.4859
   32SAPC  H13S 4299   4.666   5.484   7.984  0.0737  0.1456 -2.5148
   32SAPC  C214 4300   4.634   5.275   8.062 -0.1415  0.4104  0.4471
   32SAPC  H14R 4301   4.595   5.178   8.027 -0.6542  0.5064  0.7397
   32SAPC  C215 4302   4.659   5.276   8.194 -0.9309 -0.1901  0.2205
   32SAPC  H15R 4303   4.633   5.180   8.241 -1.0722 -0.1262  0.2752
   32SAPC  C216 4304   4.695   5.385   8.293  0.1826  0.0042 -0.1673
   32SAPC  H16R 4305   4.768   5.341   8.365  1.3291  0.3793 -1.0760
   32SAPC  H16S 4306   4.608   5.404   8.360 -1.1687  0.1316 -1.9145
   32SAPC  C217 4307   4.745   5.523   8.245 -0.4149 -0.1093  0.5091
   32SAPC  H17R 4308   4.662   5.583   8.202 -1.2715 -1.7341 -0.2076
   32SAPC  H17S 4309   4.803   5.516   8.150 -0.5370  2.1751  0.2228
   32SAPC  C218 4310   4.818   5.598   8.353  0.3643  0.3501 -0.1185
   32SAPC  H18R 4311   4.911   5.541   8.373  2.3863  3.5960  0.2899
   32SAPC  H18S 4312   4.748   5.606   8.439  0.0565 -0.5236 -0.2738
   32SAPC  C219 4313   4.870   5.740   8.315  0.7462 -0.2986  0.9812
   32SAPC  H19R 4314   4.922   5.732   8.217 -0.8198 -2.5062  0.2418
   32SAPC  H19S 4315   4.944   5.783   8.385  3.3639 -1.4827 -0.9028
   32SAPC  C220 4316   4.749   5.835   8.297  0.0586 -0.0209 -0.3337
   32SAPC  H20R 4317   4.783   5.930   8.250  1.0726 -0.7383 -1.0779
   32SAPC  H20S 4318   4.700   5.846   8.396  0.1222  0.0368 -0.3085
   32SAPC  H20T 4319   4.670   5.807   8.224  1.1904  0.3011 -1.7255
   32SAPC   C33 4320   4.325   4.670   7.211  0.4480  0.4621 -0.6241
   32SAPC   H3X 4321   4.419   4.612   7.224 -0.2637 -0.3176  1.6193
   32SAPC   H3Y 4322   4.245   4.596   7.233 -1.5787  1.7164 -3.2333
   32SAPC   C34 4323   4.324   4.778   7.324  0.1144  0.0536  0.0458
   32SAPC   H4X 4324   4.226   4.830   7.329  0.6286  0.9599  3.8777
   32SAPC   H4Y 4325   4.394   4.859   7.296  0.5999  0.0405  1.1929
   32SAPC   C35 4326   4.365   4.720   7.462 -0.3245  0.1636 -0.4509
   32SAPC   H5X 4327   4.471   4.686   7.457 -0.8252 -1.4994 -0.1561
   32SAPC   H5Y 4328   4.311   4.624   7.473  0.4261 -0.3007 -0.8036
   32SAPC   C36 4329   4.324   4.812   7.578  0.0014 -0.0390 -0.4265
   32SAPC   H6X 4330   4.213   4.810   7.583 -0.0000  1.4850  0.9271
   32SAPC   H6Y 4331   4.359   4.916   7.564  1.5507 -0.6507 -1.4052
   32SAPC   C37 4332   4.387   4.766   7.715  0.2764  0.1213  0.7776
   32SAPC   H7X 4333   4.494   4.791   7.724  0.6408 -1.0865  0.0224
   32SAPC   H7Y 4334   4.384   4.655   7.721 -1.5590  0.0715 -0.2907
   32SAPC   C38 4335   4.308   4.808   7.837  0.1559  0.2944  0.1100
   32SAPC   H8X 4336   4.357   4.748   7.916 -2.2031 -2.2728 -0.2039
   32SAPC   H8Y 4337   4.206   4.764   7.830 -0.0576 -0.2990  4.4157
   32SAPC   C39 4338   4.301   4.960   7.864 -0.4087 -0.1153 -0.3652
   32SAPC   H9X 4339   4.250   5.021   7.785  1.3388  1.6446 -0.2284
   32SAPC   H9Y 4340   4.405   4.997   7.852 -0.8071  0.8955 -0.9301
   32SAPC  C310 4341   4.249   4.992   8.004 -0.0804  0.8723 -0.0073
   32SAPC  H10X 4342   4.149   4.947   8.024  0.5535 -1.0319 -0.8752
   32SAPC  H10Y 4343   4.225   5.099   8.019  0.0052  1.0096 -0.8171
   32SAPC  C311 4344   4.346   4.944   8.116  0.1827  0.1944  1.0277
   32SAPC  H11X 4345   4.447   4.987   8.101  0.1924 -0.1553  0.0443
   32SAPC  H11Y 4346   4.349   4.833   8.108 -0.9900  0.2706 -1.4827
   32SAPC  C312 4347   4.298   4.979   8.262  0.0897 -0.3610  0.3742
   32SAPC  H12X 4348   4.369   4.929   8.331  0.0263  0.0507  0.7409
   32SAPC  H12Y 4349   4.195   4.940   8.280 -0.9642  2.1977  0.3145
   32SAPC  C313 4350   4.279   5.135   8.276 -0.5153  0.2647 -0.9882
   32SAPC  H13X 4351   4.206   5.182   8.207 -2.4951  2.7231  2.4497
   32SAPC  H13Y 4352   4.380   5.174   8.254 -0.6000  1.7148  0.9711
   32SAPC  C314 4353   4.263   5.182   8.427 -0.8122 -0.3112 -0.2986
   32SAPC  H14X 4354   4.333   5.133   8.498 -0.6002  0.7955  0.2921
   32SAPC  H14Y 4355   4.163   5.152   8.464 -0.8737 -0.2407 -0.4078
   32SAPC  C315 4356   4.291   5.335   8.431  0.4011  0.2012  0.1551
   32SAPC  H15X 4357   4.211   5.378   8.367  0.0156 -1.8421 -0.7906
   32SAPC  H15Y 4358   4.393   5.361   8.394  0.5761 -2.7054 -1.6847
   32SAPC  C316 4359   4.280   5.384   8.574  0.1030 -0.1505  0.1962
   32SAPC  H16X 4360   4.311   5.491   8.570  1.6954 -0.5991 -0.6788
   32SAPC  H16Y 4361   4.358   5.337   8.638  0.6487  0.5973  0.1066
   32SAPC  C317 4362   4.136   5.376   8.632  0.2901  0.5393  0.0172
   32SAPC  H17X 4363   4.102   5.271   8.620  1.6838  0.1325 -0.6407
   32SAPC  H17Y 4364   4.064   5.443   8.581 -1.5158  0.0649  1.8306
   32SAPC  C318 4365   4.136   5.410   8.784 -0.2326  0.1099 -0.3459
   32SAPC  H18X 4366   4.180   5.512   8.787 -0.7658  0.3185  0.3408
   32SAPC  H18Y 4367   4.194   5.337   8.845  0.6801 -0.4464 -1.8134
   32SAPC  H18Z 4368   4.035   5.430   8.825  0.4350  2.3866  0.3368
   33POPC     N 4369   1.377   5.252  10.984 -0.0520  0.1101 -0.5473
   33POPC   C12 4370   1.367   5.245  10.834 -0.6169 -1.4675 -0.4101
   33POPC  H12A 4371   1.430   5.328  10.803 -0.1510 -1.6598  0.0082
   33POPC  H12B 4372   1.271   5.288  10.808 -0.8429 -0.3663  1.9667
   33POPC   C13 4373   1.503   5.176  11.018 -0.2157  0.4849  0.6680
   33POPC  H13A 4374   1.522   5.210  11.118 -1.2447  2.5755  0.2122
   33POPC  H13B 4375   1.486   5.070  11.005 -2.1540  0.8192  0.1267
   33POPC  H13C 4376   1.588   5.205  10.959 -0.8903 -1.6656 -1.5270
   33POPC   C14 4377   1.386   5.386  11.039  0.2010  0.2099 -0.2091
   33POPC  H14A 4378   1.294   5.439  11.021 -0.7078 -1.5322 -0.8668
   33POPC  H14B 4379   1.386   5.384  11.147 -0.2164  0.1294 -0.2109
   33POPC  H14C 4380   1.468   5.446  11.002  0.3503  1.4449  1.9285
   33POPC   C15 4381   1.260   5.181  11.033  0.4577  0.5922  0.4560
   33POPC  H15A 4382   1.246   5.091  10.975  1.3685  0.6870  0.0795
   33POPC  H15B 4383   1.181   5.254  11.024  0.3067  0.8420  2.9261
   33POPC  H15C 4384   1.264   5.144  11.135  2.2971 -1.1633 -0.1954
   33POPC   C11 4385   1.386   5.115  10.749  0.5501  0.2392 -0.4695
   33POPC  H11A 4386   1.495   5.093  10.755  0.7838  0.8948 -2.0589
   33POPC  H11B 4387   1.361   5.146  10.646  2.4995  0.6654 -0.8521
   33POPC     P 4388   1.303   4.870  10.701 -0.1033 -0.0537  0.4831
   33POPC   O13 4389   1.200   4.780  10.764  0.2755  0.3403  0.0015
   33POPC   O14 4390   1.432   4.809  10.688  0.3766 -0.7474  0.0546
   33POPC   O12 4391   1.317   4.998  10.792 -0.8208 -0.4963  0.0140
   33POPC   O11 4392   1.248   4.927  10.560  0.2972 -0.1620 -0.3676
   33POPC    C1 4393   1.110   4.951  10.534  0.4909  0.3017  0.3898
   33POPC    HA 4394   1.045   4.861  10.543 -3.1416  2.1807 -3.4009
   33POPC    HB 4395   1.079   5.028  10.608 -0.6911 -0.7467  1.0148
   33POPC    C2 4396   1.080   5.009  10.396  0.1761 -0.5187 -0.3502
   33POPC    HS 4397   0.980   5.056  10.404  1.0363  1.2602  0.6244
   33POPC   O21 4398   1.085   4.905  10.300  0.4406 -0.0157 -0.2588
   33POPC   C21 4399   0.990   4.820  10.306  0.6201  0.2632 -0.0016
   33POPC   O22 4400   0.886   4.830  10.372 -0.0770  0.0420  0.1513
   33POPC   C22 4401   1.030   4.699  10.215 -0.0831  0.2105 -0.0894
   33POPC   H2R 4402   0.945   4.630  10.229  0.1703 -0.3242 -1.0758
   33POPC   H2S 4403   1.117   4.642  10.254 -1.7674 -3.7600 -1.6883
   33POPC    C3 4404   1.172   5.126  10.364 -0.7416 -0.2178  0.0010
   33POPC    HX 4405   1.280   5.101  10.377 -0.5543 -0.4729 -1.7094
   33POPC    HY 4406   1.155   5.213  10.430 -0.1264  0.7238 -1.0407
   33POPC   O31 4407   1.167   5.163  10.226  0.3850  0.4928  0.2008
   33POPC   C31 4408   1.066   5.245  10.185 -0.6797  0.1166  0.1967
   33POPC   O32 4409   0.979   5.289  10.252  0.2705 -1.0123  0.5442
   33POPC   C32 4410   1.099   5.289  10.046 -0.4406 -0.2536 -0.6567
   33POPC   H2X 4411   1.197   5.342  10.043 -0.1280 -0.5529  1.9438
   33POPC   H2Y 4412   1.015   5.356  10.018 -1.0414 -0.7184  0.0053
   33POPC   C23 4413   1.035   4.734  10.063  0.0466  0.1771  0.5936
   33POPC   H3R 4414   1.119   4.805  10.047 -0.3792  1.0650  2.0627
   33POPC   H3S 4415   0.939   4.774  10.024  0.6787  0.0506 -1.1389
   33POPC   C24 4416   1.054   4.601   9.985  0.4791 -0.2863  0.9520
   33POPC   H4R 4417   0.961   4.543  10.003 -0.7238  0.8401 -1.2502
   33POPC   H4S 4418   1.140   4.543  10.025 -0.1219 -0.2997  2.2650
   33POPC   C25 4419   1.069   4.630   9.831  0.6654 -0.1049 -0.1815
   33POPC   H5R 4420   1.160   4.690   9.807  1.1256 -0.1747  1.2856
   33POPC   H5S 4421   0.980   4.694   9.813 -0.5218 -1.0724  1.9004
   33POPC   C26 4422   1.047   4.503   9.739  0.2720  0.2151  0.8251
   33POPC   H6R 4423   0.949   4.458   9.765 -0.0137 -0.4412 -1.2152
   33POPC   H6S 4424   1.129   4.431   9.761  0.9355  0.0473 -1.8760
   33POPC   C27 4425   1.046   4.527   9.591  0.4444 -0.2307  0.3673
   33POPC   H7R 4426   1.141   4.567   9.550  0.8644 -1.4460  0.1017
   33POPC   H7S 4427   0.971   4.605   9.570  3.0354  2.2493 -0.2932
   33POPC   C28 4428   1.001   4.405   9.509 -1.3104 -0.2656  0.0537
   33POPC   H8R 4429   0.902   4.372   9.546 -0.3823 -2.2060  0.9412
   33POPC   H8S 4430   1.076   4.326   9.529 -1.1947 -0.1702 -0.0001
   33POPC   C29 4431   1.000   4.439   9.359  0.2147  0.1137  0.2923
   33POPC   H91 4432   1.062   4.525   9.329  0.5164 -0.1413  0.1794
   33POPC  C210 4433   0.940   4.358   9.271  0.3454  0.5208  0.1589
   33POPC  H101 4434   0.943   4.393   9.167 -3.1671 -2.7391 -1.2456
   33POPC  C211 4435   0.862   4.231   9.290  0.5430 -0.3403 -0.9346
   33POPC  H11R 4436   0.773   4.227   9.224  0.6947 -0.3521 -1.1391
   33POPC  H11S 4437   0.831   4.225   9.397 -0.5030 -2.4457 -1.2852
   33POPC  C212 4438   0.963   4.115   9.266  1.1688 -0.2759 -0.0027
   33POPC  H12R 4439   0.917   4.022   9.305 -0.1170  0.8013  1.1563
   33POPC  H12S 4440   1.066   4.132   9.306  1.0071 -0.5983  0.5716
   33POPC  C213 4441   0.985   4.088   9.117 -0.3522 -0.1431  1.3724
   33POPC  H13R 4442   1.084   4.043   9.095  0.0184  1.2114  0.1810
   33POPC  H13S 4443   1.002   4.185   9.066  1.6029 -0.5163  1.2147
   33POPC  C214 4444   0.865   4.027   9.045 -0.5118  0.2568  0.4796
   33POPC  H14R 4445   0.774   4.082   9.078 -1.4546 -1.8308  1.5002
   33POPC  H14S 4446   0.847   3.923   9.078 -0.3870 -0.0804 -0.4956
   33POPC  C215 4447   0.875   4.026   8.892  0.0649  0.0881  0.2526
   33POPC  H15R 4448   0.934   3.939   8.858  0.2986  0.8229 -1.3460
   33POPC  H15S 4449   0.919   4.124   8.862  0.4743 -0.7375 -2.0447
   33POPC  C216 4450   0.742   4.007   8.819  0.5520  0.6417  0.1310
   33POPC  H16R 4451   0.768   4.006   8.711  1.4680 -2.0684  0.2986
   33POPC  H16S 4452   0.680   4.099   8.828  0.6528  0.6701  0.5766
   33POPC  C217 4453   0.672   3.879   8.862  0.3453  0.0114  0.0051
   33POPC  H17R 4454   0.642   3.886   8.968 -3.9468 -2.9195 -0.7713
   33POPC  H17S 4455   0.747   3.797   8.859 -0.3929 -0.7293  1.3034
   33POPC  C218 4456   0.538   3.853   8.793  0.5691 -0.3611  0.9676
   33POPC  H18R 4457   0.498   3.762   8.841 -0.3118  0.0002  0.9509
   33POPC  H18S 4458   0.554   3.841   8.683 -2.0357  1.1534  0.3069
   33POPC  H18T 4459   0.465   3.932   8.822 -0.9671 -1.5268  0.4034
   33POPC   C33 4460   1.090   5.184   9.932 -0.1711 -0.3775 -0.2768
   33POPC   H3X 4461   1.152   5.095   9.951  0.1250 -0.4243 -1.4064
   33POPC   H3Y 4462   1.128   5.241   9.845  2.7438 -1.2035  0.3715
   33POPC   C34 4463   0.945   5.145   9.895 -0.1523 -0.5122 -0.1165
   33POPC   H4X 4464   0.897   5.245   9.885  2.4590  1.4345  3.8827
   33POPC   H4Y 4465   0.894   5.095   9.980  0.1775 -0.8292 -0.1027
   33POPC   C35 4466   0.939   5.063   9.769 -0.5882  0.0485 -0.2018
   33POPC   H5X 4467   0.833   5.038   9.746  0.0847 -2.9020 -0.4286
   33POPC   H5Y 4468   0.971   4.959   9.789 -1.6714 -0.2074  0.2946
   33POPC   C36 4469   1.021   5.114   9.652 -0.7910  1.0239  0.3379
   33POPC   H6X 4470   1.129   5.123   9.673 -0.2669  1.7273 -2.2688
   33POPC   H6Y 4471   0.985   5.218   9.638 -0.0772  1.3453  0.8141
   33POPC   C37 4472   0.997   5.030   9.527  0.1320 -0.4645  0.1098
   33POPC   H7X 4473   1.020   5.093   9.438  0.6893 -1.4716 -0.4740
   33POPC   H7Y 4474   0.887   5.025   9.517  0.2832 -0.9768 -1.7885
   33POPC   C38 4475   1.075   4.906   9.502 -0.3313  0.3714 -0.6731
   33POPC   H8X 4476   1.040   4.829   9.573  0.7574  0.3399 -0.1630
   33POPC   H8Y 4477   1.182   4.931   9.515  0.5829 -2.6909 -1.5292
   33POPC   C39 4478   1.076   4.852   9.359 -0.2629 -0.3259 -0.2138
   33POPC   H9X 4479   1.148   4.767   9.359 -0.9584 -0.9339 -1.0920
   33POPC   H9Y 4480   1.115   4.934   9.295 -3.0962  0.2289 -1.3792
   33POPC  C310 4481   0.942   4.816   9.296  0.8390  0.8125 -0.2713
   33POPC  H10X 4482   0.871   4.897   9.320 -1.1440 -1.3895  1.9698
   33POPC  H10Y 4483   0.908   4.723   9.347  2.6452 -0.8404 -1.9113
   33POPC  C311 4484   0.940   4.770   9.145 -0.4056 -0.2605 -0.6569
   33POPC  H11X 4485   0.840   4.796   9.105 -1.5091 -1.6503  1.0639
   33POPC  H11Y 4486   0.944   4.659   9.151  2.4177 -0.1864  0.4594
   33POPC  C312 4487   1.045   4.830   9.054 -0.8013  0.6322  0.3652
   33POPC  H12X 4488   1.142   4.808   9.103 -0.0866  1.6038 -0.5551
   33POPC  H12Y 4489   1.023   4.939   9.050  0.6421  0.9339  0.0786
   33POPC  C313 4490   1.052   4.778   8.913  0.8341 -0.1795  0.3416
   33POPC  H13X 4491   1.126   4.839   8.857 -1.1068  1.1851 -0.8728
   33POPC  H13Y 4492   0.952   4.805   8.873  1.0438  0.1902  0.0591
   33POPC  C314 4493   1.081   4.627   8.882  0.3208  1.2626  0.2965
   33POPC  H14X 4494   0.986   4.571   8.899  0.0463  1.9347  1.0203
   33POPC  H14Y 4495   1.147   4.579   8.957 -1.1071 -1.2989  0.0464
   33POPC  C315 4496   1.126   4.594   8.739 -0.0035 -0.6589  0.3423
   33POPC  H15X 4497   1.210   4.655   8.700 -1.0929 -0.0240 -1.1196
   33POPC  H15Y 4498   1.038   4.610   8.672  0.8184 -0.7131 -0.7855
   33POPC  C316 4499   1.138   4.446   8.727  0.9501  0.2341 -0.0488
   33POPC  H16X 4500   1.064   4.398   8.795 -0.0630 -1.4613 -2.2031
   33POPC  H16Y 4501   1.241   4.418   8.757  1.5527  0.6382 -1.6280
   33POPC  H16Z 4502   1.119   4.416   8.621 -1.4728  2.2397 -0.2657
   34POPC     N 4503   1.161   5.784  10.681  0.0453 -0.8547 -0.6843
   34POPC   C12 4504   1.197   5.920  10.625  0.4470 -0.3624 -0.2778
   34POPC  H12A 4505   1.167   5.994  10.697 -0.3634  0.5472 -1.5044
   34POPC  H12B 4506   1.127   5.944  10.546 -2.0420  0.6107  2.0833
   34POPC   C13 4507   1.231   5.776  10.811  0.7001  0.6315  0.4661
   34POPC  H13A 4508   1.329   5.822  10.801 -0.5740  3.1176 -1.7622
   34POPC  H13B 4509   1.185   5.833  10.890 -1.3276 -0.6123  0.2525
   34POPC  H13C 4510   1.240   5.670  10.830 -2.8525  0.4615  1.8875
   34POPC   C14 4511   1.014   5.766  10.698  0.3685 -0.6443 -0.4863
   34POPC  H14A 4512   0.960   5.828  10.628 -1.5616 -1.6813  0.0319
   34POPC  H14B 4513   0.987   5.662  10.704  2.1946 -1.1368 -0.1485
   34POPC  H14C 4514   0.988   5.805  10.795 -0.7050  1.3914 -1.5380
   34POPC   C15 4515   1.214   5.676  10.594  0.7528  0.1390 -0.0550
   34POPC  H15A 4516   1.191   5.582  10.642  0.4476  0.1360 -0.2063
   34POPC  H15B 4517   1.319   5.691  10.574  0.2913  0.0726 -2.8943
   34POPC  H15C 4518   1.165   5.676  10.499  0.9436 -1.8396 -0.1887
   34POPC   C11 4519   1.336   5.944  10.570 -0.8728  0.5994  0.4261
   34POPC  H11A 4520   1.323   6.036  10.509 -1.1034 -0.2122 -0.7881
   34POPC  H11B 4521   1.364   5.869  10.493 -0.5853  2.9978 -1.9809
   34POPC     P 4522   1.586   5.919  10.666  0.0502  0.0379 -0.0759
   34POPC   O13 4523   1.590   5.772  10.662 -0.5975  0.1458 -0.3682
   34POPC   O14 4524   1.656   5.988  10.775 -0.9454 -0.0837 -0.1078
   34POPC   O12 4525   1.439   5.959  10.669 -0.1379 -0.0095 -1.2050
   34POPC   O11 4526   1.636   5.969  10.529 -0.4416  0.2613  0.2857
   34POPC    C1 4527   1.636   6.102  10.474  0.2992  0.4709 -0.0972
   34POPC    HA 4528   1.670   6.171  10.554  1.9877 -1.5963  1.0726
   34POPC    HB 4529   1.529   6.115  10.449 -0.1648 -2.4589  0.0873
   34POPC    C2 4530   1.721   6.116  10.346  0.1932 -0.3047  0.5389
   34POPC    HS 4531   1.701   6.215  10.299 -1.4705 -0.8583 -0.0155
   34POPC   O21 4532   1.689   6.011  10.262  0.0264  0.6030  0.6965
   34POPC   C21 4533   1.571   6.021  10.194 -0.2291 -0.3737 -0.0189
   34POPC   O22 4534   1.507   6.122  10.171  0.4764  0.2728  0.1094
   34POPC   C22 4535   1.510   5.881  10.175 -0.9479 -0.5140 -0.1742
   34POPC   H2R 4536   1.429   5.868  10.250 -0.8217 -0.9283 -0.1098
   34POPC   H2S 4537   1.581   5.798  10.192 -1.7770 -1.0447  0.7638
   34POPC    C3 4538   1.871   6.110  10.369 -0.1104 -0.6949  0.0701
   34POPC    HX 4539   1.902   6.012  10.413 -0.1664  0.1268  2.0330
   34POPC    HY 4540   1.906   6.187  10.442  0.8983 -0.6379 -0.4587
   34POPC   O31 4541   1.942   6.133  10.240 -0.4506 -0.3044  0.5321
   34POPC   C31 4542   1.995   6.026  10.182  0.1966 -0.6971  0.4943
   34POPC   O32 4543   2.005   5.920  10.233 -0.4204 -0.5232  0.2129
   34POPC   C32 4544   2.050   6.072  10.044  0.1723  0.1029  0.3206
   34POPC   H2X 4545   2.155   6.039  10.050  0.0570 -0.6985 -1.5528
   34POPC   H2Y 4546   2.041   6.181  10.022  0.9159  0.1612  0.2731
   34POPC   C23 4547   1.442   5.861  10.037  0.2733  0.1150 -0.2335
   34POPC   H3R 4548   1.348   5.921  10.042  1.7177  2.5097 -0.5419
   34POPC   H3S 4549   1.428   5.750  10.037  2.5711 -0.2240  0.6700
   34POPC   C24 4550   1.527   5.904   9.917 -0.2056 -0.6019  0.1452
   34POPC   H4R 4551   1.631   5.872   9.935  0.0650 -0.6715 -1.4420
   34POPC   H4S 4552   1.533   6.015   9.909 -0.0416 -0.5619  0.7852
   34POPC   C25 4553   1.480   5.843   9.780  0.8155  0.1257  0.6820
   34POPC   H5R 4554   1.394   5.905   9.746  2.5570  2.6966  0.6604
   34POPC   H5S 4555   1.464   5.733   9.785  3.5555 -0.2895  1.8319
   34POPC   C26 4556   1.594   5.853   9.669  0.3540  0.2426  0.0258
   34POPC   H6R 4557   1.677   5.787   9.702  1.0547  1.0514 -0.0891
   34POPC   H6S 4558   1.641   5.953   9.652 -1.0869  0.6760 -1.6659
   34POPC   C27 4559   1.543   5.800   9.529 -0.6411 -0.1530  0.1584
   34POPC   H7R 4560   1.443   5.848   9.520 -1.4569 -1.2411  2.5690
   34POPC   H7S 4561   1.517   5.693   9.547 -0.4136 -0.3002 -0.3838
   34POPC   C28 4562   1.637   5.825   9.411  0.0431  0.2613 -0.3480
   34POPC   H8R 4563   1.744   5.824   9.441  0.3645  2.7867 -1.2283
   34POPC   H8S 4564   1.617   5.932   9.392  2.2384  1.1374  1.7487
   34POPC   C29 4565   1.607   5.733   9.293 -0.1551  0.1956 -0.4053
   34POPC   H91 4566   1.528   5.657   9.306 -0.3718  0.9092  3.6208
   34POPC  C210 4567   1.667   5.739   9.173 -0.2370 -0.4662 -0.1848
   34POPC  H101 4568   1.629   5.677   9.090 -0.8415 -1.3038  0.6888
   34POPC  C211 4569   1.772   5.841   9.149  0.1159  0.3926 -0.2723
   34POPC  H11R 4570   1.772   5.919   9.228 -2.2110 -2.0642  2.3777
   34POPC  H11S 4571   1.738   5.899   9.061 -0.9822 -0.5537 -0.4821
   34POPC  C212 4572   1.916   5.800   9.127  0.4867 -1.3106 -0.6419
   34POPC  H12R 4573   1.939   5.726   9.207  0.1272 -0.5515  0.1820
   34POPC  H12S 4574   1.984   5.887   9.140  1.4644 -2.1329 -0.1229
   34POPC  C213 4575   1.932   5.743   8.990 -0.1713 -0.5510 -0.6580
   34POPC  H13R 4576   1.899   5.811   8.908  0.4555 -1.0251 -1.3064
   34POPC  H13S 4577   1.880   5.645   8.981  0.3323 -0.7587 -1.3867
   34POPC  C214 4578   2.082   5.695   8.967 -0.3314 -0.0024  0.4929
   34POPC  H14R 4579   2.106   5.634   9.056  1.2439  0.4445  0.4030
   34POPC  H14S 4580   2.154   5.779   8.974  0.3962 -0.7865  3.7631
   34POPC  C215 4581   2.094   5.612   8.839 -0.0403  0.4892 -0.3220
   34POPC  H15R 4582   2.075   5.677   8.751  1.6229  0.0316 -1.0465
   34POPC  H15S 4583   2.019   5.530   8.835  1.2082 -1.2469  4.3923
   34POPC  C216 4584   2.233   5.552   8.829 -0.2071  0.1563 -0.0785
   34POPC  H16R 4585   2.241   5.460   8.890 -2.2480 -1.1629 -1.6847
   34POPC  H16S 4586   2.315   5.625   8.851 -1.0361  0.6231  1.5860
   34POPC  C217 4587   2.267   5.513   8.684 -0.0352  0.9987 -0.3645
   34POPC  H17R 4588   2.375   5.485   8.680 -0.2782 -0.4868  1.5623
   34POPC  H17S 4589   2.249   5.603   8.623  0.3781  3.1581  2.4802
   34POPC  C218 4590   2.195   5.394   8.634  0.3080  0.4267 -0.0084
   34POPC  H18R 4591   2.085   5.409   8.644  0.3136 -0.0486  0.8577
   34POPC  H18S 4592   2.225   5.302   8.689  1.1359 -0.1808 -1.4311
   34POPC  H18T 4593   2.211   5.389   8.524  1.2365  2.2179  0.0113
   34POPC   C33 4594   1.973   6.003   9.928 -0.5910 -0.7666 -0.2463
   34POPC   H3X 4595   1.872   6.047   9.917  1.1815  3.4048 -2.1639
   34POPC   H3Y 4596   1.955   5.894   9.942  0.0879 -0.8975 -0.3747
   34POPC   C34 4597   2.042   6.025   9.792 -0.4331  0.3912 -0.3441
   34POPC   H4X 4598   2.138   5.970   9.800  0.9337  2.8187  1.1318
   34POPC   H4Y 4599   2.085   6.127   9.779 -3.0924  1.5269 -0.9556
   34POPC   C35 4600   1.962   5.975   9.668 -0.1334 -0.0449 -0.1926
   34POPC   H5X 4601   1.879   6.046   9.645 -1.5542 -2.1152 -1.8493
   34POPC   H5Y 4602   1.908   5.891   9.716  0.0675 -0.8567 -1.3472
   34POPC   C36 4603   2.037   5.938   9.542 -0.1992  0.3808 -0.1191
   34POPC   H6X 4604   1.955   5.903   9.475 -1.1624 -2.5647  2.3551
   34POPC   H6Y 4605   2.106   5.856   9.571 -1.6639 -0.1426  2.1921
   34POPC   C37 4606   2.122   6.052   9.489  0.6088 -0.0940  0.5536
   34POPC   H7X 4607   2.218   6.063   9.544  1.9352  0.2113 -1.6860
   34POPC   H7Y 4608   2.063   6.142   9.515  0.8745 -0.0224  0.9167
   34POPC   C38 4609   2.148   6.047   9.339 -0.6688  0.1026 -0.4319
   34POPC   H8X 4610   2.056   6.081   9.287 -1.2926 -0.4500  0.2923
   34POPC   H8Y 4611   2.182   5.946   9.308  1.5347  0.2477  1.2012
   34POPC   C39 4612   2.268   6.141   9.303 -0.6452 -0.4013  0.1787
   34POPC   H9X 4613   2.351   6.111   9.370  0.5555 -0.3613 -1.2419
   34POPC   H9Y 4614   2.239   6.245   9.327  0.0893  1.1848 -4.6608
   34POPC  C310 4615   2.312   6.123   9.154  0.7758  0.5313 -0.6059
   34POPC  H10X 4616   2.341   6.016   9.144 -0.9183  0.1956 -2.3226
   34POPC  H10Y 4617   2.397   6.188   9.125  1.0810 -0.0552 -1.0587
   34POPC  C311 4618   2.200   6.146   9.047  0.4804 -0.0711 -0.2464
   34POPC  H11X 4619   2.149   6.244   9.058 -1.5361 -0.9038 -1.7177
   34POPC  H11Y 4620   2.122   6.072   9.074  0.7529 -1.0148 -1.9640
   34POPC  C312 4621   2.260   6.126   8.910  0.2920 -0.1266  0.3246
   34POPC  H12X 4622   2.279   6.017   8.898 -3.0711 -0.7526 -0.3169
   34POPC  H12Y 4623   2.352   6.189   8.910  0.4678 -0.3788  0.6575
   34POPC  C313 4624   2.162   6.163   8.790  0.3827 -0.4213 -0.3230
   34POPC  H13X 4625   2.219   6.151   8.695  3.7658 -0.9462  1.5817
   34POPC  H13Y 4626   2.125   6.267   8.800 -0.0384 -0.4651 -1.2867
   34POPC  C314 4627   2.041   6.069   8.783  0.3033 -0.4092 -0.3665
   34POPC  H14X 4628   1.985   6.076   8.878  0.8379 -1.6780  0.0683
   34POPC  H14Y 4629   2.078   5.964   8.780 -0.4271 -0.6540 -2.8271
   34POPC  C315 4630   1.959   6.091   8.656  0.1124  0.4820 -0.3427
   34POPC  H15X 4631   1.878   6.015   8.652 -2.4493  2.9891  0.4689
   34POPC  H15Y 4632   2.024   6.087   8.566  1.7116  0.2985  0.7748
   34POPC  C316 4633   1.888   6.225   8.652 -0.2835 -0.5825 -0.2174
   34POPC  H16X 4634   1.813   6.227   8.569 -1.2026  3.1674  0.5080
   34POPC  H16Y 4635   1.954   6.306   8.615  2.3261 -1.4573  2.2094
   34POPC  H16Z 4636   1.831   6.259   8.741  1.2616  2.0101 -0.1212
   35POPC     N 4637   6.528   4.836  11.483  0.2801 -0.1062 -0.4295
   35POPC   C12 4638   6.484   4.895  11.350  0.2338 -0.3302 -0.2231
   35POPC  H12A 4639   6.453   4.997  11.369 -0.2808 -0.3746 -0.7985
   35POPC  H12B 4640   6.405   4.836  11.307  2.7504 -1.7529 -3.3797
   35POPC   C13 4641   6.411   4.824  11.570 -0.1735  0.0159 -0.0658
   35POPC  H13A 4642   6.432   4.767  11.660 -1.2254 -0.9001 -0.3686
   35POPC  H13B 4643   6.388   4.917  11.620  0.7203 -0.6236  1.6196
   35POPC  H13C 4644   6.320   4.784  11.526  0.2230 -0.3448 -0.5686
   35POPC   C14 4645   6.608   4.713  11.482  0.1815 -0.2332 -0.5784
   35POPC  H14A 4646   6.619   4.663  11.578  0.6436 -2.8036 -1.8887
   35POPC  H14B 4647   6.565   4.638  11.418  1.2673 -0.7151 -0.7570
   35POPC  H14C 4648   6.710   4.729  11.450  0.4167 -1.3265 -0.4112
   35POPC   C15 4649   6.617   4.937  11.549  0.0657 -0.4923 -0.6808
   35POPC  H15A 4650   6.707   4.938  11.489  0.6368 -1.7846  0.1003
   35POPC  H15B 4651   6.643   4.900  11.647 -0.8335 -0.2980 -0.3591
   35POPC  H15C 4652   6.568   5.033  11.549 -1.8513 -1.3723  1.5278
   35POPC   C11 4653   6.593   4.912  11.236 -0.0474  0.7962 -0.6424
   35POPC  H11A 4654   6.545   4.941  11.140 -3.9103  1.3302  1.2324
   35POPC  H11B 4655   6.633   4.810  11.218 -1.4236 -0.1435  1.2443
   35POPC     P 4656   6.850   4.988  11.246  0.0150 -0.2302 -0.3419
   35POPC   O13 4657   6.914   4.884  11.332  0.3231  0.2686 -0.7904
   35POPC   O14 4658   6.907   5.122  11.261  0.3085 -0.5489 -0.3841
   35POPC   O12 4659   6.697   5.002  11.285 -0.0081  0.9784  0.2574
   35POPC   O11 4660   6.844   4.950  11.091  0.2608  0.3625  0.4940
   35POPC    C1 4661   6.810   5.046  10.992  0.8314 -0.1815  0.2514
   35POPC    HA 4662   6.875   5.136  10.993  1.4406 -0.6180  0.5837
   35POPC    HB 4663   6.704   5.080  11.000  0.7543 -0.6508  1.5357
   35POPC    C2 4664   6.801   4.989  10.849  0.4937 -0.3723  0.1088
   35POPC    HS 4665   6.782   5.069  10.774  0.5433  1.1137  1.6260
   35POPC   O21 4666   6.708   4.875  10.851  0.1177  0.0783 -0.6956
   35POPC   C21 4667   6.584   4.907  10.824  0.0034  0.7005 -0.3696
   35POPC   O22 4668   6.549   5.023  10.801  0.1155 -0.5118  0.0948
   35POPC   C22 4669   6.496   4.786  10.816  0.4765 -0.0046  0.4414
   35POPC   H2R 4670   6.390   4.816  10.831  0.2187 -1.2511  1.2667
   35POPC   H2S 4671   6.503   4.730  10.912 -0.3906 -0.9226 -0.0143
   35POPC    C3 4672   6.943   4.935  10.815  0.2834 -0.1240 -0.1559
   35POPC    HX 4673   6.989   4.883  10.902  0.8121 -0.7593 -0.8084
   35POPC    HY 4674   6.998   5.028  10.790  0.4084  0.2221  1.3244
   35POPC   O31 4675   6.952   4.863  10.694  0.3385  0.0075  1.0007
   35POPC   C31 4676   6.905   4.740  10.696 -0.0914  0.1251 -0.7536
   35POPC   O32 4677   6.905   4.668  10.793 -0.4498  0.3139  0.7022
   35POPC   C32 4678   6.865   4.710  10.549 -0.3876 -0.5076 -0.2157
   35POPC   H2X 4679   6.944   4.745  10.480 -1.1017 -1.6638 -1.6763
   35POPC   H2Y 4680   6.773   4.767  10.527  0.5829  1.2079 -0.0427
   35POPC   C23 4681   6.512   4.697  10.696  0.9168 -0.7944  0.1820
   35POPC   H3R 4682   6.616   4.660  10.686  1.9854  1.9615  0.1445
   35POPC   H3S 4683   6.478   4.748  10.603  0.2162  0.5233  1.1226
   35POPC   C24 4684   6.424   4.570  10.720  0.3405 -0.1040 -0.3891
   35POPC   H4R 4685   6.316   4.595  10.725 -0.1624 -1.8151 -1.6896
   35POPC   H4S 4686   6.447   4.527  10.820 -1.5711  1.5217  0.8321
   35POPC   C25 4687   6.432   4.466  10.608  0.2221  0.1211  0.3039
   35POPC   H5R 4688   6.365   4.380  10.626 -0.3553 -0.0071 -2.1254
   35POPC   H5S 4689   6.535   4.424  10.617 -0.7241 -2.9991 -1.7424
   35POPC   C26 4690   6.432   4.520  10.462  0.4034 -0.3402  0.2728
   35POPC   H6R 4691   6.503   4.605  10.446  0.7711 -0.7806 -0.5075
   35POPC   H6S 4692   6.329   4.560  10.448  0.3364 -1.2663 -2.3559
   35POPC   C27 4693   6.454   4.392  10.369 -0.3752 -0.5875  0.3248
   35POPC   H7R 4694   6.367   4.328  10.396 -0.6503 -1.8611 -3.1608
   35POPC   H7S 4695   6.546   4.332  10.387  1.1935  1.4658 -0.4756
   35POPC   C28 4696   6.453   4.426  10.221  0.0286 -0.5596  0.1525
   35POPC   H8R 4697   6.546   4.485  10.206 -0.4134 -0.3010 -1.8251
   35POPC   H8S 4698   6.382   4.511  10.211 -0.0572 -0.3678  2.0075
   35POPC   C29 4699   6.445   4.316  10.109 -0.2271 -0.3618  0.0437
   35POPC   H91 4700   6.509   4.229  10.130  0.5827  0.4438  1.0325
   35POPC  C210 4701   6.382   4.318   9.989 -1.2172 -0.1125 -0.1629
   35POPC  H101 4702   6.377   4.228   9.926 -2.5959 -0.4030  0.3250
   35POPC  C211 4703   6.295   4.428   9.948 -0.4332 -0.3576  0.6527
   35POPC  H11R 4704   6.250   4.468  10.041  1.6832  0.3237  1.4539
   35POPC  H11S 4705   6.222   4.382   9.878  2.5968  0.0849 -3.0974
   35POPC  C212 4706   6.364   4.542   9.868 -0.6666 -0.7868  0.4591
   35POPC  H12R 4707   6.448   4.585   9.925 -0.3209 -0.7381 -0.0804
   35POPC  H12S 4708   6.288   4.622   9.852 -1.2370 -1.5252 -0.7835
   35POPC  C213 4709   6.410   4.493   9.732 -0.4116  0.4485 -0.2569
   35POPC  H13R 4710   6.344   4.414   9.690 -0.2398 -0.6900  1.4945
   35POPC  H13S 4711   6.508   4.444   9.749 -0.7236 -0.2605 -0.4667
   35POPC  C214 4712   6.419   4.596   9.621 -0.2054 -0.0330 -0.3607
   35POPC  H14R 4713   6.495   4.673   9.646 -1.9065  1.4051  0.6246
   35POPC  H14S 4714   6.321   4.648   9.612 -0.3058  0.4098  2.3568
   35POPC  C215 4715   6.466   4.529   9.496 -0.2024 -0.6636  0.0006
   35POPC  H15R 4716   6.406   4.443   9.460 -1.4803  1.4710 -3.4967
   35POPC  H15S 4717   6.571   4.495   9.503  0.1569  0.5139  0.5799
   35POPC  C216 4718   6.444   4.625   9.380 -1.0037 -0.2478  0.0804
   35POPC  H16R 4719   6.471   4.730   9.406  0.9012 -0.6411 -0.1908
   35POPC  H16S 4720   6.336   4.620   9.354 -0.6300 -0.5460 -1.4882
   35POPC  C217 4721   6.515   4.580   9.250 -0.2863  0.0507  0.0245
   35POPC  H17R 4722   6.463   4.488   9.217 -0.4312 -0.2217  0.9842
   35POPC  H17S 4723   6.621   4.550   9.265 -0.4266 -1.2131 -1.3372
   35POPC  C218 4724   6.532   4.693   9.151 -0.1012 -0.9101  0.6459
   35POPC  H18R 4725   6.599   4.768   9.198 -0.2269  1.2894 -2.4282
   35POPC  H18S 4726   6.434   4.742   9.132  0.2091 -0.5773 -0.1338
   35POPC  H18T 4727   6.579   4.656   9.058  0.6281 -0.5553  0.8689
   35POPC   C33 4728   6.849   4.561  10.522 -0.3006  0.6034  0.6748
   35POPC   H3X 4729   6.812   4.551  10.418 -0.7834 -1.3836  0.9938
   35POPC   H3Y 4730   6.778   4.517  10.595 -0.2578  0.3091  0.5445
   35POPC   C34 4731   6.980   4.480  10.524 -0.5721  0.0932  0.1034
   35POPC   H4X 4732   7.022   4.475  10.627 -0.1148 -1.6473 -0.1352
   35POPC   H4Y 4733   7.060   4.527  10.462  0.3765 -0.9387  0.5006
   35POPC   C35 4734   6.983   4.342  10.458 -0.6820 -0.0270  0.1988
   35POPC   H5X 4735   6.914   4.282  10.521  1.0765  0.2990  2.5564
   35POPC   H5Y 4736   7.078   4.286  10.474  0.0161  1.1314  0.2045
   35POPC   C36 4737   6.948   4.328  10.307 -0.1244  0.3833 -0.0453
   35POPC   H6X 4738   7.018   4.372  10.233  0.6085 -0.2127  0.2801
   35POPC   H6Y 4739   6.854   4.386  10.295 -0.0156  0.0846 -2.8188
   35POPC   C37 4740   6.915   4.185  10.265 -0.4794  0.1102  0.2628
   35POPC   H7X 4741   6.835   4.156  10.336  0.1248  0.8344  1.2537
   35POPC   H7Y 4742   7.005   4.120  10.273  1.0475  1.9625 -1.0581
   35POPC   C38 4743   6.873   4.171  10.116 -0.2340  0.1095 -0.7930
   35POPC   H8X 4744   6.954   4.210  10.052  0.5448 -1.8915 -1.0924
   35POPC   H8Y 4745   6.793   4.246  10.100  1.1343  1.5212 -1.2832
   35POPC   C39 4746   6.860   4.028  10.065  0.1988  0.6553  0.3264
   35POPC   H9X 4747   6.792   3.963  10.124  0.2958  0.3759  0.1323
   35POPC   H9Y 4748   6.954   3.971  10.073 -0.1908 -0.4274 -2.1143
   35POPC  C310 4749   6.829   4.007   9.917  0.0047  0.1383  0.3763
   35POPC  H10X 4750   6.861   3.907   9.879 -1.3393  0.6100 -2.2231
   35POPC  H10Y 4751   6.893   4.083   9.867  2.0721 -1.4759  0.4415
   35POPC  C311 4752   6.684   4.027   9.876  0.4486  0.2059 -0.1305
   35POPC  H11X 4753   6.651   4.128   9.911 -1.5945 -0.2575 -0.5835
   35POPC  H11Y 4754   6.628   3.945   9.926  1.6726 -0.5632  0.0138
   35POPC  C312 4755   6.665   4.009   9.725  0.0502 -0.6387  0.8752
   35POPC  H12X 4756   6.561   3.979   9.701  0.4686 -3.5822  2.3038
   35POPC  H12Y 4757   6.722   3.920   9.689 -1.2852  0.2931 -4.4210
   35POPC  C313 4758   6.718   4.124   9.641  0.1083  0.4825  0.3238
   35POPC  H13X 4759   6.829   4.113   9.640  0.0224 -0.4410 -0.0015
   35POPC  H13Y 4760   6.709   4.217   9.702  3.1438  1.0464  0.0861
   35POPC  C314 4761   6.650   4.133   9.504 -0.0176  0.6919 -0.0104
   35POPC  H14X 4762   6.676   4.219   9.438  0.9122  0.8882  0.5877
   35POPC  H14Y 4763   6.542   4.150   9.527 -0.1361 -0.6561  0.5372
   35POPC  C315 4764   6.652   4.001   9.427  0.5051 -0.1476 -0.2947
   35POPC  H15X 4765   6.590   4.010   9.335 -1.1286 -0.4991  0.7406
   35POPC  H15Y 4766   6.604   3.921   9.487 -0.9714  1.3309  0.5605
   35POPC  C316 4767   6.799   3.961   9.398 -0.0192  0.1750 -0.1134
   35POPC  H16X 4768   6.863   3.955   9.489  0.0122  0.9482 -0.0797
   35POPC  H16Y 4769   6.851   4.027   9.325 -0.2154 -0.7184 -1.0797
   35POPC  H16Z 4770   6.807   3.862   9.349 -0.9366  1.4220 -3.0118
   36POPC     N 4771   4.730   1.754  11.216 -0.2620 -0.4091 -0.4808
   36POPC   C12 4772   4.827   1.803  11.112  0.9612 -0.5009 -0.4251
   36POPC  H12A 4773   4.915   1.854  11.148  0.4351  0.2463 -0.1893
   36POPC  H12B 4774   4.774   1.874  11.051  2.3271  1.6789  0.8154
   36POPC   C13 4775   4.693   1.871  11.305  0.0380 -0.4642  0.0826
   36POPC  H13A 4776   4.776   1.919  11.354 -1.6289  0.3392  2.2616
   36POPC  H13B 4777   4.650   1.948  11.243 -0.2035 -0.8625 -0.2549
   36POPC  H13C 4778   4.606   1.847  11.364 -1.2844 -0.8283 -1.9138
   36POPC   C14 4779   4.604   1.706  11.149  0.1354 -0.0607  0.0248
   36POPC  H14A 4780   4.555   1.786  11.095 -0.1144 -0.0375  0.2892
   36POPC  H14B 4781   4.618   1.629  11.074  1.2699  2.9444 -3.1405
   36POPC  H14C 4782   4.534   1.672  11.223  1.7377 -0.7413  1.3003
   36POPC   C15 4783   4.772   1.641  11.290 -0.5533  0.1596  0.1773
   36POPC  H15A 4784   4.804   1.567  11.218  1.2429 -0.4242  1.5180
   36POPC  H15B 4785   4.698   1.600  11.358  1.0309 -2.0175  0.6987
   36POPC  H15C 4786   4.854   1.662  11.357 -0.6114 -0.2924  0.3952
   36POPC   C11 4787   4.876   1.695  11.007  0.4466  0.2574 -0.2504
   36POPC  H11A 4788   4.917   1.738  10.913  1.4464  0.0464  0.0746
   36POPC  H11B 4789   4.789   1.632  10.980  1.1599 -2.0292  2.2835
   36POPC     P 4790   5.003   1.459  11.021  0.1864  0.0067  0.1151
   36POPC   O13 4791   4.880   1.379  11.033 -0.0338  0.7326 -0.0369
   36POPC   O14 4792   5.123   1.406  11.090 -0.0004  0.0622 -0.3208
   36POPC   O12 4793   4.978   1.610  11.068 -0.4158  0.6144 -0.3829
   36POPC   O11 4794   5.040   1.467  10.868  0.2400 -0.4350 -0.4856
   36POPC    C1 4795   5.137   1.566  10.820 -0.3524 -0.1764  0.9346
   36POPC    HA 4796   5.234   1.522  10.852  0.9088  1.2748 -0.7147
   36POPC    HB 4797   5.132   1.666  10.868  2.3365  1.2417 -1.4134
   36POPC    C2 4798   5.159   1.569  10.663 -0.8713  0.3667 -0.2364
   36POPC    HS 4799   5.228   1.652  10.635  0.0041 -0.2893 -0.0913
   36POPC   O21 4800   5.032   1.586  10.591  0.2391 -0.0008 -0.4878
   36POPC   C21 4801   4.978   1.700  10.611 -0.2878 -0.2353  0.0079
   36POPC   O22 4802   5.032   1.792  10.674 -0.4152  0.8556  0.3832
   36POPC   C22 4803   4.834   1.698  10.551  0.1202  0.3415  0.0632
   36POPC   H2R 4804   4.768   1.657  10.630 -0.3922  1.4403  0.2258
   36POPC   H2S 4805   4.835   1.624  10.467 -2.9479  3.2754 -2.8773
   36POPC    C3 4806   5.232   1.440  10.615 -0.3493  0.0823  0.0935
   36POPC    HX 4807   5.186   1.355  10.668 -3.0298  2.0146  1.0617
   36POPC    HY 4808   5.335   1.439  10.657 -0.9968 -0.5760  1.6999
   36POPC   O31 4809   5.249   1.432  10.467  0.0040  0.5738  0.4153
   36POPC   C31 4810   5.143   1.379  10.402 -0.3535 -0.4092  0.6181
   36POPC   O32 4811   5.042   1.329  10.453  0.0595 -0.1986  0.0040
   36POPC   C32 4812   5.153   1.392  10.253 -0.4714  0.6897  0.5142
   36POPC   H2X 4813   5.259   1.410  10.224 -0.0989 -2.0588 -0.0498
   36POPC   H2Y 4814   5.073   1.462  10.222 -1.1058 -0.0335  0.5193
   36POPC   C23 4815   4.785   1.839  10.500  0.1305  0.0036  0.2170
   36POPC   H3R 4816   4.841   1.895  10.423 -2.5973  1.2710 -0.9990
   36POPC   H3S 4817   4.772   1.909  10.586 -0.5425  0.1788 -0.0214
   36POPC   C24 4818   4.641   1.825  10.443 -0.2748  0.3624 -0.6495
   36POPC   H4R 4819   4.594   1.924  10.458  2.7226  1.5366  2.1023
   36POPC   H4S 4820   4.580   1.750  10.497 -0.9266  1.4922  0.2176
   36POPC   C25 4821   4.647   1.787  10.297 -0.4486  0.8523  0.5949
   36POPC   H5R 4822   4.688   1.684  10.288 -1.4219  0.4131  1.0140
   36POPC   H5S 4823   4.722   1.857  10.254  1.5086 -0.1619  2.2455
   36POPC   C26 4824   4.517   1.813  10.213 -0.0756 -0.6110 -0.6158
   36POPC   H6R 4825   4.492   1.919  10.235  1.5680 -0.5291  1.1292
   36POPC   H6S 4826   4.436   1.763  10.270  0.4799  0.5789  1.3066
   36POPC   C27 4827   4.539   1.775  10.073 -0.1347 -0.1955 -0.1843
   36POPC   H7R 4828   4.561   1.667  10.066  0.4115 -0.1304  0.4156
   36POPC   H7S 4829   4.618   1.830  10.017  0.1038 -0.3351  0.0140
   36POPC   C28 4830   4.411   1.796   9.990  0.2928  0.0280  0.0471
   36POPC   H8R 4831   4.435   1.785   9.882 -0.8707 -1.0529 -0.1202
   36POPC   H8S 4832   4.381   1.903   9.985 -0.9028 -0.3309 -0.8133
   36POPC   C29 4833   4.288   1.717  10.021 -0.6995  0.2144 -0.7430
   36POPC   H91 4834   4.215   1.756  10.094 -1.3580 -0.3630 -1.0824
   36POPC  C210 4835   4.240   1.604   9.964  0.4057  0.5755 -0.5748
   36POPC  H101 4836   4.138   1.573   9.991  0.5529  1.8136  1.5410
   36POPC  C211 4837   4.307   1.525   9.857 -0.6512  0.1201  0.8901
   36POPC  H11R 4838   4.312   1.417   9.884 -0.7914  0.1909  1.1942
   36POPC  H11S 4839   4.409   1.557   9.827 -0.2423 -2.1203 -0.3913
   36POPC  C212 4840   4.234   1.549   9.722  0.0401  0.4269 -0.0822
   36POPC  H12R 4841   4.210   1.657   9.711 -1.0339  0.3072  0.9457
   36POPC  H12S 4842   4.140   1.491   9.726 -0.8517  1.8112 -0.4246
   36POPC  C213 4843   4.320   1.500   9.602  0.6643 -0.3713  0.0130
   36POPC  H13R 4844   4.345   1.392   9.615  0.1392 -0.7559 -1.8398
   36POPC  H13S 4845   4.412   1.562   9.601 -0.7397  1.7854 -0.0812
   36POPC  C214 4846   4.253   1.507   9.467 -0.2342 -0.3482 -0.3845
   36POPC  H14R 4847   4.200   1.604   9.454 -0.1263 -0.2521 -0.1001
   36POPC  H14S 4848   4.167   1.438   9.472 -0.9844  0.6372  1.0342
   36POPC  C215 4849   4.343   1.479   9.351  0.0972  0.2036 -0.4971
   36POPC  H15R 4850   4.416   1.398   9.371  1.2935  1.5962  1.1158
   36POPC  H15S 4851   4.406   1.571   9.348  1.2295 -0.5341 -0.0053
   36POPC  C216 4852   4.283   1.461   9.217  0.6357  0.7038  0.0690
   36POPC  H16R 4853   4.187   1.517   9.213 -0.0876 -0.4331  0.9357
   36POPC  H16S 4854   4.248   1.356   9.203 -1.2758  1.5198 -1.8966
   36POPC  C217 4855   4.378   1.505   9.103  0.2174  0.1683  0.4923
   36POPC  H17R 4856   4.475   1.455   9.124 -0.5683 -1.0602  1.3375
   36POPC  H17S 4857   4.401   1.613   9.112  2.2154 -0.3013  1.6439
   36POPC  C218 4858   4.330   1.460   8.964 -0.1142  0.9213  0.1160
   36POPC  H18R 4859   4.282   1.362   8.984 -0.9060  1.1704 -0.5027
   36POPC  H18S 4860   4.413   1.435   8.894  0.0082 -1.1868  0.9433
   36POPC  H18T 4861   4.266   1.538   8.918 -1.6242 -0.8092 -0.8783
   36POPC   C33 4862   5.119   1.255  10.200 -0.3133 -0.1175  0.1546
   36POPC   H3X 4863   5.010   1.237  10.212 -0.1360 -0.8793  0.7281
   36POPC   H3Y 4864   5.189   1.179  10.241  0.1543 -0.1492 -0.6838
   36POPC   C34 4865   5.150   1.235  10.048 -0.0755 -0.2038 -0.4615
   36POPC   H4X 4866   5.257   1.261  10.036  0.0156  0.7621  1.8316
   36POPC   H4Y 4867   5.090   1.312   9.995 -1.1241 -1.0325 -0.5095
   36POPC   C35 4868   5.098   1.103   9.998 -0.1698  0.6461 -0.6927
   36POPC   H5X 4869   4.991   1.090  10.026  0.2287  0.0313  0.6498
   36POPC   H5Y 4870   5.149   1.022  10.055 -1.5104 -0.1827 -0.6310
   36POPC   C36 4871   5.126   1.071   9.849  0.2329  0.7938  0.5754
   36POPC   H6X 4872   5.232   1.039   9.841 -0.6507 -2.0719 -1.4537
   36POPC   H6Y 4873   5.117   1.166   9.793 -0.9303  0.5629  0.3513
   36POPC   C37 4874   5.035   0.965   9.792  0.0909  0.4144  0.0081
   36POPC   H7X 4875   4.928   0.976   9.823  0.7492  1.4461  2.0718
   36POPC   H7Y 4876   5.074   0.876   9.845  0.2781  1.0447  0.9581
   36POPC   C38 4877   5.046   0.952   9.641 -0.4616  0.7047 -0.1816
   36POPC   H8X 4878   5.006   0.850   9.619  2.6466 -0.7094  0.2556
   36POPC   H8Y 4879   5.151   0.947   9.605 -1.1687  1.3901 -2.5473
   36POPC   C39 4880   4.968   1.055   9.545 -0.2346  0.3075  0.1166
   36POPC   H9X 4881   4.993   1.154   9.588 -3.1784  0.8522  0.8322
   36POPC   H9Y 4882   4.866   1.040   9.587  0.4179 -1.5235  1.1487
   36POPC  C310 4883   4.988   1.034   9.397 -0.8226  0.1552  1.1963
   36POPC  H10X 4884   5.095   1.015   9.379 -0.6065  0.5497  1.9941
   36POPC  H10Y 4885   4.952   1.126   9.345  2.4255  0.1930 -1.3129
   36POPC  C311 4886   4.920   0.900   9.359  0.2482 -0.7157  0.1610
   36POPC  H11X 4887   4.816   0.895   9.397  0.2609  1.5218  0.6400
   36POPC  H11Y 4888   4.977   0.824   9.416 -0.5775 -1.2769  0.2593
   36POPC  C312 4889   4.895   0.860   9.212 -0.0331  0.1640 -0.4661
   36POPC  H12X 4890   4.837   0.947   9.174 -0.7570 -0.3323 -0.5044
   36POPC  H12Y 4891   4.825   0.774   9.215 -0.9729  0.9344  0.4096
   36POPC  C313 4892   5.019   0.840   9.127  0.2652  0.2892 -0.0295
   36POPC  H13X 4893   5.064   0.747   9.170  0.0401  0.6407  0.9764
   36POPC  H13Y 4894   5.093   0.919   9.152 -0.8657  1.2967  0.1570
   36POPC  C314 4895   4.995   0.856   8.973  0.2393  0.4665 -0.1579
   36POPC  H14X 4896   4.985   0.965   8.957  1.7251  0.5718 -0.5323
   36POPC  H14Y 4897   4.899   0.804   8.953  1.5905 -1.5645 -1.8262
   36POPC  C315 4898   5.100   0.790   8.888  0.0518  0.8143  0.5342
   36POPC  H15X 4899   5.071   0.785   8.781  0.1869  1.1449  0.4837
   36POPC  H15Y 4900   5.115   0.682   8.913 -1.3399  0.2844 -0.7669
   36POPC  C316 4901   5.244   0.851   8.890  0.1462  0.5096  0.1521
   36POPC  H16X 4902   5.268   0.877   8.996 -1.7607 -0.8795  0.9719
   36POPC  H16Y 4903   5.251   0.939   8.822  0.3820  1.7290  1.6816
   36POPC  H16Z 4904   5.317   0.773   8.860  0.2230  0.6946 -0.1423
   37POPC     N 4905   5.051   5.417   6.736 -0.6645  0.5026  0.0348
   37POPC   C12 4906   4.914   5.359   6.724 -0.9645 -0.3678 -0.4867
   37POPC  H12A 4907   4.855   5.413   6.797  0.7181  1.9715 -0.7121
   37POPC  H12B 4908   4.919   5.254   6.745  3.6602 -0.0855  0.9133
   37POPC   C13 4909   5.046   5.565   6.720  0.2790 -0.1669  0.2623
   37POPC  H13A 4910   4.998   5.608   6.807 -2.1248 -2.8336  0.4216
   37POPC  H13B 4911   5.142   5.612   6.709 -0.2623  0.9882  0.3839
   37POPC  H13C 4912   4.981   5.573   6.634 -0.8840 -1.8372  0.9082
   37POPC   C14 4913   5.110   5.411   6.873  0.2261 -0.2340 -0.7655
   37POPC  H14A 4914   5.178   5.495   6.878 -0.7351  0.6015 -1.1186
   37POPC  H14B 4915   5.035   5.420   6.951 -0.2250 -1.1708 -1.0833
   37POPC  H14C 4916   5.139   5.309   6.894  0.0260  0.2008  2.1020
   37POPC   C15 4917   5.162   5.362   6.650  0.6150 -0.7641 -0.2357
   37POPC  H15A 4918   5.156   5.255   6.663  2.1151 -0.7891  0.4434
   37POPC  H15B 4919   5.258   5.410   6.664  1.0152 -1.7063  0.3235
   37POPC  H15C 4920   5.142   5.382   6.546  1.0244  0.3349 -0.1203
   37POPC   C11 4921   4.852   5.376   6.584  0.2131 -0.3790  0.7428
   37POPC  H11A 4922   4.762   5.311   6.581  0.1000 -0.5555  4.1547
   37POPC  H11B 4923   4.925   5.341   6.508  0.9240 -0.0676  1.2761
   37POPC     P 4924   4.670   5.570   6.607  0.2802  0.2845  0.1177
   37POPC   O13 4925   4.574   5.523   6.509 -0.5266 -0.0699 -0.0438
   37POPC   O14 4926   4.681   5.719   6.603 -0.1090  0.3860 -0.6601
   37POPC   O12 4927   4.807   5.509   6.563 -1.0428  0.7002 -0.0498
   37POPC   O11 4928   4.633   5.514   6.753 -0.7830 -0.2559 -0.4122
   37POPC    C1 4929   4.548   5.593   6.840 -0.6916  0.3854  0.0417
   37POPC    HA 4930   4.493   5.517   6.900  1.3657 -0.7834  0.5185
   37POPC    HB 4931   4.461   5.639   6.787 -0.2123  0.6754 -0.5028
   37POPC    C2 4932   4.626   5.686   6.939 -0.1603  1.0538 -0.7383
   37POPC    HS 4933   4.720   5.721   6.890  2.2623 -0.3122  2.6116
   37POPC   O21 4934   4.650   5.630   7.063  0.8594  0.3776 -0.2586
   37POPC   C21 4935   4.764   5.567   7.083  0.7106 -0.3578  0.3507
   37POPC   O22 4936   4.864   5.561   7.010 -0.4022 -0.4504 -0.0191
   37POPC   C22 4937   4.765   5.498   7.221  0.1863 -0.2589 -0.0782
   37POPC   H2R 4938   4.689   5.419   7.202 -0.0153 -0.3184  0.9538
   37POPC   H2S 4939   4.727   5.573   7.292  1.4581  1.8494 -1.5244
   37POPC    C3 4940   4.533   5.815   6.963  0.0463 -0.5793  0.2650
   37POPC    HX 4941   4.436   5.779   7.005 -0.0810  0.7554  1.1444
   37POPC    HY 4942   4.517   5.856   6.861  3.9232 -1.2165 -0.7469
   37POPC   O31 4943   4.596   5.903   7.056 -0.5043  0.1052  0.0455
   37POPC   C31 4944   4.666   5.995   7.007 -0.7977 -0.4429  0.4899
   37POPC   O32 4945   4.683   6.020   6.886 -0.1862  0.2513 -0.1206
   37POPC   C32 4946   4.741   6.068   7.118 -0.2449  0.1876 -0.5055
   37POPC   H2X 4947   4.850   6.049   7.103  0.2040 -0.8915  3.1321
   37POPC   H2Y 4948   4.714   6.026   7.217 -1.2270 -1.7083 -1.5397
   37POPC   C23 4949   4.891   5.425   7.266 -0.1189 -0.0921  0.5319
   37POPC   H3R 4950   4.972   5.500   7.275 -1.4623  1.2700  2.1968
   37POPC   H3S 4951   4.900   5.349   7.186 -1.2652  0.8410 -0.5372
   37POPC   C24 4952   4.850   5.372   7.402 -0.4491 -0.0790  0.9782
   37POPC   H4R 4953   4.784   5.283   7.391  2.4508 -2.4520  1.3225
   37POPC   H4S 4954   4.808   5.447   7.471  1.4602  0.3713  1.7020
   37POPC   C25 4955   4.970   5.301   7.471 -0.1007  0.3682  0.3642
   37POPC   H5R 4956   5.017   5.244   7.388 -3.8672 -1.5591 -0.6851
   37POPC   H5S 4957   4.923   5.223   7.534 -0.7792  1.6118  1.4440
   37POPC   C26 4958   5.062   5.390   7.548 -0.3217  0.0426  0.1986
   37POPC   H6R 4959   5.006   5.467   7.605 -0.5261 -1.3733  2.0261
   37POPC   H6S 4960   5.136   5.429   7.475  2.0058 -1.0548  1.8301
   37POPC   C27 4961   5.149   5.308   7.651 -0.4323  0.1985 -0.1257
   37POPC   H7R 4962   5.225   5.247   7.598  1.1873  1.0062  1.1647
   37POPC   H7S 4963   5.079   5.248   7.712  1.0264  0.0728  1.5071
   37POPC   C28 4964   5.213   5.410   7.753  0.0425  0.1222  0.9075
   37POPC   H8R 4965   5.139   5.486   7.787  2.5009  2.5539  1.1713
   37POPC   H8S 4966   5.287   5.472   7.699  0.6108 -0.2753  1.2159
   37POPC   C29 4967   5.278   5.363   7.883 -0.2488 -0.3942  0.3224
   37POPC   H91 4968   5.386   5.349   7.866 -0.4002 -1.3912  0.1481
   37POPC  C210 4969   5.226   5.347   8.004 -0.4993  0.9650 -0.4849
   37POPC  H101 4970   5.292   5.326   8.089  0.0035  0.9441 -0.8735
   37POPC  C211 4971   5.086   5.380   8.041 -0.2717  0.7043  0.1733
   37POPC  H11R 4972   5.014   5.396   7.958 -0.0957  0.8576  0.0486
   37POPC  H11S 4973   5.086   5.480   8.089 -0.2980  0.7139  0.1533
   37POPC  C212 4974   5.038   5.266   8.144  0.2454 -0.5117 -0.9178
   37POPC  H12R 4975   5.057   5.162   8.112 -0.8744 -0.5475 -1.5188
   37POPC  H12S 4976   4.929   5.287   8.151  0.3671 -0.1949  0.1478
   37POPC  C213 4977   5.097   5.289   8.287 -0.8131  0.1374 -1.2510
   37POPC  H13R 4978   5.046   5.373   8.339 -0.4143 -0.4145  0.0752
   37POPC  H13S 4979   5.202   5.324   8.280 -0.4058  0.2661  2.9408
   37POPC  C214 4980   5.076   5.163   8.379 -0.4206  0.1697  0.3000
   37POPC  H14R 4981   5.110   5.070   8.329  2.6789  1.1125  0.4178
   37POPC  H14S 4982   4.972   5.153   8.416 -0.0829  0.5124  1.4124
   37POPC  C215 4983   5.166   5.175   8.504 -0.9307  0.4746  0.9147
   37POPC  H15R 4984   5.165   5.278   8.546  0.1689  0.5793  0.7021
   37POPC  H15S 4985   5.261   5.160   8.449 -2.2160  1.6761 -1.8318
   37POPC  C216 4986   5.152   5.062   8.608 -0.6199  0.2858  0.1708
   37POPC  H16R 4987   5.161   4.963   8.559 -1.9579  0.7696 -1.1642
   37POPC  H16S 4988   5.048   5.057   8.649 -0.4562  0.3820  0.5978
   37POPC  C217 4989   5.264   5.065   8.721 -0.2897 -0.3039 -0.8063
   37POPC  H17R 4990   5.248   5.155   8.784  0.2868 -2.0477  1.9916
   37POPC  H17S 4991   5.362   5.069   8.669 -0.1902 -1.7328 -0.7441
   37POPC  C218 4992   5.270   4.937   8.809 -0.6842 -0.4120 -0.5546
   37POPC  H18R 4993   5.335   4.954   8.897 -1.1494 -1.6640  0.0466
   37POPC  H18S 4994   5.313   4.849   8.757  2.0729  0.2210  0.4656
   37POPC  H18T 4995   5.175   4.908   8.858  0.7107 -2.6679  0.9971
   37POPC   C33 4996   4.731   6.211   7.097  0.3672 -1.0199 -0.5232
   37POPC   H3X 4997   4.625   6.242   7.098  0.8401  0.7752  1.5266
   37POPC   H3Y 4998   4.777   6.259   7.008 -0.0812 -0.3043 -0.3770
   37POPC   C34 4999   4.791   6.293   7.211  0.0255  0.0350 -0.7817
   37POPC   H4X 5000   4.810   6.393   7.167 -1.9805 -0.3076 -2.5493
   37POPC   H4Y 5001   4.897   6.260   7.226  0.1787  0.6924 -0.4034
   37POPC   C35 5002   4.709   6.272   7.342 -0.5352 -0.3768 -0.2951
   37POPC   H5X 5003   4.714   6.167   7.379 -0.1967 -0.1585  0.2967
   37POPC   H5Y 5004   4.604   6.308   7.348 -0.2921  0.9441 -2.7001
   37POPC   C36 5005   4.774   6.338   7.471  0.3692  0.4318  0.4727
   37POPC   H6X 5006   4.823   6.432   7.437  0.6573  0.5945  1.3236
   37POPC   H6Y 5007   4.853   6.271   7.510 -0.7998 -0.9364  0.5531
   37POPC   C37 5008   4.669   6.355   7.587 -0.2828 -0.5934 -0.0016
   37POPC   H7X 5009   4.576   6.408   7.557 -0.0373  1.0639  1.9089
   37POPC   H7Y 5010   4.711   6.416   7.670 -2.2899 -2.3332  2.4348
   37POPC   C38 5011   4.606   6.223   7.635 -0.9244  0.7733  0.7851
   37POPC   H8X 5012   4.680   6.141   7.639  0.8336  2.3202  3.1100
   37POPC   H8Y 5013   4.517   6.196   7.575 -0.7777 -1.2994  1.4250
   37POPC   C39 5014   4.555   6.242   7.772  0.0602 -0.2433  1.0525
   37POPC   H9X 5015   4.505   6.341   7.777  1.0483  0.2220  2.0457
   37POPC   H9Y 5016   4.645   6.248   7.836 -0.5490  1.0196  1.8318
   37POPC  C310 5017   4.465   6.129   7.817  0.0535 -0.2839  0.4454
   37POPC  H10X 5018   4.525   6.036   7.823 -1.0494 -0.9822  0.9953
   37POPC  H10Y 5019   4.387   6.099   7.744 -0.8211  0.9994  0.8196
   37POPC  C311 5020   4.405   6.141   7.959  0.2180 -0.9320  0.1117
   37POPC  H11X 5021   4.336   6.058   7.987 -0.6202 -0.1144  0.5521
   37POPC  H11Y 5022   4.354   6.239   7.960  0.0339 -1.0237 -0.2125
   37POPC  C312 5023   4.511   6.140   8.072 -0.1730  0.0432 -0.0122
   37POPC  H12X 5024   4.578   6.225   8.048 -0.5752 -0.1320 -1.9598
   37POPC  H12Y 5025   4.578   6.052   8.062  0.5071  0.7901 -3.8517
   37POPC  C313 5026   4.455   6.153   8.218  0.3886  0.8098  0.3597
   37POPC  H13X 5027   4.366   6.219   8.224  0.0140  0.3669 -0.2000
   37POPC  H13Y 5028   4.542   6.176   8.283  0.1360  0.4069  0.8390
   37POPC  C314 5029   4.391   6.023   8.263 -0.3754 -0.4875 -0.7552
   37POPC  H14X 5030   4.461   5.937   8.251 -0.6419 -0.5004 -2.3106
   37POPC  H14Y 5031   4.307   5.994   8.197 -0.1110  1.2231 -1.8904
   37POPC  C315 5032   4.358   6.027   8.419  0.3956  0.3324  0.2057
   37POPC  H15X 5033   4.320   5.932   8.463  2.1879 -0.3909  0.2808
   37POPC  H15Y 5034   4.269   6.093   8.425 -1.0338 -1.3824 -0.9717
   37POPC  C316 5035   4.462   6.094   8.509  0.3585 -0.0843  0.4667
   37POPC  H16X 5036   4.482   6.200   8.485  1.4725  0.3123  2.8966
   37POPC  H16Y 5037   4.550   6.027   8.504  0.6199  0.1631  1.5630
   37POPC  H16Z 5038   4.431   6.093   8.616  1.1168 -0.5512  0.6887
   38POPC     N 5039   6.337   0.727   6.208  0.2502 -0.2414 -1.3034
   38POPC   C12 5040   6.394   0.624   6.301 -0.8510  0.3388  0.2543
   38POPC  H12A 5041   6.460   0.564   6.240  1.0860  0.1463  2.4076
   38POPC  H12B 5042   6.309   0.566   6.336 -2.0523  1.8554 -0.0301
   38POPC   C13 5043   6.230   0.816   6.281  0.2621 -0.2822  0.0473
   38POPC  H13A 5044   6.212   0.898   6.212  0.6371 -0.6793 -0.5348
   38POPC  H13B 5045   6.139   0.763   6.306 -0.3882  0.0879 -1.4412
   38POPC  H13C 5046   6.264   0.871   6.368  0.5911 -1.5607  0.7571
   38POPC   C14 5047   6.438   0.820   6.157 -0.4964  0.0330  0.4406
   38POPC  H14A 5048   6.393   0.879   6.078 -2.9078 -3.5636 -1.1488
   38POPC  H14B 5049   6.477   0.882   6.236  0.2531 -2.6945  2.3539
   38POPC  H14C 5050   6.517   0.764   6.109  0.0780  0.6763  0.6263
   38POPC   C15 5051   6.278   0.663   6.088  0.3840  0.6457  0.5112
   38POPC  H15A 5052   6.240   0.746   6.031  0.2902  1.4488  1.7102
   38POPC  H15B 5053   6.208   0.581   6.090  1.6295 -0.4276  1.2716
   38POPC  H15C 5054   6.359   0.617   6.032  0.3466 -0.2259  1.1544
   38POPC   C11 5055   6.478   0.669   6.429  0.0916  0.8069  0.5070
   38POPC  H11A 5056   6.474   0.576   6.489 -2.1236 -0.4426 -1.3919
   38POPC  H11B 5057   6.442   0.748   6.499  1.2730  1.1467  0.7611
   38POPC     P 5058   6.719   0.605   6.345 -0.2294  0.3549 -0.0054
   38POPC   O13 5059   6.815   0.670   6.254  0.2313  0.8829 -0.0176
   38POPC   O14 5060   6.661   0.481   6.287  0.1977 -0.2259  0.1792
   38POPC   O12 5061   6.605   0.704   6.380 -0.1178  0.0831 -0.1468
   38POPC   O11 5062   6.779   0.578   6.492  0.5815  0.6806 -1.0367
   38POPC    C1 5063   6.857   0.680   6.559 -0.2931  0.7553  0.4077
   38POPC    HA 5064   6.836   0.784   6.526 -1.0795  0.9539  1.4763
   38POPC    HB 5065   6.965   0.663   6.539 -0.4273 -0.3868  0.5664
   38POPC    C2 5066   6.851   0.667   6.707 -0.6287 -0.3563  0.7768
   38POPC    HS 5067   6.855   0.558   6.729  1.7886 -1.6054 -4.2831
   38POPC   O21 5068   6.734   0.735   6.758  0.5649  0.2386  0.0955
   38POPC   C21 5069   6.628   0.657   6.759 -0.2348  0.6751 -0.0442
   38POPC   O22 5070   6.627   0.535   6.748  0.0071  0.4484  0.2271
   38POPC   C22 5071   6.504   0.733   6.777 -0.1738  0.3678 -0.5228
   38POPC   H2R 5072   6.433   0.714   6.694  0.2403  0.8705 -0.9937
   38POPC   H2S 5073   6.530   0.841   6.775  0.2050  0.2908  0.0925
   38POPC    C3 5074   6.978   0.735   6.765 -0.4032  0.2142 -0.1936
   38POPC    HX 5075   6.956   0.843   6.750  0.1280  0.2958 -0.4018
   38POPC    HY 5076   7.076   0.712   6.718 -0.0023  2.8688 -0.8584
   38POPC   O31 5077   6.990   0.722   6.907  0.0616  0.4946 -0.3653
   38POPC   C31 5078   7.010   0.594   6.948 -0.1007  0.1109  0.3940
   38POPC   O32 5079   7.016   0.496   6.877  0.2680  0.3894  0.4248
   38POPC   C32 5080   7.049   0.601   7.093  0.0878  0.1020  0.1825
   38POPC   H2X 5081   6.998   0.684   7.146 -1.8667 -2.0723  1.9267
   38POPC   H2Y 5082   7.157   0.625   7.094  0.6397 -2.0376 -1.4249
   38POPC   C23 5083   6.438   0.694   6.915 -0.1970 -0.0560  0.8840
   38POPC   H3R 5084   6.421   0.584   6.916  0.1591 -0.1375  3.4534
   38POPC   H3S 5085   6.341   0.747   6.904 -0.3955 -0.5811 -0.1223
   38POPC   C24 5086   6.510   0.737   7.038 -0.0153 -0.1101  0.1593
   38POPC   H4R 5087   6.547   0.841   7.027  0.6469 -0.2943  0.5857
   38POPC   H4S 5088   6.595   0.671   7.067  1.2947  0.4043 -2.2778
   38POPC   C25 5089   6.416   0.725   7.161  0.6217 -0.7271  0.4518
   38POPC   H5R 5090   6.353   0.634   7.168  0.9017 -0.8151  2.0719
   38POPC   H5S 5091   6.354   0.817   7.168 -0.2902 -1.3622  0.9669
   38POPC   C26 5092   6.489   0.728   7.292  0.0098 -0.7371 -0.0859
   38POPC   H6R 5093   6.566   0.807   7.284 -0.0769 -0.7294 -0.9559
   38POPC   H6S 5094   6.525   0.623   7.300 -0.9419 -1.0311  0.3994
   38POPC   C27 5095   6.403   0.743   7.418 -1.0269 -0.1087 -0.7908
   38POPC   H7R 5096   6.341   0.651   7.426 -2.6053  1.0665  1.3516
   38POPC   H7S 5097   6.343   0.836   7.414  0.5450  0.9954  0.0090
   38POPC   C28 5098   6.494   0.752   7.538 -0.4272  0.8996 -0.6548
   38POPC   H8R 5099   6.445   0.811   7.618  0.3224 -0.0719  0.5729
   38POPC   H8S 5100   6.577   0.816   7.502 -1.1062  1.8124 -0.6280
   38POPC   C29 5101   6.548   0.611   7.587  0.0945  0.4092  1.5118
   38POPC   H91 5102   6.627   0.567   7.525 -0.4509  1.0179  0.3623
   38POPC  C210 5103   6.504   0.542   7.690  0.4395 -0.1847 -0.4250
   38POPC  H101 5104   6.547   0.443   7.710  0.9548  0.3233  1.0873
   38POPC  C211 5105   6.398   0.578   7.800  0.6936 -0.1938  0.6193
   38POPC  H11R 5106   6.306   0.573   7.737  1.1544  0.9936 -0.1953
   38POPC  H11S 5107   6.412   0.676   7.851 -1.6365 -0.0808  1.1520
   38POPC  C212 5108   6.394   0.489   7.922 -0.4185  0.0173 -0.8596
   38POPC  H12R 5109   6.494   0.501   7.969 -1.0094 -0.1941  0.5254
   38POPC  H12S 5110   6.372   0.382   7.899  1.2122 -0.6202  0.3402
   38POPC  C213 5111   6.288   0.530   8.028 -0.0241 -0.7798  0.1426
   38POPC  H13R 5112   6.198   0.538   7.964  1.5366 -0.0864 -2.0836
   38POPC  H13S 5113   6.296   0.639   8.044 -0.0863 -0.6468 -0.6935
   38POPC  C214 5114   6.288   0.454   8.157  1.0149 -0.2472 -0.2471
   38POPC  H14R 5115   6.382   0.466   8.214  1.3927 -1.0777 -0.6652
   38POPC  H14S 5116   6.268   0.347   8.130  0.7718 -0.3693  0.4129
   38POPC  C215 5117   6.168   0.511   8.238 -0.0407 -0.2999 -0.7663
   38POPC  H15R 5118   6.073   0.495   8.183 -0.4312  1.6104 -0.7083
   38POPC  H15S 5119   6.170   0.619   8.264  0.3015 -1.0090  2.6271
   38POPC  C216 5120   6.148   0.415   8.358  0.1627 -1.0305 -1.0488
   38POPC  H16R 5121   6.250   0.389   8.394  0.6686  0.9234 -0.9167
   38POPC  H16S 5122   6.096   0.319   8.341  0.8024 -1.2824 -1.6714
   38POPC  C217 5123   6.089   0.484   8.482 -0.8269  0.5869 -0.1482
   38POPC  H17R 5124   5.987   0.523   8.461 -0.7786  0.8868  0.1518
   38POPC  H17S 5125   6.152   0.576   8.486  0.6028 -0.3858  0.4158
   38POPC  C218 5126   6.103   0.413   8.618 -0.4060  0.5370  0.1809
   38POPC  H18R 5127   6.045   0.321   8.638  1.5978 -0.4529  1.8665
   38POPC  H18S 5128   6.096   0.484   8.704  0.6856 -0.4438  1.1176
   38POPC  H18T 5129   6.207   0.375   8.622 -1.5159 -2.9688 -0.6513
   38POPC   C33 5130   7.031   0.467   7.167 -0.6123  0.1379 -0.4952
   38POPC   H3X 5131   7.107   0.388   7.146  0.4221  0.5216  1.5527
   38POPC   H3Y 5132   6.934   0.421   7.140 -0.8010 -0.4198  1.0089
   38POPC   C34 5133   7.019   0.474   7.321 -0.1168 -0.2437  0.0600
   38POPC   H4X 5134   6.938   0.548   7.338 -0.6652 -0.8920  0.3180
   38POPC   H4Y 5135   7.112   0.528   7.350 -2.0028  3.4785 -0.2631
   38POPC   C35 5136   6.985   0.344   7.383  1.1943  0.4210 -0.0046
   38POPC   H5X 5137   7.068   0.269   7.380  1.8537  1.0857  1.1812
   38POPC   H5Y 5138   6.905   0.304   7.317  0.9561 -0.7900  0.9797
   38POPC   C36 5139   6.942   0.356   7.531 -0.2016  0.3081  0.2393
   38POPC   H6X 5140   6.879   0.447   7.545  0.2785  0.4601  1.5634
   38POPC   H6Y 5141   7.034   0.389   7.583 -0.2050  0.9628 -0.1645
   38POPC   C37 5142   6.885   0.228   7.580 -0.1943  0.4910  0.0973
   38POPC   H7X 5143   6.940   0.149   7.527  0.6257  1.4211 -0.4756
   38POPC   H7Y 5144   6.778   0.227   7.552 -0.0526  2.6398 -0.7171
   38POPC   C38 5145   6.897   0.206   7.734 -0.1234 -0.6804  0.1907
   38POPC   H8X 5146   7.005   0.209   7.760 -0.6462  0.8263  2.5186
   38POPC   H8Y 5147   6.859   0.106   7.761 -1.0814 -0.0933  1.1024
   38POPC   C39 5148   6.822   0.303   7.830  0.5827  0.1342  0.1669
   38POPC   H9X 5149   6.714   0.297   7.804  1.1808  0.1114 -2.6065
   38POPC   H9Y 5150   6.839   0.407   7.793 -0.6025 -0.3675 -2.0124
   38POPC  C310 5151   6.849   0.279   7.976  0.2100  0.5876  0.3295
   38POPC  H10X 5152   6.850   0.168   7.984  1.7489  0.4917 -0.7000
   38POPC  H10Y 5153   6.759   0.326   8.022  0.4396  0.8141  0.5523
   38POPC  C311 5154   6.978   0.343   8.024  1.0810 -0.5465 -0.3910
   38POPC  H11X 5155   6.959   0.452   8.038  2.8663 -0.2422 -0.1495
   38POPC  H11Y 5156   7.061   0.320   7.954  0.4671 -0.5404 -1.1437
   38POPC  C312 5157   7.026   0.281   8.153  0.1461 -0.2545 -0.7190
   38POPC  H12X 5158   7.068   0.181   8.128 -1.2915 -1.1562  0.3230
   38POPC  H12Y 5159   6.935   0.266   8.214 -0.4753 -0.5074 -1.6737
   38POPC  C313 5160   7.128   0.363   8.233  0.0613 -0.4943 -0.4225
   38POPC  H13X 5161   7.101   0.471   8.232 -1.1128 -0.7543  0.6925
   38POPC  H13Y 5162   7.234   0.353   8.200  0.7970  3.1806  0.4429
   38POPC  C314 5163   7.116   0.313   8.380  0.1238 -0.1041  0.3991
   38POPC  H14X 5164   7.137   0.204   8.378 -0.3227 -0.1876 -1.1240
   38POPC  H14Y 5165   7.010   0.332   8.406 -1.1081 -1.8136 -2.7336
   38POPC  C315 5166   7.224   0.379   8.479  0.9397 -0.4988 -0.1653
   38POPC  H15X 5167   7.174   0.452   8.546  1.3717 -0.4397  0.0920
   38POPC  H15Y 5168   7.282   0.429   8.399  1.4844 -0.5579  0.1902
   38POPC  C316 5169   7.333   0.303   8.557 -0.3583  0.5736  0.0503
   38POPC  H16X 5170   7.408   0.381   8.581  1.6100 -0.6247 -1.7997
   38POPC  H16Y 5171   7.399   0.233   8.501  2.8077  2.2269  1.4840
   38POPC  H16Z 5172   7.294   0.249   8.646  0.4849  1.5473  1.0358
   39POPC     N 5173   3.015   4.385   6.224 -0.5015  0.1489  0.5911
   39POPC   C12 5174   3.145   4.476   6.251 -0.3869 -1.3851 -0.0781
   39POPC  H12A 5175   3.214   4.456   6.170 -2.5308 -1.8805 -1.8884
   39POPC  H12B 5176   3.185   4.441   6.345 -0.0499 -0.4506  0.1315
   39POPC   C13 5177   3.054   4.239   6.226  0.0551 -0.6670  0.5360
   39POPC  H13A 5178   2.968   4.181   6.199 -0.7480  0.7722 -0.1241
   39POPC  H13B 5179   3.138   4.224   6.159 -0.0795 -0.1391  0.2417
   39POPC  H13C 5180   3.084   4.209   6.325 -0.9208 -1.2261  0.6666
   39POPC   C14 5181   2.908   4.384   6.330 -0.9290  0.4176  0.3632
   39POPC  H14A 5182   2.887   4.489   6.349 -0.5979  0.0701  2.9615
   39POPC  H14B 5183   2.824   4.321   6.305 -0.6039 -0.2277  0.8851
   39POPC  H14C 5184   2.950   4.357   6.426 -0.0595  1.4285  0.2868
   39POPC   C15 5185   2.958   4.418   6.088  0.1947 -0.3661  0.9349
   39POPC  H15A 5186   3.029   4.425   6.008 -0.5221  0.0494  0.3212
   39POPC  H15B 5187   2.917   4.517   6.097  0.9177  0.1195 -0.8338
   39POPC  H15C 5188   2.882   4.346   6.059  0.3265 -0.5124  0.9512
   39POPC   C11 5189   3.128   4.632   6.253  0.1188  1.0019  0.0062
   39POPC  H11A 5190   3.224   4.665   6.298 -0.7834  0.9253  2.0795
   39POPC  H11B 5191   3.037   4.646   6.316 -1.6007 -0.5590 -1.9647
   39POPC     P 5192   3.078   4.829   6.093  0.0411 -0.3065 -0.2330
   39POPC   O13 5193   3.045   4.839   5.948 -0.4107 -0.0205 -0.3506
   39POPC   O14 5194   3.195   4.907   6.143  0.1003  0.2005 -0.0500
   39POPC   O12 5195   3.106   4.675   6.119 -0.4100  0.2195 -0.2906
   39POPC   O11 5196   2.958   4.860   6.179  0.2979  0.1006 -0.2931
   39POPC    C1 5197   2.928   4.988   6.239 -0.2692  0.7862 -0.3057
   39POPC    HA 5198   2.825   5.020   6.211 -0.3132 -0.0707 -1.1883
   39POPC    HB 5199   2.999   5.065   6.203  0.0207  0.6302 -0.0688
   39POPC    C2 5200   2.919   4.972   6.392 -0.4904  0.3482  0.5919
   39POPC    HS 5201   2.897   5.072   6.433 -3.6088 -0.1132  0.3091
   39POPC   O21 5202   3.036   4.905   6.434 -0.5464  0.1335 -0.0755
   39POPC   C21 5203   3.138   4.984   6.455  0.2647 -0.8873  0.5577
   39POPC   O22 5204   3.145   5.106   6.429  0.4743  0.3198  0.1258
   39POPC   C22 5205   3.250   4.891   6.495  0.1433  0.4631 -0.4236
   39POPC   H2R 5206   3.300   4.847   6.406 -0.5240 -2.9019  0.7178
   39POPC   H2S 5207   3.198   4.802   6.536 -1.0847  0.5924 -1.6358
   39POPC    C3 5208   2.789   4.892   6.437 -0.2414  0.3125  0.1317
   39POPC    HX 5209   2.792   4.792   6.388  2.1132 -0.1622  1.1034
   39POPC    HY 5210   2.702   4.946   6.394  0.4968  1.6586  0.2839
   39POPC   O31 5211   2.779   4.894   6.578 -0.5849  0.5327  0.0032
   39POPC   C31 5212   2.781   4.777   6.641 -0.0309  0.2152  0.1803
   39POPC   O32 5213   2.784   4.666   6.588  0.1755 -0.3462 -0.1491
   39POPC   C32 5214   2.764   4.789   6.790  0.3002 -0.1495 -0.7736
   39POPC   H2X 5215   2.768   4.898   6.809  0.2698 -0.2381 -0.2668
   39POPC   H2Y 5216   2.663   4.753   6.819  0.8318 -0.1509  1.2213
   39POPC   C23 5217   3.344   4.947   6.609  0.3519  0.6341  0.5802
   39POPC   H3R 5218   3.401   5.029   6.560  0.6996  1.3670  2.1398
   39POPC   H3S 5219   3.415   4.863   6.625 -0.9079 -0.4364  0.7240
   39POPC   C24 5220   3.284   5.005   6.733 -0.4266 -0.0897 -0.4637
   39POPC   H4R 5221   3.176   5.021   6.714 -0.7204 -1.3808  0.0302
   39POPC   H4S 5222   3.338   5.100   6.755 -1.0200 -0.0911  1.1907
   39POPC   C25 5223   3.289   4.916   6.851  0.8586 -0.3187  0.4098
   39POPC   H5R 5224   3.380   4.852   6.851  0.0748 -1.4636  0.7235
   39POPC   H5S 5225   3.199   4.851   6.858  0.8342 -0.4721 -1.0959
   39POPC   C26 5226   3.285   4.984   6.988  0.5741 -0.4514 -0.9080
   39POPC   H6R 5227   3.352   5.072   6.990 -1.2827  1.1516  3.6648
   39POPC   H6S 5228   3.321   4.915   7.067 -1.6787 -1.2017 -0.4807
   39POPC   C27 5229   3.144   5.036   7.027  0.0188 -0.3999 -0.1739
   39POPC   H7R 5230   3.066   4.957   7.041  0.0889 -0.5800 -0.7422
   39POPC   H7S 5231   3.104   5.101   6.946 -1.8120 -0.8630  0.2988
   39POPC   C28 5232   3.126   5.125   7.153  0.2880 -0.4150  0.2062
   39POPC   H8R 5233   3.174   5.075   7.240 -0.3437  1.6447  1.8222
   39POPC   H8S 5234   3.017   5.148   7.162  0.8759  1.9222  3.3239
   39POPC   C29 5235   3.197   5.256   7.134 -0.2331  0.6749  0.3346
   39POPC   H91 5236   3.238   5.287   7.037  0.8735  1.1209  0.9296
   39POPC  C210 5237   3.241   5.338   7.236 -0.1235 -0.1064  0.3183
   39POPC  H101 5238   3.293   5.426   7.195  0.8300 -1.5327 -1.6964
   39POPC  C211 5239   3.232   5.325   7.381  0.4625  0.2328  0.0748
   39POPC  H11R 5240   3.186   5.226   7.403  1.6906 -0.3720  0.0084
   39POPC  H11S 5241   3.165   5.405   7.418 -1.1574 -0.9028 -0.2905
   39POPC  C212 5242   3.370   5.325   7.451  0.3000 -0.2762 -0.3155
   39POPC  H12R 5243   3.430   5.414   7.422 -1.5343  1.4968  0.9594
   39POPC  H12S 5244   3.427   5.232   7.436  0.9737 -0.3530  2.3252
   39POPC  C213 5245   3.341   5.321   7.607  0.7538  0.4821 -0.9151
   39POPC  H13R 5246   3.430   5.275   7.654  0.1655 -0.1220 -0.3809
   39POPC  H13S 5247   3.253   5.255   7.624  2.2066 -0.9693  1.4225
   39POPC  C214 5248   3.324   5.458   7.671  0.2659 -0.6629 -0.2078
   39POPC  H14R 5249   3.247   5.505   7.607  0.3055 -2.5414 -1.7224
   39POPC  H14S 5250   3.418   5.517   7.665 -0.0025 -0.2540 -0.3913
   39POPC  C215 5251   3.274   5.459   7.812 -0.0947 -0.1494 -0.1352
   39POPC  H15R 5252   3.188   5.389   7.815  0.0273 -0.2874  1.6333
   39POPC  H15S 5253   3.242   5.564   7.830  3.4974  0.6873  2.6985
   39POPC  C216 5254   3.392   5.427   7.909  0.4174 -0.8762 -0.6980
   39POPC  H16R 5255   3.451   5.521   7.909  0.7994 -1.0894 -1.9635
   39POPC  H16S 5256   3.450   5.345   7.862 -1.2326 -2.1224 -0.6705
   39POPC  C217 5257   3.346   5.374   8.046 -0.2662 -0.2080 -0.4720
   39POPC  H17R 5258   3.312   5.268   8.043 -2.1666  0.3404  0.2121
   39POPC  H17S 5259   3.254   5.426   8.078 -0.4492 -0.7498 -0.0961
   39POPC  C218 5260   3.458   5.367   8.147 -0.4866  0.1446 -0.2077
   39POPC  H18R 5261   3.544   5.310   8.104 -0.1603  1.1254 -0.8788
   39POPC  H18S 5262   3.421   5.319   8.241  0.6631 -0.7999 -0.2065
   39POPC  H18T 5263   3.492   5.469   8.175 -1.3771 -0.0688  1.8161
   39POPC   C33 5264   2.864   4.709   6.869  0.2677  0.4571 -0.1718
   39POPC   H3X 5265   2.969   4.716   6.835 -0.6990  1.2452 -3.4585
   39POPC   H3Y 5266   2.838   4.602   6.853 -1.5538  0.9236 -0.5713
   39POPC   C34 5267   2.851   4.753   7.014 -0.3597 -0.0344  0.3071
   39POPC   H4X 5268   2.747   4.736   7.051 -1.8132 -1.2578 -3.8226
   39POPC   H4Y 5269   2.888   4.857   7.020  1.5341 -0.5289 -1.5601
   39POPC   C35 5270   2.951   4.666   7.103 -0.5625 -0.2953  0.1418
   39POPC   H5X 5271   3.053   4.702   7.079 -1.8730  3.3925 -0.5805
   39POPC   H5Y 5272   2.938   4.559   7.078  1.6411 -0.3970 -0.7805
   39POPC   C36 5273   2.923   4.696   7.252 -0.3456 -0.5329  0.1285
   39POPC   H6X 5274   2.819   4.664   7.272 -0.9324  1.2562  0.0915
   39POPC   H6Y 5275   2.926   4.807   7.262  0.3646 -0.4510 -0.8565
   39POPC   C37 5276   3.016   4.635   7.355 -0.4527 -0.5022 -0.4186
   39POPC   H7X 5277   3.120   4.674   7.344  0.2112 -2.1418 -0.3563
   39POPC   H7Y 5278   3.010   4.526   7.335 -1.8321 -0.2614 -1.4043
   39POPC   C38 5279   2.957   4.664   7.505 -0.4315 -0.1959  0.5804
   39POPC   H8X 5280   2.969   4.570   7.563 -1.8105 -0.0961  1.0591
   39POPC   H8Y 5281   2.848   4.687   7.496 -0.1972  0.3865 -1.1316
   39POPC   C39 5282   3.019   4.792   7.552 -0.1874  0.2010 -0.5718
   39POPC   H9X 5283   3.009   4.872   7.475  0.9798  0.2722 -0.6657
   39POPC   H9Y 5284   3.125   4.762   7.561 -0.1770  0.2366 -0.5737
   39POPC  C310 5285   2.960   4.851   7.681 -0.1412 -0.2181  0.2580
   39POPC  H10X 5286   2.972   4.781   7.767  2.3507  0.3757  0.4825
   39POPC  H10Y 5287   2.858   4.892   7.673 -0.0296  1.1570  4.0968
   39POPC  C311 5288   3.044   4.976   7.710 -0.2834  0.4538 -0.4286
   39POPC  H11X 5289   3.035   5.050   7.628 -1.4198  1.0075  0.1751
   39POPC  H11Y 5290   3.149   4.941   7.723  0.5417  2.7768 -0.3986
   39POPC  C312 5291   3.018   5.041   7.847 -0.5120 -0.2952  0.1543
   39POPC  H12X 5292   2.909   5.061   7.855 -0.2123  1.7566 -0.4819
   39POPC  H12Y 5293   3.071   5.138   7.850  0.4451 -0.8310  3.2664
   39POPC  C313 5294   3.054   4.959   7.969  0.5349  0.6461 -0.2860
   39POPC  H13X 5295   3.139   4.891   7.946  0.4073 -0.3558  1.9719
   39POPC  H13Y 5296   2.971   4.890   7.994 -0.4172  2.3174  1.4512
   39POPC  C314 5297   3.095   5.043   8.087 -0.1630 -0.1506  0.1492
   39POPC  H14X 5298   3.027   5.130   8.096  3.2786  2.6009  1.8968
   39POPC  H14Y 5299   3.197   5.084   8.071 -0.5221  1.2351  1.2537
   39POPC  C315 5300   3.078   4.970   8.219 -0.0390 -0.6120 -0.6467
   39POPC  H15X 5301   3.146   4.883   8.221  0.9596  0.1380  1.7216
   39POPC  H15Y 5302   2.972   4.937   8.225 -0.3377  0.4874  0.6267
   39POPC  C316 5303   3.104   5.065   8.340  0.7483  0.0925  0.4725
   39POPC  H16X 5304   3.206   5.109   8.338  0.9575 -0.2554 -2.9941
   39POPC  H16Y 5305   3.093   5.011   8.437 -1.8942  2.9737  1.9366
   39POPC  H16Z 5306   3.028   5.146   8.338 -0.4853 -1.0267 -0.6250
   40POPC     N 5307   2.529   3.876   6.245 -0.1135  0.4864 -0.1135
   40POPC   C12 5308   2.563   3.787   6.365 -0.0861 -0.1079 -0.4184
   40POPC  H12A 5309   2.466   3.758   6.403 -0.4778  2.1059  0.4203
   40POPC  H12B 5310   2.604   3.854   6.439 -0.0682  0.4764 -0.9393
   40POPC   C13 5311   2.461   3.800   6.140 -0.0350  0.4527 -0.3194
   40POPC  H13A 5312   2.539   3.734   6.104  1.0593  1.2474  0.4867
   40POPC  H13B 5313   2.382   3.735   6.176 -0.1108  0.1162 -1.0881
   40POPC  H13C 5314   2.426   3.865   6.061  0.0546  0.0834 -0.6654
   40POPC   C14 5315   2.425   3.977   6.286 -0.6226 -0.4122 -0.3720
   40POPC  H14A 5316   2.325   3.938   6.297 -0.6801  0.2626  1.7983
   40POPC  H14B 5317   2.462   4.028   6.374 -0.9623 -2.2004  0.8694
   40POPC  H14C 5318   2.410   4.049   6.207  2.1082  0.9315  0.2079
   40POPC   C15 5319   2.656   3.934   6.187  0.1600 -0.0242 -0.2696
   40POPC  H15A 5320   2.641   4.003   6.105 -0.1291 -0.2241 -0.3860
   40POPC  H15B 5321   2.728   3.861   6.153  1.0567  0.8057 -0.1981
   40POPC  H15C 5322   2.711   3.991   6.260  0.9503 -2.8239  1.4414
   40POPC   C11 5323   2.655   3.663   6.353 -0.0358  0.0707 -0.3247
   40POPC  H11A 5324   2.696   3.630   6.451 -3.1297 -0.7119  0.8068
   40POPC  H11B 5325   2.739   3.696   6.287  1.0537 -0.9017  0.5335
   40POPC     P 5326   2.487   3.469   6.360 -0.0096 -0.2979 -0.1240
   40POPC   O13 5327   2.480   3.337   6.288 -0.4050 -0.5862 -0.1913
   40POPC   O14 5328   2.360   3.541   6.366  0.0837 -0.1629 -0.2323
   40POPC   O12 5329   2.590   3.558   6.289 -0.1988 -0.2168 -0.4833
   40POPC   O11 5330   2.548   3.457   6.503  0.1054  0.1004  0.5004
   40POPC    C1 5331   2.567   3.324   6.554  0.3855 -0.4188  0.0864
   40POPC    HA 5332   2.583   3.243   6.480 -0.2834 -0.7231  0.2675
   40POPC    HB 5333   2.469   3.299   6.599 -0.3430 -0.3034 -1.3474
   40POPC    C2 5334   2.679   3.319   6.664 -0.2954  0.4222  0.5154
   40POPC    HS 5335   2.735   3.227   6.638  0.2126  1.1411 -1.0722
   40POPC   O21 5336   2.618   3.319   6.790 -0.8840 -0.2591  0.2914
   40POPC   C21 5337   2.542   3.214   6.825  0.8283 -0.4152  0.1785
   40POPC   O22 5338   2.525   3.116   6.753  0.2728 -0.7988 -1.2640
   40POPC   C22 5339   2.475   3.236   6.960  0.1557  0.1318 -0.7488
   40POPC   H2R 5340   2.541   3.312   7.007  1.0786 -1.7864  1.2542
   40POPC   H2S 5341   2.489   3.146   7.025  0.8825 -0.1071 -1.2220
   40POPC    C3 5342   2.780   3.431   6.648 -0.4135 -0.7815  0.1360
   40POPC    HX 5343   2.727   3.521   6.685 -0.0065 -0.2252 -0.6246
   40POPC    HY 5344   2.812   3.439   6.542 -0.6970  2.5878  0.2067
   40POPC   O31 5345   2.896   3.412   6.734 -0.5924 -0.0577  0.6910
   40POPC   C31 5346   2.971   3.517   6.739 -0.3813 -0.9658 -0.7308
   40POPC   O32 5347   2.950   3.627   6.688  0.2278  0.1109  0.0722
   40POPC   C32 5348   3.092   3.494   6.833 -0.3550  0.9725  0.5694
   40POPC   H2X 5349   3.163   3.580   6.829  0.0993  0.5950  0.4399
   40POPC   H2Y 5350   3.151   3.405   6.801  0.0315  0.2907  3.0045
   40POPC   C23 5351   2.338   3.297   6.949  0.9142 -0.2314 -0.1618
   40POPC   H3R 5352   2.261   3.241   6.894  0.2195  2.2833 -1.9396
   40POPC   H3S 5353   2.341   3.382   6.878  0.6430 -1.5024 -1.7294
   40POPC   C24 5354   2.292   3.343   7.091 -0.6751 -0.2422  0.5175
   40POPC   H4R 5355   2.208   3.415   7.081 -0.6097 -0.3383 -0.7824
   40POPC   H4S 5356   2.373   3.390   7.151 -1.0575  1.4338 -0.2195
   40POPC   C25 5357   2.230   3.234   7.179  0.8286  0.4740  0.3522
   40POPC   H5R 5358   2.290   3.142   7.160  1.7892  1.3165 -0.8969
   40POPC   H5S 5359   2.129   3.213   7.138  1.1698  1.4183 -1.0675
   40POPC   C26 5360   2.226   3.264   7.329  0.4471 -0.8499 -0.0649
   40POPC   H6R 5361   2.192   3.369   7.344  1.6895 -0.3560 -0.5228
   40POPC   H6S 5362   2.332   3.279   7.358  0.8267  1.0925 -2.1232
   40POPC   C27 5363   2.139   3.175   7.420  0.4026 -0.4262  1.2855
   40POPC   H7R 5364   2.194   3.081   7.439  0.7623 -0.7624 -1.1354
   40POPC   H7S 5365   2.038   3.159   7.376  1.2823 -2.1336 -0.2256
   40POPC   C28 5366   2.122   3.235   7.561 -0.3785  0.3754  0.0418
   40POPC   H8R 5367   2.033   3.193   7.614 -1.0764 -1.2892 -2.2822
   40POPC   H8S 5368   2.090   3.341   7.552 -0.8325  0.1647 -0.8879
   40POPC   C29 5369   2.249   3.237   7.640 -1.0392  0.3848  0.0562
   40POPC   H91 5370   2.344   3.252   7.587  0.1307  0.3734  2.0571
   40POPC  C210 5371   2.266   3.194   7.772 -0.2195  0.3949 -0.4566
   40POPC  H101 5372   2.363   3.200   7.822 -0.0288 -0.2726 -0.7370
   40POPC  C211 5373   2.153   3.145   7.867  0.3151  0.2059  0.4266
   40POPC  H11R 5374   2.165   3.039   7.896  2.1218  1.0657  3.2135
   40POPC  H11S 5375   2.059   3.145   7.808  1.9287  1.4832 -2.3160
   40POPC  C212 5376   2.141   3.232   7.989 -0.6405 -0.0358 -0.0049
   40POPC  H12R 5377   2.044   3.215   8.040 -0.4492 -0.7402  0.1293
   40POPC  H12S 5378   2.146   3.342   7.969 -1.0085 -0.0030  0.0719
   40POPC  C213 5379   2.248   3.187   8.093  0.3686  0.5214  0.3420
   40POPC  H13R 5380   2.343   3.237   8.064  0.7022  0.0507  0.6198
   40POPC  H13S 5381   2.250   3.076   8.093  2.4731  0.5033 -0.7033
   40POPC  C214 5382   2.209   3.232   8.234 -0.0346 -0.4279  0.2493
   40POPC  H14R 5383   2.160   3.331   8.224 -1.4290 -1.1565 -0.4160
   40POPC  H14S 5384   2.302   3.246   8.293  0.1521 -0.4937 -0.0241
   40POPC  C215 5385   2.131   3.125   8.315  0.5426 -1.1660  0.3068
   40POPC  H15R 5386   2.204   3.045   8.340 -0.9526 -3.2661 -1.5428
   40POPC  H15S 5387   2.055   3.080   8.247 -1.7869  1.7492  0.7616
   40POPC  C216 5388   2.065   3.198   8.430 -0.8685 -0.8368 -0.5119
   40POPC  H16R 5389   1.973   3.245   8.388 -1.4373 -2.0538 -0.6800
   40POPC  H16S 5390   2.129   3.276   8.477 -0.1549 -0.4077 -2.1079
   40POPC  C217 5391   2.007   3.102   8.539 -0.0447 -0.3474 -0.4084
   40POPC  H17R 5392   2.097   3.054   8.583  0.0751  0.7418  0.6144
   40POPC  H17S 5393   1.935   3.027   8.499  0.5642 -0.8725 -0.5245
   40POPC  C218 5394   1.936   3.188   8.640  0.2497 -0.4716 -0.2220
   40POPC  H18R 5395   1.886   3.122   8.714  1.7658  0.2915  1.5622
   40POPC  H18S 5396   1.864   3.253   8.587  0.8012  0.4542  0.1415
   40POPC  H18T 5397   1.998   3.261   8.696 -2.4312  0.1019  2.2677
   40POPC   C33 5398   3.054   3.465   6.979  0.2781  0.3584  0.1038
   40POPC   H3X 5399   2.999   3.368   6.986 -0.1830  0.3631 -2.5698
   40POPC   H3Y 5400   2.969   3.531   7.008 -2.1650 -2.5326  0.0422
   40POPC   C34 5401   3.157   3.495   7.084 -0.0052 -0.0359  0.6321
   40POPC   H4X 5402   3.195   3.595   7.056  2.2322 -1.2183 -0.8046
   40POPC   H4Y 5403   3.251   3.436   7.081 -0.3622 -0.6111  0.5721
   40POPC   C35 5404   3.104   3.472   7.223  0.1718  0.1998 -0.4092
   40POPC   H5X 5405   3.071   3.366   7.224  3.7757 -1.0703 -1.2242
   40POPC   H5Y 5406   3.012   3.531   7.241 -1.4321 -2.0725 -0.7896
   40POPC   C36 5407   3.210   3.490   7.334 -0.4670  0.3240  0.2593
   40POPC   H6X 5408   3.248   3.594   7.346 -0.3727  0.1662  1.3790
   40POPC   H6Y 5409   3.302   3.434   7.310 -0.4741 -0.9142  2.8526
   40POPC   C37 5410   3.168   3.436   7.475 -0.1498 -0.4740 -0.3841
   40POPC   H7X 5411   3.180   3.326   7.486 -2.5025 -0.5333  2.7943
   40POPC   H7Y 5412   3.061   3.462   7.493  0.3654  0.9362  0.8723
   40POPC   C38 5413   3.247   3.499   7.597  0.2637 -0.7167  0.3286
   40POPC   H8X 5414   3.243   3.609   7.583 -0.9759 -0.7447  0.3782
   40POPC   H8Y 5415   3.350   3.458   7.590  0.2218 -1.0008  1.2488
   40POPC   C39 5416   3.178   3.478   7.733  0.6814 -0.0167 -1.8184
   40POPC   H9X 5417   3.069   3.497   7.744  0.7844 -0.6583  1.2096
   40POPC   H9Y 5418   3.231   3.543   7.806 -1.7135 -0.5355  0.5300
   40POPC  C310 5419   3.206   3.331   7.781 -0.2283 -0.0208  0.4061
   40POPC  H10X 5420   3.307   3.288   7.763 -0.6600 -0.3216 -1.5009
   40POPC  H10Y 5421   3.136   3.269   7.722  0.6474 -0.3124 -0.3579
   40POPC  C311 5422   3.162   3.300   7.924  0.5268  0.7002  0.4637
   40POPC  H11X 5423   3.186   3.192   7.933  1.5498  0.7059 -1.5498
   40POPC  H11Y 5424   3.052   3.313   7.923  0.4007 -0.1959 -1.2472
   40POPC  C312 5425   3.229   3.383   8.022  0.1659  0.2179 -0.8156
   40POPC  H12X 5426   3.209   3.491   8.001  2.5089  0.9367  0.2529
   40POPC  H12Y 5427   3.333   3.344   8.011 -1.5731 -4.4861 -3.0577
   40POPC  C313 5428   3.177   3.342   8.162  0.3013 -0.1301 -0.5915
   40POPC  H13X 5429   3.181   3.231   8.173 -1.1510 -0.2107 -0.7010
   40POPC  H13Y 5430   3.067   3.359   8.161  0.6271  2.4765 -2.2521
   40POPC  C314 5431   3.236   3.395   8.297  0.7417 -0.9134  0.2589
   40POPC  H14X 5432   3.236   3.506   8.289  1.7366 -0.9574 -0.6392
   40POPC  H14Y 5433   3.342   3.362   8.291  0.7450 -0.7893 -0.5806
   40POPC  C315 5434   3.154   3.338   8.415  0.2682 -0.1933 -0.4776
   40POPC  H15X 5435   3.148   3.228   8.401  0.8859 -0.5827  1.9688
   40POPC  H15Y 5436   3.053   3.386   8.417  0.8063  0.9544 -0.0642
   40POPC  C316 5437   3.219   3.350   8.551  0.0944 -0.1553  0.0978
   40POPC  H16X 5438   3.320   3.305   8.536  0.5751  1.5141 -2.0488
   40POPC  H16Y 5439   3.175   3.287   8.631 -0.4186  0.1204  0.0348
   40POPC  H16Z 5440   3.236   3.449   8.599 -0.3826 -0.4790  0.9674
   41CHL1    C3 5441   1.159   6.286   9.944  0.1051  0.6213  0.1210
   41CHL1    H3 5442   1.214   6.383   9.948 -0.0301  0.6962  0.1885
   41CHL1    O3 5443   1.115   6.242  10.063  0.4537 -0.2856 -0.1413
   41CHL1   H3' 5444   1.032   6.197  10.046 -0.3402  0.2795  1.9242
   41CHL1    C4 5445   1.040   6.294   9.849  0.3281 -0.2892 -0.1777
   41CHL1   H4A 5446   0.985   6.198   9.840  0.0766 -0.1105 -0.5448
   41CHL1   H4B 5447   0.971   6.373   9.885  1.0525 -0.4053  1.5995
   41CHL1    C5 5448   1.087   6.323   9.709  0.1238  0.0906  0.2675
   41CHL1    C6 5449   1.037   6.425   9.635  0.4272  0.1692 -0.7378
   41CHL1    H6 5450   0.957   6.488   9.679  0.2099 -2.0851  2.4463
   41CHL1    C7 5451   1.080   6.463   9.503 -0.0796  0.5613 -0.4651
   41CHL1   H7A 5452   1.001   6.516   9.445  1.3236  2.9141 -0.3397
   41CHL1   H7B 5453   1.157   6.542   9.514 -1.2796  1.6432  0.4324
   41CHL1    C8 5454   1.143   6.335   9.427 -0.5225  0.7099 -0.0165
   41CHL1    H8 5455   1.065   6.262   9.397  2.2319 -1.2930 -2.9676
   41CHL1   C14 5456   1.205   6.384   9.293  0.1213 -0.0462 -0.1424
   41CHL1   H14 5457   1.277   6.459   9.333 -0.0555  0.1574 -0.2059
   41CHL1   C15 5458   1.120   6.456   9.192  0.1837 -0.7491 -0.1696
   41CHL1  H15A 5459   1.027   6.398   9.176 -1.3675  0.9961  1.8339
   41CHL1  H15B 5460   1.076   6.552   9.228 -2.6828 -1.9666 -0.1614
   41CHL1   C16 5461   1.199   6.467   9.061 -0.3902  0.1214  0.0194
   41CHL1  H16A 5462   1.135   6.431   8.977 -1.4097  1.7983  0.0280
   41CHL1  H16B 5463   1.236   6.570   9.046 -0.7630  0.3024  0.3223
   41CHL1   C17 5464   1.329   6.374   9.086 -0.0100  0.6837  0.2640
   41CHL1   H17 5465   1.407   6.436   9.133  0.0603  0.4668  0.4357
   41CHL1   C13 5466   1.291   6.284   9.212 -0.2729  0.8719 -1.1018
   41CHL1   C18 5467   1.207   6.166   9.167  0.5515  0.0763 -0.2485
   41CHL1  H18A 5468   1.137   6.206   9.090  0.7268  1.1116  0.1031
   41CHL1  H18B 5469   1.278   6.099   9.115  0.8465  1.0980 -1.2057
   41CHL1  H18C 5470   1.147   6.120   9.248 -0.1100  0.0724 -0.7339
   41CHL1   C12 5471   1.398   6.237   9.307 -0.1251 -0.3079  0.0658
   41CHL1  H12A 5472   1.468   6.162   9.266 -0.3743 -0.6842  0.3284
   41CHL1  H12B 5473   1.454   6.321   9.356 -2.0145  1.1615 -0.1841
   41CHL1   C11 5474   1.337   6.165   9.432 -0.7370 -0.1782 -0.5189
   41CHL1  H11A 5475   1.273   6.080   9.402 -0.3208 -2.0748  3.3174
   41CHL1  H11B 5476   1.419   6.137   9.502 -0.4275  1.9418  0.0350
   41CHL1    C9 5477   1.249   6.266   9.512 -0.2570 -0.3672 -0.1820
   41CHL1    H9 5478   1.322   6.347   9.535 -0.7177 -0.1028  0.3761
   41CHL1   C10 5479   1.185   6.219   9.647 -0.4252  0.0090 -0.1858
   41CHL1   C19 5480   1.121   6.083   9.630 -0.1279  0.3302 -0.3369
   41CHL1  H19A 5481   1.045   6.060   9.707 -0.3092 -0.1398 -0.6484
   41CHL1  H19B 5482   1.065   6.085   9.534  0.1567  3.7022 -0.5296
   41CHL1  H19C 5483   1.196   6.000   9.627 -1.2603 -0.7233 -0.2204
   41CHL1    C1 5484   1.303   6.206   9.752  0.4253  0.5144 -0.4127
   41CHL1   H1A 5485   1.366   6.116   9.734  0.2411  0.5625 -1.3625
   41CHL1   H1B 5486   1.366   6.298   9.745 -0.5011  1.4554  2.3353
   41CHL1    C2 5487   1.253   6.179   9.893  0.5423 -0.1663  0.0551
   41CHL1   H2A 5488   1.339   6.170   9.963 -0.4223 -0.2035  1.2779
   41CHL1   H2B 5489   1.199   6.082   9.891  0.7401 -0.2656 -0.5864
   41CHL1   C20 5490   1.394   6.303   8.956 -0.6415 -0.1507  0.6658
   41CHL1   H20 5491   1.308   6.243   8.919 -0.4690  0.7083 -1.2636
   41CHL1   C21 5492   1.523   6.218   8.979 -0.7032 -0.0076 -1.0283
   41CHL1  H21A 5493   1.566   6.176   8.886  0.6988  1.2002 -0.9530
   41CHL1  H21B 5494   1.514   6.131   9.048 -0.4038  1.1258  0.4926
   41CHL1  H21C 5495   1.601   6.288   9.015 -0.4686 -1.1495  0.8175
   41CHL1   C22 5496   1.424   6.397   8.835  0.7833 -0.6817 -0.0532
   41CHL1  H22A 5497   1.332   6.459   8.826  2.4439  2.2325  1.5300
   41CHL1  H22B 5498   1.506   6.471   8.852  1.3597 -1.4198  0.4283
   41CHL1   C23 5499   1.448   6.329   8.690 -0.7057 -0.0634 -0.3088
   41CHL1  H23A 5500   1.552   6.306   8.658  0.0138 -0.3677  2.0112
   41CHL1  H23B 5501   1.399   6.230   8.695 -1.5894  0.2168 -2.4910
   41CHL1   C24 5502   1.392   6.407   8.570 -0.9027  0.1416 -0.8194
   41CHL1  H24A 5503   1.285   6.431   8.585 -1.4212 -2.1717 -0.5049
   41CHL1  H24B 5504   1.453   6.498   8.588 -1.9051  0.5236  0.7554
   41CHL1   C25 5505   1.414   6.355   8.425  0.7012  0.0654 -0.6660
   41CHL1   H25 5506   1.525   6.350   8.415  0.7889  1.7450 -0.8147
   41CHL1   C26 5507   1.362   6.212   8.400  0.7206  0.3302  0.0530
   41CHL1  H26A 5508   1.257   6.213   8.363  1.0450  0.8890 -0.8738
   41CHL1  H26B 5509   1.413   6.168   8.312  1.7334  1.9993 -0.2346
   41CHL1  H26C 5510   1.363   6.148   8.491 -0.7750 -1.3081 -0.9997
   41CHL1   C27 5511   1.380   6.465   8.324  0.2767 -0.1472 -0.5685
   41CHL1  H27A 5512   1.411   6.443   8.219  4.5601  2.2166 -0.0406
   41CHL1  H27B 5513   1.273   6.497   8.326  0.4657  1.3072 -4.5115
   41CHL1  H27C 5514   1.444   6.547   8.361  0.8274 -1.3900  1.3911
   42CHL1    C3 5515   0.865   5.718   9.947  0.1843 -0.1516  0.0093
   42CHL1    H3 5516   0.833   5.819   9.913  3.0114  1.2109  1.0817
   42CHL1    O3 5517   0.818   5.701  10.081 -0.8377 -0.6115  0.9676
   42CHL1   H3' 5518   0.745   5.640  10.089 -1.9815  0.6444  0.6283
   42CHL1    C4 5519   0.802   5.608   9.860  0.1578 -0.5934 -0.2026
   42CHL1   H4A 5520   0.857   5.517   9.894 -0.1637  0.2352  2.7920
   42CHL1   H4B 5521   0.694   5.605   9.885  0.1600  0.0735 -0.0976
   42CHL1    C5 5522   0.837   5.633   9.710 -0.0738 -0.4818 -0.3705
   42CHL1    C6 5523   0.740   5.652   9.622  0.1087  0.3999 -0.1858
   42CHL1    H6 5524   0.633   5.660   9.643  0.3582  2.1371  0.6204
   42CHL1    C7 5525   0.777   5.662   9.473  0.1920  0.1044 -0.4330
   42CHL1   H7A 5526   0.711   5.599   9.410 -1.2314  0.5678  0.5364
   42CHL1   H7B 5527   0.763   5.769   9.447 -0.6315  0.8338  2.5357
   42CHL1    C8 5528   0.929   5.632   9.442 -0.2317 -0.6357  0.8858
   42CHL1    H8 5529   0.949   5.523   9.437 -0.1873 -0.5878 -0.1723
   42CHL1   C14 5530   0.963   5.688   9.298  0.1435  0.1786 -0.4104
   42CHL1   H14 5531   0.935   5.796   9.304  0.8147  0.3083  0.9922
   42CHL1   C15 5532   0.881   5.632   9.181  0.3313 -0.1123  0.0777
   42CHL1  H15A 5533   0.882   5.521   9.173  1.7897 -0.3837  2.7244
   42CHL1  H15B 5534   0.776   5.665   9.196 -0.0769 -1.8496  1.2583
   42CHL1   C16 5535   0.952   5.698   9.064 -0.4115  0.0000 -0.3005
   42CHL1  H16A 5536   0.966   5.624   8.983  2.1420  1.2550 -1.1336
   42CHL1  H16B 5537   0.899   5.789   9.028  2.7647  0.8730 -3.3762
   42CHL1   C17 5538   1.093   5.745   9.114  1.0386 -0.3400 -0.7866
   42CHL1   H17 5539   1.085   5.856   9.126 -0.6396 -0.1240 -3.2404
   42CHL1   C13 5540   1.107   5.691   9.257  0.6673  0.1318  0.0613
   42CHL1   C18 5541   1.170   5.549   9.250  0.2952 -0.8660 -0.5503
   42CHL1  H18A 5542   1.100   5.485   9.193 -0.9447  0.7319 -0.9163
   42CHL1  H18B 5543   1.272   5.556   9.207  0.4120 -1.5485 -0.3901
   42CHL1  H18C 5544   1.162   5.507   9.353 -1.9252 -0.7073 -0.5972
   42CHL1   C12 5545   1.180   5.782   9.357  0.2730 -0.0968  0.2727
   42CHL1  H12A 5546   1.283   5.810   9.329  0.4630 -1.2156 -0.2129
   42CHL1  H12B 5547   1.132   5.882   9.359  1.6646  0.6066 -0.2112
   42CHL1   C11 5548   1.161   5.726   9.497  0.2458  0.0645  0.5585
   42CHL1  H11A 5549   1.218   5.631   9.503  1.7210  0.9037  0.3728
   42CHL1  H11B 5550   1.215   5.785   9.574 -1.8081  2.0949  0.5422
   42CHL1    C9 5551   1.013   5.706   9.540 -0.5933 -0.4399  0.3893
   42CHL1    H9 5552   0.979   5.811   9.547  2.4099  0.5590  1.6361
   42CHL1   C10 5553   0.989   5.656   9.686  0.2234  0.2960  0.4172
   42CHL1   C19 5554   1.051   5.509   9.692  0.3915 -0.2721 -0.4441
   42CHL1  H19A 5555   1.159   5.518   9.668  0.4728 -0.7734 -0.2719
   42CHL1  H19B 5556   1.040   5.472   9.796 -0.4318  1.3765  0.0955
   42CHL1  H19C 5557   1.001   5.431   9.631 -1.0242 -0.3122  0.7110
   42CHL1    C1 5558   1.056   5.745   9.796  0.2730 -0.2485 -0.4820
   42CHL1   H1A 5559   1.164   5.721   9.790  0.5319  0.4403  0.8404
   42CHL1   H1B 5560   1.049   5.854   9.776 -0.0458 -0.5254 -1.9640
   42CHL1    C2 5561   1.012   5.710   9.938  0.1416  0.4777  0.1976
   42CHL1   H2A 5562   1.060   5.785  10.004  2.8447 -1.8485  1.0780
   42CHL1   H2B 5563   1.046   5.613   9.980 -0.3919 -0.2201 -0.9569
   42CHL1   C20 5564   1.201   5.728   9.007 -0.0431  0.3953 -0.4375
   42CHL1   H20 5565   1.230   5.621   9.005 -1.2398  0.0570 -1.6018
   42CHL1   C21 5566   1.335   5.811   9.032  0.2530  0.3644  0.4851
   42CHL1  H21A 5567   1.350   5.810   9.142 -3.0495  2.4331  1.0994
   42CHL1  H21B 5568   1.313   5.917   9.008 -1.0043  0.5893  2.3576
   42CHL1  H21C 5569   1.417   5.767   8.971 -0.7886  0.9071 -1.3880
   42CHL1   C22 5570   1.144   5.767   8.865 -0.7445 -0.2630 -0.3714
   42CHL1  H22A 5571   1.220   5.741   8.788  0.7724 -1.3995  1.4103
   42CHL1  H22B 5572   1.063   5.702   8.826  0.0777 -1.5045 -0.1020
   42CHL1   C23 5573   1.102   5.911   8.841 -0.1127  0.1784  0.2249
   42CHL1  H23A 5574   1.027   5.931   8.920  0.9936 -0.1824  1.4078
   42CHL1  H23B 5575   1.184   5.984   8.857  0.3064 -0.4650  1.0766
   42CHL1   C24 5576   1.054   5.937   8.697 -0.4568  1.0561 -0.0090
   42CHL1  H24A 5577   1.141   5.942   8.627 -1.1637 -2.7142 -1.4252
   42CHL1  H24B 5578   0.986   5.858   8.659 -0.3179  1.2018 -0.5770
   42CHL1   C25 5579   0.995   6.079   8.678 -0.5736  0.4427  0.2733
   42CHL1   H25 5580   0.906   6.083   8.744 -0.5551 -1.4174  0.4745
   42CHL1   C26 5581   1.095   6.181   8.717 -0.0583  0.4401 -0.0890
   42CHL1  H26A 5582   1.192   6.152   8.670 -0.5533  1.2231 -1.6634
   42CHL1  H26B 5583   1.063   6.281   8.683  0.6001  0.8801  0.5574
   42CHL1  H26C 5584   1.122   6.192   8.824  4.0133 -1.4267 -0.7314
   42CHL1   C27 5585   0.955   6.090   8.535  0.0167  0.1998  0.0252
   42CHL1  H27A 5586   1.038   6.081   8.461  0.0639 -1.3054  0.2208
   42CHL1  H27B 5587   0.880   6.012   8.509  2.1238 -1.6564 -0.8286
   42CHL1  H27C 5588   0.908   6.190   8.531 -0.8561 -0.2373 -1.8214
   43CHL1    C3 5589   1.978   5.489  10.197 -0.2886 -0.7672  0.6320
   43CHL1    H3 5590   2.075   5.435  10.188  0.7185  1.1042 -0.2273
   43CHL1    O3 5591   1.980   5.526  10.332 -0.1901  0.3128 -0.1219
   43CHL1   H3' 5592   1.910   5.592  10.332  1.3531  2.0451  0.2478
   43CHL1    C4 5593   1.963   5.605  10.104 -0.1837 -0.4913  0.7426
   43CHL1   H4A 5594   1.862   5.646  10.122 -0.6481 -1.3807  0.2490
   43CHL1   H4B 5595   2.040   5.678  10.136  0.7847 -0.4805 -1.4478
   43CHL1    C5 5596   1.987   5.569   9.960  0.0610  0.1549 -0.3696
   43CHL1    C6 5597   2.091   5.614   9.894  0.2748  0.3058  0.5234
   43CHL1    H6 5598   2.154   5.697   9.928  1.4466 -0.5269  0.4637
   43CHL1    C7 5599   2.117   5.577   9.753 -1.0042  0.4596  0.1785
   43CHL1   H7A 5600   2.155   5.658   9.686  0.5155 -1.6539 -1.6513
   43CHL1   H7B 5601   2.191   5.495   9.756 -0.0718  1.2696 -0.2878
   43CHL1    C8 5602   1.997   5.520   9.672 -0.4677  0.3799  0.3121
   43CHL1    H8 5603   1.924   5.601   9.651 -2.2615 -0.5011  2.6655
   43CHL1   C14 5604   2.044   5.453   9.541  0.2655  0.2379  0.1468
   43CHL1   H14 5605   2.103   5.365   9.577  0.9622 -0.3982 -2.3371
   43CHL1   C15 5606   2.142   5.524   9.443  0.1700  0.9006 -0.2233
   43CHL1  H15A 5607   2.111   5.630   9.454  0.3296  0.6825  3.7543
   43CHL1  H15B 5608   2.251   5.519   9.465  0.2408 -0.6972 -0.7938
   43CHL1   C16 5609   2.112   5.465   9.311  0.0825 -0.4347 -0.5901
   43CHL1  H16A 5610   2.059   5.531   9.239 -1.2306  0.5437  1.2053
   43CHL1  H16B 5611   2.202   5.424   9.259  0.7250  0.5789 -0.3036
   43CHL1   C17 5612   2.007   5.352   9.335 -0.7168 -0.0950 -0.4230
   43CHL1   H17 5613   2.071   5.267   9.368 -1.1587 -0.1619  0.2948
   43CHL1   C13 5614   1.931   5.397   9.459 -0.2384 -0.1659 -0.0989
   43CHL1   C18 5615   1.826   5.507   9.425  0.4905  0.4606  0.7610
   43CHL1  H18A 5616   1.878   5.594   9.382  0.8362  0.3436  0.9423
   43CHL1  H18B 5617   1.747   5.454   9.367  2.0278 -1.4301  0.2783
   43CHL1  H18C 5618   1.781   5.546   9.518 -0.2937 -0.9268  1.0078
   43CHL1   C12 5619   1.875   5.281   9.546 -0.6531 -0.3690  0.1063
   43CHL1  H12A 5620   1.796   5.219   9.499 -1.6346  0.2399  0.9028
   43CHL1  H12B 5621   1.964   5.220   9.572 -0.8496 -0.7702 -0.1646
   43CHL1   C11 5622   1.826   5.332   9.683  0.8040  0.6786 -0.3736
   43CHL1  H11A 5623   1.726   5.380   9.678  0.0270 -1.0178 -2.7069
   43CHL1  H11B 5624   1.797   5.253   9.755 -2.0535  1.4729 -0.5106
   43CHL1    C9 5625   1.935   5.412   9.766  0.2836  0.0859  0.4470
   43CHL1    H9 5626   2.011   5.337   9.798 -0.2482 -0.2497  0.9342
   43CHL1   C10 5627   1.885   5.466   9.909 -0.5944  0.6702  0.2262
   43CHL1   C19 5628   1.741   5.520   9.892 -0.9548 -0.4449 -0.2329
   43CHL1  H19A 5629   1.730   5.593   9.809  0.2305  0.6589  0.5485
   43CHL1  H19B 5630   1.676   5.429   9.891  0.0434 -1.2188  1.5867
   43CHL1  H19C 5631   1.715   5.567   9.989 -2.3953 -2.1315  0.2446
   43CHL1    C1 5632   1.889   5.345  10.008 -1.0317 -0.6133  0.4087
   43CHL1   H1A 5633   1.817   5.266   9.976  0.9371 -1.6391 -1.7211
   43CHL1   H1B 5634   1.991   5.303  10.006 -0.1309  1.4342  0.8453
   43CHL1    C2 5635   1.867   5.393  10.149 -0.5722 -0.0638 -0.3282
   43CHL1   H2A 5636   1.868   5.303  10.214  3.7150 -1.0994 -1.5357
   43CHL1   H2B 5637   1.767   5.438  10.171 -0.1295  0.5778  0.4081
   43CHL1   C20 5638   1.927   5.323   9.210  0.3528 -0.0345  0.0108
   43CHL1   H20 5639   1.868   5.412   9.180 -1.5597 -1.4375 -0.5676
   43CHL1   C21 5640   1.814   5.218   9.240 -0.2499  1.2817 -0.1217
   43CHL1  H21A 5641   1.852   5.120   9.274  0.0866  1.5327  0.2406
   43CHL1  H21B 5642   1.764   5.206   9.142  1.5600 -0.1165 -0.9282
   43CHL1  H21C 5643   1.742   5.268   9.308  0.5566  2.4875 -0.1003
   43CHL1   C22 5644   2.009   5.280   9.087  0.0644  0.4170 -0.4697
   43CHL1  H22A 5645   1.935   5.259   9.006 -0.2906  2.2529 -0.6649
   43CHL1  H22B 5646   2.071   5.366   9.056 -0.7270  0.9654 -0.5688
   43CHL1   C23 5647   2.085   5.146   9.091 -0.5893  0.3913 -0.5187
   43CHL1  H23A 5648   2.160   5.159   9.172 -0.2225 -1.0652 -0.5987
   43CHL1  H23B 5649   2.024   5.063   9.133 -0.7003  1.3883  1.4380
   43CHL1   C24 5650   2.176   5.122   8.968  0.4156 -0.4494 -0.3169
   43CHL1  H24A 5651   2.109   5.086   8.887 -1.6303  0.5999  0.8431
   43CHL1  H24B 5652   2.218   5.224   8.958  0.0102 -0.3529 -1.1114
   43CHL1   C25 5653   2.281   5.016   8.999 -0.1855 -0.3335  0.8661
   43CHL1   H25 5654   2.248   4.916   9.032  0.8328 -0.9203  0.1677
   43CHL1   C26 5655   2.360   4.976   8.866  1.5151  0.6534  0.2782
   43CHL1  H26A 5656   2.408   5.068   8.824 -0.6990  0.8986 -1.9128
   43CHL1  H26B 5657   2.439   4.899   8.879  1.3761  0.8023  2.2286
   43CHL1  H26C 5658   2.284   4.933   8.798  1.0582 -1.3367  1.9718
   43CHL1   C27 5659   2.392   5.060   9.099 -0.1916  0.4587 -0.4912
   43CHL1  H27A 5660   2.435   5.151   9.052  0.2037 -0.3783 -1.8034
   43CHL1  H27B 5661   2.353   5.093   9.197 -1.1997 -0.9136 -0.3973
   43CHL1  H27C 5662   2.469   4.980   9.107 -0.7550 -0.0344  0.0739
   44CHL1    C3 5663   1.302   0.054  10.183  0.2616  0.4361 -0.0919
   44CHL1    H3 5664   1.216  -0.006  10.146  1.7463 -2.5606  1.0059
   44CHL1    O3 5665   1.303   0.039  10.324 -0.2630 -0.2684 -0.0534
   44CHL1   H3' 5666   1.392   0.069  10.345  0.2607 -1.5214 -0.4240
   44CHL1    C4 5667   1.412  -0.036  10.120 -0.3994  0.6771  0.2630
   44CHL1   H4A 5668   1.516  -0.007  10.144  0.0560 -2.1669  2.1371
   44CHL1   H4B 5669   1.404  -0.138  10.163 -0.2173  0.0881 -1.0493
   44CHL1    C5 5670   1.423  -0.027   9.966  1.0154 -0.0697 -0.2528
   44CHL1    C6 5671   1.420  -0.137   9.896  0.6732  0.3570 -1.3631
   44CHL1    H6 5672   1.427  -0.236   9.944 -1.3632  1.0545  0.5483
   44CHL1    C7 5673   1.419  -0.141   9.749 -0.8626  0.1164  0.4954
   44CHL1   H7A 5674   1.490  -0.218   9.711 -1.1873 -0.4741  1.0533
   44CHL1   H7B 5675   1.318  -0.172   9.713  0.1662 -1.5412 -1.1603
   44CHL1    C8 5676   1.448   0.006   9.685 -0.1512  0.0594  0.0042
   44CHL1    H8 5677   1.559   0.013   9.685  0.0327 -1.9515 -0.9444
   44CHL1   C14 5678   1.413   0.010   9.539 -0.5378  0.1725  0.1633
   44CHL1   H14 5679   1.302  -0.000   9.533 -0.8118  2.7010  0.0411
   44CHL1   C15 5680   1.473  -0.099   9.447 -0.6908 -0.1345  0.1434
   44CHL1  H15A 5681   1.575  -0.132   9.478 -0.8579  0.8438  1.8577
   44CHL1  H15B 5682   1.407  -0.188   9.456 -0.0126 -0.5025  1.8018
   44CHL1   C16 5683   1.475  -0.035   9.306  0.4869  0.3090 -0.2716
   44CHL1  H16A 5684   1.572  -0.058   9.258  1.4410  2.0821  0.7184
   44CHL1  H16B 5685   1.397  -0.082   9.243 -0.4260  0.8446  0.4331
   44CHL1   C17 5686   1.431   0.116   9.326 -1.1278 -0.7260 -0.1378
   44CHL1   H17 5687   1.321   0.129   9.316 -1.0399  0.9418  0.7049
   44CHL1   C13 5688   1.456   0.142   9.475  0.8050 -0.1056  0.1461
   44CHL1   C18 5689   1.608   0.172   9.490  0.6907 -0.5849 -0.3531
   44CHL1  H18A 5690   1.664   0.083   9.454  1.7288 -0.2553  0.3866
   44CHL1  H18B 5691   1.631   0.264   9.434  0.9837 -0.5434 -0.1653
   44CHL1  H18C 5692   1.644   0.187   9.594  0.8276  1.8073 -0.6995
   44CHL1   C12 5693   1.376   0.255   9.541 -0.5069 -0.1829 -0.1096
   44CHL1  H12A 5694   1.411   0.348   9.491 -0.7710 -1.5639 -3.0696
   44CHL1  H12B 5695   1.267   0.244   9.522 -0.2930 -1.2036 -0.8134
   44CHL1   C11 5696   1.395   0.253   9.693 -0.9936 -1.3593 -0.2551
   44CHL1  H11A 5697   1.500   0.286   9.709 -1.3745  0.2427 -0.8326
   44CHL1  H11B 5698   1.330   0.336   9.729 -1.8576 -2.0568 -0.1804
   44CHL1    C9 5699   1.375   0.118   9.756  0.7736 -0.6126 -0.2556
   44CHL1    H9 5700   1.267   0.096   9.742  0.6776 -0.5842  0.4144
   44CHL1   C10 5701   1.409   0.119   9.910  0.5971  0.3455  0.5836
   44CHL1   C19 5702   1.544   0.189   9.936  0.5075  0.1545 -1.3262
   44CHL1  H19A 5703   1.541   0.299   9.928  0.6346  0.0834 -2.4272
   44CHL1  H19B 5704   1.570   0.173  10.043  0.5601 -0.0673 -1.3709
   44CHL1  H19C 5705   1.619   0.150   9.865  2.3747  2.3146 -0.6712
   44CHL1    C1 5706   1.296   0.200   9.976  0.6169  0.1293 -0.6831
   44CHL1   H1A 5707   1.305   0.304   9.937  2.8784  0.8666  1.5465
   44CHL1   H1B 5708   1.198   0.157   9.946  0.6850  0.2266 -1.0510
   44CHL1    C2 5709   1.299   0.199  10.127 -0.2052  0.0919 -0.8132
   44CHL1   H2A 5710   1.214   0.252  10.175  0.4726  0.4507  0.0176
   44CHL1   H2B 5711   1.391   0.252  10.161  0.4434 -2.5276  2.0978
   44CHL1   C20 5712   1.499   0.198   9.223  0.2266 -0.4635  0.1464
   44CHL1   H20 5713   1.610   0.190   9.229  0.3179 -0.4151 -1.1704
   44CHL1   C21 5714   1.464   0.342   9.231 -0.2719  0.1761  0.8137
   44CHL1  H21A 5715   1.356   0.368   9.238  0.0167  1.0672  2.6804
   44CHL1  H21B 5716   1.492   0.389   9.134 -1.9596  0.7627  0.5648
   44CHL1  H21C 5717   1.522   0.400   9.306 -0.4026  0.3460  0.7842
   44CHL1   C22 5718   1.470   0.150   9.075  0.1443  0.0831 -0.3072
   44CHL1  H22A 5719   1.549   0.200   9.014 -0.1743  0.8303 -0.1265
   44CHL1  H22B 5720   1.494   0.042   9.070 -0.6099 -0.0563 -1.1991
   44CHL1   C23 5721   1.330   0.174   9.015 -0.1304  0.3444  0.2067
   44CHL1  H23A 5722   1.255   0.136   9.087  0.0166  0.5017  0.4443
   44CHL1  H23B 5723   1.324   0.282   8.989  2.2319  0.7782  1.1773
   44CHL1   C24 5724   1.314   0.096   8.877  0.0983 -0.0431 -0.6951
   44CHL1  H24A 5725   1.313  -0.011   8.906  2.8329  0.2297  0.7696
   44CHL1  H24B 5726   1.216   0.131   8.840 -0.0475 -0.5496 -0.7958
   44CHL1   C25 5727   1.433   0.123   8.783 -0.2275 -0.3267  0.2086
   44CHL1   H25 5728   1.523   0.079   8.830 -0.2773  0.1841  0.7945
   44CHL1   C26 5729   1.407   0.044   8.658 -0.7275  0.2125  0.1274
   44CHL1  H26A 5730   1.320   0.085   8.604 -0.0406  1.7941  0.1618
   44CHL1  H26B 5731   1.497   0.039   8.593 -0.6445  0.9006  0.1825
   44CHL1  H26C 5732   1.390  -0.064   8.676  2.2426 -0.4667 -0.5068
   44CHL1   C27 5733   1.462   0.276   8.749  0.3013  0.1435 -0.0894
   44CHL1  H27A 5734   1.496   0.337   8.835 -0.8429 -0.5418  0.8921
   44CHL1  H27B 5735   1.528   0.288   8.661 -0.4528  0.8249 -0.5729
   44CHL1  H27C 5736   1.364   0.324   8.728  0.0612  0.0737  0.8172
   45CHL1    C3 5737   5.722   6.376  10.443 -0.0937 -0.7512 -0.5971
   45CHL1    H3 5738   5.810   6.315  10.471 -0.0513 -0.9152 -1.0845
   45CHL1    O3 5739   5.646   6.421  10.545 -0.9261 -0.1942  0.1570
   45CHL1   H3' 5740   5.713   6.443  10.610  1.2892 -0.3904 -1.9123
   45CHL1    C4 5741   5.765   6.490  10.350 -0.3757  0.0548 -0.0793
   45CHL1   H4A 5742   5.668   6.543  10.337 -0.3532  0.0826 -0.1345
   45CHL1   H4B 5743   5.831   6.555  10.410 -1.3942  0.0384  1.0959
   45CHL1    C5 5744   5.833   6.458  10.216 -0.4782  0.5610 -0.0692
   45CHL1    C6 5745   5.953   6.510  10.173  0.3592  0.6903  0.3714
   45CHL1    H6 5746   6.000   6.580  10.244  0.5251 -0.6710  1.6528
   45CHL1    C7 5747   6.020   6.472  10.045  0.0583  0.4449 -0.0423
   45CHL1   H7A 5748   6.060   6.561   9.992  0.7009  0.6381  0.7634
   45CHL1   H7B 5749   6.104   6.409  10.080  1.0989  0.0541 -2.9410
   45CHL1    C8 5750   5.940   6.372   9.953  0.5192  0.4054 -0.0190
   45CHL1    H8 5751   6.021   6.304   9.919 -0.1798  0.6784 -2.4062
   45CHL1   C14 5752   5.884   6.431   9.817  0.2750  0.2004 -0.6784
   45CHL1   H14 5753   5.802   6.497   9.851  1.0886  0.1181  1.6164
   45CHL1   C15 5754   5.998   6.509   9.755  0.4342  0.0065 -0.4782
   45CHL1  H15A 5755   5.982   6.618   9.763  0.0545  0.0521 -1.6104
   45CHL1  H15B 5756   6.094   6.478   9.801 -1.4169 -0.4987  3.4545
   45CHL1   C16 5757   5.986   6.471   9.606  0.2839  0.1121 -0.0340
   45CHL1  H16A 5758   5.913   6.536   9.553  0.5147 -0.3171 -0.9029
   45CHL1  H16B 5759   6.086   6.479   9.556 -0.0594  0.3418 -0.7021
   45CHL1   C17 5760   5.935   6.329   9.601  0.4659  0.5300  0.3089
   45CHL1   H17 5761   6.022   6.269   9.635 -0.5033  0.3368  2.6429
   45CHL1   C13 5762   5.833   6.324   9.719  0.1740 -0.0122 -0.2722
   45CHL1   C18 5763   5.688   6.381   9.680  0.7248  0.6811  0.0880
   45CHL1  H18A 5764   5.707   6.482   9.637 -1.6803  1.3517  0.4941
   45CHL1  H18B 5765   5.649   6.311   9.604  2.6260 -0.7546  0.3626
   45CHL1  H18C 5766   5.624   6.391   9.770 -1.5202 -1.6100 -1.1210
   45CHL1   C12 5767   5.817   6.180   9.784  0.3101 -0.5283 -0.5614
   45CHL1  H12A 5768   5.758   6.119   9.713  0.0662 -0.3542 -0.5074
   45CHL1  H12B 5769   5.915   6.135   9.810 -0.7021 -1.1932  2.5706
   45CHL1   C11 5770   5.751   6.192   9.923 -0.5833 -0.3389  0.9622
   45CHL1  H11A 5771   5.651   6.237   9.910 -0.3927  0.0725  0.9102
   45CHL1  H11B 5772   5.723   6.097   9.974  0.7179 -2.2239 -1.6093
   45CHL1    C9 5773   5.838   6.276  10.023  0.1595 -0.8721  0.2252
   45CHL1    H9 5774   5.900   6.204  10.080  1.3967  0.1772  0.2452
   45CHL1   C10 5775   5.747   6.345  10.137 -0.3287 -0.7901  0.2609
   45CHL1   C19 5776   5.622   6.432  10.087 -0.0117 -0.1961  0.6597
   45CHL1  H19A 5777   5.562   6.456  10.177 -0.2109 -0.1610  0.5173
   45CHL1  H19B 5778   5.652   6.522  10.030 -1.2997  0.7626  1.4298
   45CHL1  H19C 5779   5.546   6.371  10.033 -0.3454 -0.7946  1.7801
   45CHL1    C1 5780   5.703   6.229  10.230  0.2469  0.5111 -0.9119
   45CHL1   H1A 5781   5.631   6.169  10.170 -0.4138  0.6185 -0.2349
   45CHL1   H1B 5782   5.778   6.157  10.269 -0.2750  1.2013  1.5051
   45CHL1    C2 5783   5.638   6.278  10.362  0.1165 -0.1776 -1.1455
   45CHL1   H2A 5784   5.636   6.182  10.418 -0.6781  0.3054 -0.3119
   45CHL1   H2B 5785   5.534   6.316  10.347 -0.7729 -1.3378  1.4541
   45CHL1   C20 5786   5.888   6.295   9.457  0.5948 -0.5609 -0.5958
   45CHL1   H20 5787   5.796   6.349   9.427 -1.0621 -1.9392  1.6282
   45CHL1   C21 5788   5.851   6.148   9.453  0.4280  0.4341  0.4130
   45CHL1  H21A 5789   5.939   6.088   9.484  0.4462  0.2944  0.0948
   45CHL1  H21B 5790   5.837   6.109   9.350  1.2937  1.0124  0.0642
   45CHL1  H21C 5791   5.755   6.118   9.501 -0.5556 -2.4253 -2.9388
   45CHL1   C22 5792   5.989   6.321   9.346  0.2172  0.1229  0.4514
   45CHL1  H22A 5793   6.042   6.419   9.356  0.4022 -0.0342  1.0146
   45CHL1  H22B 5794   6.076   6.256   9.372  0.0108 -1.2053 -1.8938
   45CHL1   C23 5795   5.937   6.301   9.197 -0.3731  0.5979 -0.3047
   45CHL1  H23A 5796   5.880   6.207   9.204 -1.6477  1.4145  0.5554
   45CHL1  H23B 5797   5.865   6.376   9.159  0.7726  2.0318  0.2279
   45CHL1   C24 5798   6.056   6.287   9.108 -0.2244  0.7244  0.4114
   45CHL1  H24A 5799   6.118   6.379   9.117  0.3725  0.2276  1.5461
   45CHL1  H24B 5800   6.106   6.191   9.134  0.3832  0.9685  0.1737
   45CHL1   C25 5801   6.036   6.278   8.957 -0.3690 -0.5652  0.2270
   45CHL1   H25 5802   5.990   6.373   8.921 -0.0635 -0.7238 -0.6176
   45CHL1   C26 5803   6.165   6.264   8.889 -0.4382 -0.1457  0.2134
   45CHL1  H26A 5804   6.219   6.168   8.905  0.3273  0.2622  0.1442
   45CHL1  H26B 5805   6.149   6.273   8.779 -1.4375 -1.3062  0.2488
   45CHL1  H26C 5806   6.245   6.340   8.907  1.5713 -1.8875 -0.8702
   45CHL1   C27 5807   5.948   6.166   8.907 -0.2517  0.6490  0.0816
   45CHL1  H27A 5808   5.968   6.068   8.956 -1.6624  0.2658 -0.0768
   45CHL1  H27B 5809   5.841   6.181   8.934  0.2891  1.9404  1.6723
   45CHL1  H27C 5810   5.948   6.144   8.799  0.5141  0.3715  0.1354
   46CHL1    C3 5811   1.908   2.765  10.268  0.3977  0.3883  0.2688
   46CHL1    H3 5812   1.966   2.854  10.233  1.2867 -0.9684 -1.9156
   46CHL1    O3 5813   1.941   2.739  10.401  0.3273  0.0220 -0.0438
   46CHL1   H3' 5814   1.940   2.828  10.436  1.3573  0.9495 -2.1658
   46CHL1    C4 5815   1.751   2.802  10.238  0.3048  0.1742  0.2414
   46CHL1   H4A 5816   1.693   2.720  10.285 -2.0751  0.0096 -2.6259
   46CHL1   H4B 5817   1.716   2.899  10.280  2.7357  1.2909 -0.1756
   46CHL1    C5 5818   1.722   2.807  10.085 -0.0987 -0.1510 -0.1664
   46CHL1    C6 5819   1.670   2.920  10.028 -0.3106 -0.8474  0.4295
   46CHL1    H6 5820   1.649   3.013  10.083 -0.3505  0.3150 -1.4369
   46CHL1    C7 5821   1.653   2.928   9.878  0.1231  0.2955  0.0210
   46CHL1   H7A 5822   1.569   2.996   9.854 -0.7304 -0.9356 -0.5317
   46CHL1   H7B 5823   1.736   2.970   9.816 -1.1273  1.7308 -0.7533
   46CHL1    C8 5824   1.630   2.784   9.822  0.1838 -0.5323 -0.8513
   46CHL1    H8 5825   1.529   2.758   9.861  0.6394 -0.2551  0.5655
   46CHL1   C14 5826   1.619   2.793   9.675 -0.0609  0.1375  0.5992
   46CHL1   H14 5827   1.710   2.843   9.638 -1.9179  3.1225 -0.2940
   46CHL1   C15 5828   1.518   2.888   9.619  0.5045 -0.3933  0.7207
   46CHL1  H15A 5829   1.417   2.869   9.659  1.3511 -3.9863  1.4996
   46CHL1  H15B 5830   1.546   2.995   9.622  0.4194 -0.3905  1.5482
   46CHL1   C16 5831   1.508   2.853   9.468  0.6950  0.1885  0.6801
   46CHL1  H16A 5832   1.400   2.832   9.452  0.9962  0.9052 -3.3581
   46CHL1  H16B 5833   1.543   2.936   9.403 -0.8322 -0.9045 -1.6718
   46CHL1   C17 5834   1.600   2.727   9.447  0.4096 -0.2277  0.2205
   46CHL1   H17 5835   1.698   2.771   9.419  0.2880 -0.0167  0.1248
   46CHL1   C13 5836   1.614   2.662   9.589 -0.8669  0.2577 -0.0447
   46CHL1   C18 5837   1.478   2.580   9.621  0.0440 -0.2927  0.3201
   46CHL1  H18A 5838   1.484   2.555   9.729  0.0412 -2.1059 -0.0617
   46CHL1  H18B 5839   1.389   2.643   9.599  0.4081 -0.1115 -0.6890
   46CHL1  H18C 5840   1.463   2.484   9.566  0.4953 -1.1059  1.5881
   46CHL1   C12 5841   1.734   2.572   9.626 -0.3129  0.5788  0.5060
   46CHL1  H12A 5842   1.727   2.470   9.581  2.3281  1.2405 -1.6460
   46CHL1  H12B 5843   1.837   2.607   9.605 -0.1159  0.8787  1.8839
   46CHL1   C11 5844   1.741   2.560   9.776 -0.9015  0.2594  0.0653
   46CHL1  H11A 5845   1.665   2.486   9.812 -0.3586 -0.2645  0.1505
   46CHL1  H11B 5846   1.841   2.516   9.794 -0.1614  0.3294 -3.2810
   46CHL1    C9 5847   1.744   2.695   9.860  0.5808  0.3588 -0.3520
   46CHL1    H9 5848   1.838   2.738   9.819  0.6694  0.3133 -0.1972
   46CHL1   C10 5849   1.764   2.677  10.011 -0.7061  0.1462 -0.2663
   46CHL1   C19 5850   1.677   2.558  10.055  0.1210  0.2160  0.0201
   46CHL1  H19A 5851   1.575   2.574  10.014 -0.1962 -0.4681  0.5348
   46CHL1  H19B 5852   1.729   2.474  10.006 -0.4451 -0.4411  0.5195
   46CHL1  H19C 5853   1.672   2.538  10.165  1.1811 -2.0856 -0.2889
   46CHL1    C1 5854   1.914   2.643  10.039  0.1660  0.2720  0.5638
   46CHL1   H1A 5855   1.937   2.548   9.987 -1.0823 -0.9113  2.0765
   46CHL1   H1B 5856   1.967   2.723   9.984 -0.2297 -0.9056 -1.6711
   46CHL1    C2 5857   1.946   2.633  10.185  0.1139  0.1568  0.2433
   46CHL1   H2A 5858   2.055   2.610  10.194 -0.0756 -0.7808  0.2135
   46CHL1   H2B 5859   1.899   2.544  10.231 -1.1929 -0.4075 -2.0314
   46CHL1   C20 5860   1.553   2.642   9.332  0.9599  0.2949  0.0366
   46CHL1   H20 5861   1.447   2.612   9.347  1.1235 -0.2454  0.1570
   46CHL1   C21 5862   1.636   2.517   9.323 -0.0778  0.1897 -0.5074
   46CHL1  H21A 5863   1.612   2.460   9.231 -2.9254 -2.0224  1.4474
   46CHL1  H21B 5864   1.608   2.440   9.398  1.5909  0.6503  0.6440
   46CHL1  H21C 5865   1.742   2.549   9.330 -0.6047  1.6488  2.0811
   46CHL1   C22 5866   1.569   2.714   9.198  0.4798 -0.0725  0.5751
   46CHL1  H22A 5867   1.511   2.807   9.220  0.1143  0.2871 -1.6808
   46CHL1  H22B 5868   1.672   2.754   9.185  0.2902  0.3720  0.3981
   46CHL1   C23 5869   1.507   2.647   9.074  0.2979  0.0855 -0.0906
   46CHL1  H23A 5870   1.582   2.600   9.007 -1.4232 -0.9668 -1.3526
   46CHL1  H23B 5871   1.444   2.564   9.111  0.4522 -0.5243 -1.1630
   46CHL1   C24 5872   1.419   2.752   9.001  0.3823  0.4414  0.2434
   46CHL1  H24A 5873   1.357   2.817   9.067 -0.9516 -0.7911  0.2640
   46CHL1  H24B 5874   1.484   2.824   8.948 -0.5698  0.9359 -0.2858
   46CHL1   C25 5875   1.336   2.672   8.891 -0.1060 -0.2926 -1.4982
   46CHL1   H25 5876   1.266   2.616   8.956  0.7161  1.5203  1.0822
   46CHL1   C26 5877   1.259   2.762   8.797  0.2273 -0.1541 -0.0909
   46CHL1  H26A 5878   1.210   2.842   8.857  2.6132  1.3015  0.0643
   46CHL1  H26B 5879   1.340   2.816   8.743 -0.5420  2.2265  0.9593
   46CHL1  H26C 5880   1.190   2.713   8.726 -1.8936  2.5244 -0.0557
   46CHL1   C27 5881   1.427   2.575   8.810 -0.4992  0.0105  0.2718
   46CHL1  H27A 5882   1.365   2.525   8.733 -1.2407  2.4895 -0.8411
   46CHL1  H27B 5883   1.512   2.620   8.754 -0.8293 -0.6164 -0.7520
   46CHL1  H27C 5884   1.475   2.493   8.869 -0.1240 -0.4238 -0.6221
   47CHL1    C3 5885   1.702   6.500  10.146  0.0321  1.2765 -0.0922
   47CHL1    H3 5886   1.602   6.515  10.102 -0.0920  2.6180  0.6056
   47CHL1    O3 5887   1.714   6.479  10.284 -0.9757 -0.2428  0.0747
   47CHL1   H3' 5888   1.801   6.514  10.307 -0.4132 -2.6674  2.1114
   47CHL1    C4 5889   1.765   6.368  10.083 -0.4309 -0.2628 -0.1768
   47CHL1   H4A 5890   1.864   6.354  10.131 -0.7108  0.7738  0.7495
   47CHL1   H4B 5891   1.694   6.289  10.114 -0.3608 -0.1909  0.1680
   47CHL1    C5 5892   1.770   6.374   9.931  0.0087 -0.0104 -0.6672
   47CHL1    C6 5893   1.709   6.285   9.861  0.6027  0.2033  0.1756
   47CHL1    H6 5894   1.641   6.215   9.910 -0.1277  0.8772  0.1448
   47CHL1    C7 5895   1.702   6.298   9.715  0.2379  0.7223 -0.1508
   47CHL1   H7A 5896   1.710   6.202   9.660  0.9977  0.8421 -0.2716
   47CHL1   H7B 5897   1.603   6.336   9.684 -1.0239 -1.5849  0.8238
   47CHL1    C8 5898   1.810   6.386   9.656  0.4927  0.1276  0.2217
   47CHL1    H8 5899   1.905   6.328   9.667  0.4694  0.1008  0.2826
   47CHL1   C14 5900   1.784   6.420   9.507 -0.2938  0.4033 -0.1188
   47CHL1   H14 5901   1.684   6.469   9.508 -0.2634  0.4622  0.6648
   47CHL1   C15 5902   1.764   6.290   9.407 -0.9203 -0.3988  0.6498
   47CHL1  H15A 5903   1.863   6.241   9.415 -0.4056  0.5081  0.0550
   47CHL1  H15B 5904   1.674   6.230   9.433 -2.6433  1.9315  0.3589
   47CHL1   C16 5905   1.767   6.361   9.265 -0.0922  0.1030  0.0548
   47CHL1  H16A 5906   1.842   6.317   9.196 -0.6301  1.4096 -1.4251
   47CHL1  H16B 5907   1.667   6.357   9.218 -0.5872 -1.1479  1.1708
   47CHL1   C17 5908   1.802   6.516   9.296  0.0691 -0.5116  0.4670
   47CHL1   H17 5909   1.710   6.577   9.308  1.5636  2.0998 -0.3301
   47CHL1   C13 5910   1.869   6.511   9.428 -0.3984 -0.0876 -0.0603
   47CHL1   C18 5911   2.010   6.450   9.403  0.4546 -0.9647  0.3898
   47CHL1  H18A 5912   2.051   6.427   9.503 -0.3092  0.5868  1.0856
   47CHL1  H18B 5913   2.008   6.353   9.349 -0.8633 -0.2807 -0.8623
   47CHL1  H18C 5914   2.076   6.516   9.342 -0.2593 -1.1482 -0.6147
   47CHL1   C12 5915   1.870   6.642   9.514  0.0177 -0.5108 -0.7032
   47CHL1  H12A 5916   1.937   6.719   9.471 -0.1123 -0.0658 -0.1223
   47CHL1  H12B 5917   1.766   6.681   9.517  0.9716  2.8220 -3.9770
   47CHL1   C11 5918   1.920   6.618   9.658 -0.6283 -0.3216  0.9890
   47CHL1  H11A 5919   2.019   6.567   9.655 -0.6858 -0.3816 -0.3150
   47CHL1  H11B 5920   1.930   6.717   9.706 -0.3572 -0.0843  0.4519
   47CHL1    C9 5921   1.822   6.520   9.730  0.5409  0.9985 -0.2640
   47CHL1    H9 5922   1.724   6.571   9.725 -1.2984 -2.4139 -3.2521
   47CHL1   C10 5923   1.850   6.495   9.881  0.4832 -0.0829 -0.1625
   47CHL1   C19 5924   1.998   6.479   9.907  0.0781 -0.3770  0.0756
   47CHL1  H19A 5925   2.041   6.401   9.841 -1.0161 -0.6442 -0.3531
   47CHL1  H19B 5926   2.052   6.573   9.886  1.7407 -1.0266  1.2601
   47CHL1  H19C 5927   2.023   6.461  10.014  3.1102  3.3574  0.1743
   47CHL1    C1 5928   1.796   6.623   9.947 -0.4933 -0.4240  0.2571
   47CHL1   H1A 5929   1.853   6.711   9.910  0.0121 -0.8171  0.0873
   47CHL1   H1B 5930   1.690   6.639   9.916 -0.3427 -0.2293 -0.1539
   47CHL1    C2 5931   1.792   6.619  10.103 -0.2050 -0.0100 -0.0421
   47CHL1   H2A 5932   1.762   6.722  10.131  1.1012  0.0861  1.1211
   47CHL1   H2B 5933   1.889   6.591  10.149 -2.2252 -0.8828  4.1923
   47CHL1   C20 5934   1.878   6.579   9.178 -0.6275 -0.3572 -0.0059
   47CHL1   H20 5935   1.971   6.530   9.143 -1.7302 -0.7380 -2.6315
   47CHL1   C21 5936   1.904   6.730   9.207  0.0401 -0.3092 -0.6399
   47CHL1  H21A 5937   1.977   6.736   9.290 -1.5851 -1.5465  0.9866
   47CHL1  H21B 5938   1.815   6.783   9.247  0.7125  0.2878  0.0874
   47CHL1  H21C 5939   1.956   6.788   9.128  2.4617  0.2679  1.2594
   47CHL1   C22 5940   1.803   6.569   9.041 -0.0762 -0.2927 -0.8143
   47CHL1  H22A 5941   1.800   6.459   9.022  0.2393 -0.5470  0.5505
   47CHL1  H22B 5942   1.702   6.610   9.058  0.4117  0.9514 -0.8597
   47CHL1   C23 5943   1.852   6.647   8.915 -0.3347 -0.8404  0.5623
   47CHL1  H23A 5944   1.837   6.753   8.946 -2.7755 -0.8040 -0.4920
   47CHL1  H23B 5945   1.960   6.638   8.893 -0.4341  0.6923 -0.7240
   47CHL1   C24 5946   1.764   6.622   8.781 -0.7747 -0.5426  0.2129
   47CHL1  H24A 5947   1.751   6.512   8.788 -0.0230 -0.5494  2.2237
   47CHL1  H24B 5948   1.666   6.666   8.811 -0.4338  0.2328  0.2183
   47CHL1   C25 5949   1.820   6.689   8.652  0.0660 -0.5009 -0.3265
   47CHL1   H25 5950   1.927   6.666   8.634  0.8180  0.0964  2.7508
   47CHL1   C26 5951   1.744   6.645   8.522 -0.2739 -1.0147  0.5402
   47CHL1  H26A 5952   1.641   6.686   8.513  0.2023  0.1743  0.3214
   47CHL1  H26B 5953   1.744   6.534   8.522  2.3458 -1.1779 -2.8712
   47CHL1  H26C 5954   1.808   6.679   8.438 -0.1815 -2.2711  0.0823
   47CHL1   C27 5955   1.805   6.841   8.663 -0.3561 -0.1231  0.8347
   47CHL1  H27A 5956   1.697   6.863   8.680 -0.2929  1.0155 -0.0838
   47CHL1  H27B 5957   1.850   6.902   8.744  1.7333 -1.1337  0.4816
   47CHL1  H27C 5958   1.837   6.891   8.569 -0.3424 -0.7133  0.5245
   48CHL1    C3 5959   1.466   1.156  10.114 -0.7298 -0.5857  0.9137
   48CHL1    H3 5960   1.538   1.073  10.098 -1.0802 -0.5193 -1.2976
   48CHL1    O3 5961   1.448   1.186  10.256 -0.1213 -0.4757 -0.1828
   48CHL1   H3' 5962   1.424   1.103  10.297  2.5061 -1.6665 -0.8969
   48CHL1    C4 5963   1.509   1.288  10.044 -0.2644  0.1857  0.2757
   48CHL1   H4A 5964   1.438   1.367  10.077 -3.1266 -2.1148 -0.0047
   48CHL1   H4B 5965   1.614   1.308  10.074  0.7747 -3.4045 -0.5554
   48CHL1    C5 5966   1.500   1.274   9.897  0.5816  0.3789 -0.8157
   48CHL1    C6 5967   1.602   1.307   9.817  0.0508 -0.2010  0.2661
   48CHL1    H6 5968   1.697   1.333   9.866 -0.4060 -0.1653  1.1527
   48CHL1    C7 5969   1.603   1.320   9.668 -0.4888 -0.1202 -0.8902
   48CHL1   H7A 5970   1.647   1.416   9.633  0.7157 -0.5075 -0.5224
   48CHL1   H7B 5971   1.683   1.247   9.641  1.1253 -0.1572  3.1980
   48CHL1    C8 5972   1.466   1.288   9.607 -0.1081 -0.2800  0.1050
   48CHL1    H8 5973   1.413   1.386   9.613 -2.3014 -1.4690  1.4436
   48CHL1   C14 5974   1.473   1.249   9.461 -0.1433 -0.0946  0.2184
   48CHL1   H14 5975   1.536   1.157   9.464  0.1047 -0.2149 -3.4147
   48CHL1   C15 5976   1.556   1.328   9.361  0.2169  0.1009  0.5452
   48CHL1  H15A 5977   1.529   1.433   9.340  0.3176  0.1555  0.6840
   48CHL1  H15B 5978   1.664   1.326   9.388  0.5116 -1.0232 -0.6305
   48CHL1   C16 5979   1.525   1.257   9.224  0.3730  0.1136 -0.6465
   48CHL1  H16A 5980   1.513   1.330   9.141 -1.0215 -1.4225 -1.8746
   48CHL1  H16B 5981   1.609   1.186   9.206 -1.1930 -1.7186 -1.1516
   48CHL1   C17 5982   1.386   1.179   9.246 -0.1026  0.0840 -0.2776
   48CHL1   H17 5983   1.418   1.073   9.254 -1.3332 -0.2928 -0.1713
   48CHL1   C13 5984   1.338   1.217   9.391 -0.7389  0.3175 -0.0402
   48CHL1   C18 5985   1.265   1.352   9.370  1.0380  0.0116 -0.2487
   48CHL1  H18A 5986   1.163   1.317   9.342  1.4447  0.5245 -2.6374
   48CHL1  H18B 5987   1.254   1.409   9.464  1.6515 -1.9499  1.0736
   48CHL1  H18C 5988   1.302   1.423   9.293 -0.2461  0.9286 -0.0591
   48CHL1   C12 5989   1.260   1.118   9.471  0.2176 -0.4148 -0.0421
   48CHL1  H12A 5990   1.155   1.110   9.434  0.5461  1.0254 -1.3897
   48CHL1  H12B 5991   1.303   1.015   9.468 -0.1754 -0.6069  0.5989
   48CHL1   C11 5992   1.243   1.162   9.621 -0.0658  0.3166  0.8309
   48CHL1  H11A 5993   1.175   1.249   9.623  0.1669  0.4945  0.9908
   48CHL1  H11B 5994   1.193   1.074   9.669  1.4169 -0.4668  1.0079
   48CHL1    C9 5995   1.383   1.189   9.686  0.1798  0.7816 -0.3687
   48CHL1    H9 5996   1.433   1.090   9.681 -0.0800  0.6626 -0.6252
   48CHL1   C10 5997   1.365   1.221   9.840  0.6312 -0.2385  0.5683
   48CHL1   C19 5998   1.251   1.322   9.864  0.2153  0.0998 -0.3530
   48CHL1  H19A 5999   1.153   1.275   9.843 -0.3570  1.9593 -2.0716
   48CHL1  H19B 6000   1.253   1.354   9.971 -1.4678 -0.6283 -0.0667
   48CHL1  H19C 6001   1.260   1.407   9.794  0.4512  0.6686  0.3552
   48CHL1    C1 6002   1.323   1.094   9.909 -0.3242  0.1149  0.0244
   48CHL1   H1A 6003   1.219   1.060   9.890 -1.3369  1.8496  1.9587
   48CHL1   H1B 6004   1.399   1.020   9.878 -0.9510 -0.2822 -0.6030
   48CHL1    C2 6005   1.332   1.107  10.063  0.0294  1.1033 -0.0175
   48CHL1   H2A 6006   1.317   1.013  10.121 -0.5589  2.7249  2.6515
   48CHL1   H2B 6007   1.253   1.172  10.106  0.2605 -0.2299  2.6464
   48CHL1   C20 6008   1.288   1.180   9.132  0.2023 -0.2252 -0.0228
   48CHL1   H20 6009   1.267   1.286   9.106  0.1823 -0.5806 -1.5939
   48CHL1   C21 6010   1.152   1.109   9.164  0.5628  0.5739  0.4699
   48CHL1  H21A 6011   1.076   1.118   9.084  2.4176 -0.4021 -1.4871
   48CHL1  H21B 6012   1.096   1.154   9.249  0.0169  0.7062  0.0485
   48CHL1  H21C 6013   1.175   1.002   9.182 -0.1596  0.1821 -0.7961
   48CHL1   C22 6014   1.351   1.121   9.005  1.2153 -0.4631 -0.2694
   48CHL1  H22A 6015   1.459   1.144   8.994  0.8892  1.3287  0.0488
   48CHL1  H22B 6016   1.354   1.010   9.009 -0.6712 -0.5610 -0.3942
   48CHL1   C23 6017   1.278   1.162   8.880 -0.1391  0.1781  0.8084
   48CHL1  H23A 6018   1.210   1.082   8.846 -1.9142  1.2343  1.7375
   48CHL1  H23B 6019   1.221   1.255   8.900  0.3161  0.8319 -0.6965
   48CHL1   C24 6020   1.371   1.207   8.766 -0.6492  0.3703 -0.3390
   48CHL1  H24A 6021   1.438   1.276   8.821 -0.2526  1.0198 -1.6166
   48CHL1  H24B 6022   1.431   1.119   8.735  0.2729  0.7635  0.3042
   48CHL1   C25 6023   1.294   1.272   8.654  0.2815 -0.4149  0.1928
   48CHL1   H25 6024   1.239   1.355   8.702  2.0025  0.2135  1.1721
   48CHL1   C26 6025   1.390   1.330   8.552  0.0317  0.1759  0.3799
   48CHL1  H26A 6026   1.332   1.367   8.464  2.4306 -0.5559 -1.6380
   48CHL1  H26B 6027   1.452   1.410   8.598 -0.1231  1.2706 -1.2083
   48CHL1  H26C 6028   1.444   1.245   8.504 -4.1273 -1.6370 -1.6759
   48CHL1   C27 6029   1.197   1.170   8.585  0.1324 -0.6447  0.0551
   48CHL1  H27A 6030   1.139   1.215   8.502  0.7091  0.3112  0.1518
   48CHL1  H27B 6031   1.256   1.084   8.546  1.1399  0.5344 -1.1097
   48CHL1  H27C 6032   1.119   1.126   8.651  0.4652  1.4823  2.0120
   49CHL1    C3 6033   0.386   1.654  10.175  1.2462 -0.0488  0.1414
   49CHL1    H3 6034   0.368   1.544  10.172  0.3488  0.0774  0.4926
   49CHL1    O3 6035   0.409   1.706  10.302  0.1821 -0.4459 -0.3392
   49CHL1   H3' 6036   0.488   1.657  10.328  1.0647  0.8948 -0.3700
   49CHL1    C4 6037   0.492   1.695  10.068 -0.2480 -0.5368  0.0054
   49CHL1   H4A 6038   0.502   1.805  10.072 -1.3680 -0.3505 -1.3509
   49CHL1   H4B 6039   0.588   1.647  10.096  1.7653  3.1967  0.1419
   49CHL1    C5 6040   0.454   1.671   9.919 -0.2729  0.1878 -0.5255
   49CHL1    C6 6041   0.535   1.596   9.843 -0.4258 -0.3740  0.6614
   49CHL1    H6 6042   0.637   1.570   9.871 -0.5444 -1.9156 -0.2387
   49CHL1    C7 6043   0.503   1.574   9.696 -0.7508 -0.0743  0.2119
   49CHL1   H7A 6044   0.603   1.592   9.650  1.3615  0.7793  4.5931
   49CHL1   H7B 6045   0.482   1.467   9.673 -1.3581  0.0077  0.3685
   49CHL1    C8 6046   0.391   1.665   9.649  0.2269 -0.3264  0.6610
   49CHL1    H8 6047   0.425   1.770   9.643  0.3703  0.0982  5.3364
   49CHL1   C14 6048   0.358   1.614   9.508  0.4329  0.4705  0.5752
   49CHL1   H14 6049   0.319   1.511   9.520  0.4125  0.3906 -0.1547
   49CHL1   C15 6050   0.461   1.603   9.396 -0.0188  0.1605 -0.0048
   49CHL1  H15A 6051   0.538   1.684   9.385  0.6963 -0.7648 -2.5520
   49CHL1  H15B 6052   0.523   1.514   9.419  0.4860  0.0015 -1.8023
   49CHL1   C16 6053   0.370   1.582   9.272 -0.5184  0.4469  0.0286
   49CHL1  H16A 6054   0.415   1.651   9.197  0.8394  0.9979  1.2964
   49CHL1  H16B 6055   0.374   1.475   9.242  1.5109 -1.1501  5.0358
   49CHL1   C17 6056   0.224   1.611   9.305  0.1524  0.1439 -0.4604
   49CHL1   H17 6057   0.170   1.519   9.337 -0.3963  1.0858  1.4422
   49CHL1   C13 6058   0.244   1.694   9.435 -0.1650  0.6265 -1.2024
   49CHL1   C18 6059   0.287   1.840   9.397 -0.1766  0.2550  0.2918
   49CHL1  H18A 6060   0.387   1.837   9.348 -0.1965 -1.8629  0.3048
   49CHL1  H18B 6061   0.218   1.897   9.331  1.1431  1.4205 -0.1396
   49CHL1  H18C 6062   0.297   1.896   9.493 -3.2164 -0.4267  1.1010
   49CHL1   C12 6063   0.125   1.696   9.536  0.4901  0.0732 -0.2304
   49CHL1  H12A 6064   0.048   1.767   9.500 -0.2110 -0.5789 -0.0270
   49CHL1  H12B 6065   0.092   1.591   9.545 -0.1855  0.1588 -1.5520
   49CHL1   C11 6066   0.156   1.742   9.682  0.4350  0.4548  0.6627
   49CHL1  H11A 6067   0.187   1.849   9.679 -1.1931  0.9490 -1.2828
   49CHL1  H11B 6068   0.062   1.725   9.739 -0.6998  1.4295 -0.8328
   49CHL1    C9 6069   0.273   1.668   9.741 -0.9662 -0.0825 -0.1573
   49CHL1    H9 6070   0.241   1.561   9.748 -0.7629 -0.1310  0.0314
   49CHL1   C10 6071   0.315   1.716   9.882  0.1672 -0.9633  0.5677
   49CHL1   C19 6072   0.331   1.871   9.881 -0.4209 -0.1189 -0.7083
   49CHL1  H19A 6073   0.388   1.912   9.794  0.7423 -0.4674 -0.1381
   49CHL1  H19B 6074   0.232   1.919   9.885 -0.4301 -0.1640 -0.4064
   49CHL1  H19C 6075   0.388   1.916   9.965  0.3742  2.2190 -2.3959
   49CHL1    C1 6076   0.209   1.683   9.987 -0.0381  0.5324 -0.3370
   49CHL1   H1A 6077   0.118   1.737   9.953 -0.3949 -0.6473 -1.3303
   49CHL1   H1B 6078   0.180   1.576   9.979  0.3472  0.3886  0.1322
   49CHL1    C2 6079   0.246   1.717  10.132  0.0962 -0.1126  0.3767
   49CHL1   H2A 6080   0.163   1.679  10.195  0.6590 -0.6435  0.8057
   49CHL1   H2B 6081   0.257   1.827  10.135  2.2569 -0.3021  0.4472
   49CHL1   C20 6082   0.138   1.660   9.192 -0.4801  0.0172  0.3253
   49CHL1   H20 6083   0.170   1.764   9.173  0.5738 -0.2613  0.4942
   49CHL1   C21 6084  -0.014   1.656   9.227 -0.1677 -0.5045  0.1351
   49CHL1  H21A 6085  -0.084   1.695   9.150  0.2425 -2.6307 -1.4209
   49CHL1  H21B 6086  -0.039   1.725   9.311 -1.3335 -0.9030  0.1229
   49CHL1  H21C 6087  -0.045   1.552   9.251  2.0735 -0.9423  1.5253
   49CHL1   C22 6088   0.155   1.590   9.058 -0.6671  0.3997  0.0820
   49CHL1  H22A 6089   0.262   1.612   9.038 -0.7332  1.9010  1.2202
   49CHL1  H22B 6090   0.160   1.479   9.056  0.5042  0.2710  3.7257
   49CHL1   C23 6091   0.075   1.639   8.942  0.3251 -0.3041  0.4608
   49CHL1  H23A 6092  -0.029   1.616   8.974  0.6582 -0.6285  1.3439
   49CHL1  H23B 6093   0.082   1.747   8.919  1.8179 -0.3681  0.5281
   49CHL1   C24 6094   0.108   1.561   8.810 -0.4122  0.4605  0.4050
   49CHL1  H24A 6095   0.189   1.615   8.756  2.2418 -3.1085  0.4480
   49CHL1  H24B 6096   0.154   1.464   8.840  0.5536  0.9965  0.7009
   49CHL1   C25 6097  -0.013   1.540   8.715 -0.6270 -0.0929  0.0494
   49CHL1   H25 6098  -0.084   1.478   8.774  0.3026 -1.7825 -0.5752
   49CHL1   C26 6099  -0.086   1.675   8.685  0.8484  0.5181 -0.1551
   49CHL1  H26A 6100  -0.118   1.717   8.783  1.2865 -2.3792  1.3504
   49CHL1  H26B 6101  -0.027   1.742   8.619 -0.7162  2.2923  0.1525
   49CHL1  H26C 6102  -0.171   1.651   8.618  2.4288  0.4769 -2.2487
   49CHL1   C27 6103   0.038   1.462   8.589 -0.4914  0.6461  0.1328
   49CHL1  H27A 6104  -0.045   1.453   8.516 -0.5809  0.8401  0.2121
   49CHL1  H27B 6105   0.130   1.503   8.542  0.5911 -0.7874  0.8967
   49CHL1  H27C 6106   0.069   1.357   8.613 -0.0362  0.2190 -2.0880
   50CHL1    C3 6107   4.190   4.188  10.273  0.9040  0.5312  0.0592
   50CHL1    H3 6108   4.129   4.096  10.281  0.4858  0.9445  2.6515
   50CHL1    O3 6109   4.216   4.229  10.409 -0.3864  0.6854  0.1115
   50CHL1   H3' 6110   4.256   4.316  10.411 -0.5380  0.7670 -0.2850
   50CHL1    C4 6111   4.323   4.160  10.200  0.4626 -0.7258  0.3169
   50CHL1   H4A 6112   4.371   4.260  10.196 -1.6424  0.3210 -0.4149
   50CHL1   H4B 6113   4.385   4.086  10.256 -1.0910 -0.5756  2.3637
   50CHL1    C5 6114   4.284   4.107  10.063  0.2372 -0.2678 -0.0499
   50CHL1    C6 6115   4.318   3.984  10.014  0.6437  0.7190 -0.1251
   50CHL1    H6 6116   4.387   3.924  10.076  0.0062  1.3115  1.1888
   50CHL1    C7 6117   4.283   3.936   9.872 -0.2416 -0.0945  0.4110
   50CHL1   H7A 6118   4.363   3.872   9.827 -0.5147 -0.8185  0.9374
   50CHL1   H7B 6119   4.191   3.873   9.874 -0.1111 -0.2866  0.3879
   50CHL1    C8 6120   4.247   4.059   9.780  0.1037 -0.0609  0.0975
   50CHL1    H8 6121   4.338   4.115   9.749  1.5955 -2.1780  0.4543
   50CHL1   C14 6122   4.177   4.002   9.659  0.1118  0.5735 -0.1027
   50CHL1   H14 6123   4.085   3.958   9.703  0.6126  0.2871  0.6637
   50CHL1   C15 6124   4.232   3.876   9.589  0.5592  0.0544 -0.0149
   50CHL1  H15A 6125   4.341   3.885   9.573  0.5622 -1.4572 -1.0909
   50CHL1  H15B 6126   4.197   3.784   9.639 -2.7573  1.0102 -0.3318
   50CHL1   C16 6127   4.165   3.883   9.450  0.5095 -0.0828  0.1225
   50CHL1  H16A 6128   4.244   3.902   9.374 -0.3170  0.3935 -0.6394
   50CHL1  H16B 6129   4.109   3.791   9.426  2.0618 -1.0181 -0.0609
   50CHL1   C17 6130   4.057   3.996   9.450 -0.2050 -0.1514  0.8223
   50CHL1   H17 6131   3.967   3.958   9.502 -0.3106  1.6640  2.0865
   50CHL1   C13 6132   4.112   4.096   9.559 -0.1543 -0.3848  0.1093
   50CHL1   C18 6133   4.227   4.182   9.495 -0.6384  0.5317  0.6554
   50CHL1  H18A 6134   4.199   4.273   9.438 -0.6523  1.2070  1.7144
   50CHL1  H18B 6135   4.308   4.218   9.562 -0.3063 -1.4292  1.3727
   50CHL1  H18C 6136   4.288   4.126   9.420 -2.4978  0.8841 -1.2406
   50CHL1   C12 6137   4.010   4.182   9.630  0.9009 -0.2120 -0.0898
   50CHL1  H12A 6138   3.971   4.265   9.567  2.5634  0.3088 -0.4655
   50CHL1  H12B 6139   3.923   4.122   9.665 -0.0335  0.5058 -1.1106
   50CHL1   C11 6140   4.068   4.249   9.755  0.1031  0.4743  0.2751
   50CHL1  H11A 6141   4.146   4.320   9.720  0.4320 -0.4030 -0.7999
   50CHL1  H11B 6142   3.983   4.307   9.799  0.0777  2.0250 -1.6567
   50CHL1    C9 6143   4.140   4.148   9.852 -0.1956 -0.0419 -0.2717
   50CHL1    H9 6144   4.067   4.073   9.890  0.4943 -0.8050 -0.4349
   50CHL1   C10 6145   4.197   4.209   9.986 -0.1348 -0.7904  0.7328
   50CHL1   C19 6146   4.282   4.327   9.942  0.0427 -0.0558 -0.1726
   50CHL1  H19A 6147   4.225   4.395   9.876 -1.6072 -2.0692 -0.9333
   50CHL1  H19B 6148   4.330   4.380  10.027  0.0774 -0.1226 -0.1488
   50CHL1  H19C 6149   4.365   4.294   9.876  1.1748  0.5526  0.9028
   50CHL1    C1 6150   4.069   4.262  10.064 -0.2655  0.1164  0.5464
   50CHL1   H1A 6151   4.020   4.352  10.021 -0.6079 -0.0631  0.5564
   50CHL1   H1B 6152   3.989   4.185  10.064 -0.3950  0.2453  0.8656
   50CHL1    C2 6153   4.101   4.299  10.210  0.0475  0.0171  0.2209
   50CHL1   H2A 6154   4.006   4.318  10.265 -0.2737 -0.4273 -0.1750
   50CHL1   H2B 6155   4.159   4.394  10.216 -0.1368  0.0480  4.2031
   50CHL1   C20 6156   4.012   4.052   9.314 -0.3196 -1.0429  0.2883
   50CHL1   H20 6157   4.090   4.111   9.260 -1.4156 -1.2999 -1.6707
   50CHL1   C21 6158   3.882   4.148   9.330 -0.8044  0.2056  0.9803
   50CHL1  H21A 6159   3.811   4.103   9.402 -2.1545  0.3269 -0.2409
   50CHL1  H21B 6160   3.832   4.170   9.234  2.3692  0.8949 -0.6546
   50CHL1  H21C 6161   3.914   4.250   9.361 -3.2557  0.8492  1.6301
   50CHL1   C22 6162   3.966   3.939   9.215 -0.3209 -0.3528  0.4321
   50CHL1  H22A 6163   4.050   3.866   9.216  1.5007  1.5112 -2.2565
   50CHL1  H22B 6164   3.872   3.901   9.261  1.3474 -2.0128  2.7515
   50CHL1   C23 6165   3.945   3.977   9.063 -0.4434  0.0865  0.1135
   50CHL1  H23A 6166   3.868   4.057   9.060  2.2222  2.8110 -0.0148
   50CHL1  H23B 6167   4.032   4.027   9.015 -0.4347 -0.6065 -0.6033
   50CHL1   C24 6168   3.902   3.856   8.980  0.8811  0.4785 -0.6093
   50CHL1  H24A 6169   3.969   3.768   8.994 -2.0840 -2.3396 -2.5577
   50CHL1  H24B 6170   3.806   3.820   9.022  1.9142  1.4777  2.9742
   50CHL1   C25 6171   3.887   3.877   8.828  0.9333  0.4204  1.0609
   50CHL1   H25 6172   3.980   3.918   8.782  1.1860  0.3601  1.5142
   50CHL1   C26 6173   3.857   3.746   8.755 -0.0456 -0.0472  0.1020
   50CHL1  H26A 6174   3.785   3.691   8.819 -0.3950 -0.7236 -0.8406
   50CHL1  H26B 6175   3.825   3.757   8.649  0.5703 -0.2127 -0.1090
   50CHL1  H26C 6176   3.953   3.689   8.751 -0.8647 -1.4425 -0.3809
   50CHL1   C27 6177   3.769   3.975   8.812  0.8948  0.4883  0.1684
   50CHL1  H27A 6178   3.793   4.075   8.855  2.5183  0.4015 -0.4494
   50CHL1  H27B 6179   3.758   3.986   8.703  2.6668  0.4446 -0.0493
   50CHL1  H27C 6180   3.680   3.942   8.869  2.2866 -2.1713  0.9935
   51CHL1    C3 6181   5.391   6.694  10.318 -0.1446  0.2069  0.9458
   51CHL1    H3 6182   5.468   6.614  10.320 -1.1911 -0.9544 -1.1567
   51CHL1    O3 6183   5.346   6.727  10.452  0.4207 -0.1283  0.5589
   51CHL1   H3' 6184   5.332   6.821  10.450 -1.9788 -0.3569  2.2854
   51CHL1    C4 6185   5.469   6.816  10.264  0.9206 -0.4422  0.2855
   51CHL1   H4A 6186   5.392   6.897  10.268  1.0483 -0.3110  0.1235
   51CHL1   H4B 6187   5.554   6.833  10.334  1.0329 -2.8081  0.7815
   51CHL1    C5 6188   5.514   6.803  10.125  0.7069 -0.0377  0.1195
   51CHL1    C6 6189   5.642   6.822  10.089 -0.1172 -0.5360 -0.0909
   51CHL1    H6 6190   5.711   6.864  10.163 -1.6560 -2.2260  2.4362
   51CHL1    C7 6191   5.692   6.809   9.951 -0.3768 -0.2330  0.6088
   51CHL1   H7A 6192   5.770   6.885   9.929 -1.2809  0.3102 -0.8973
   51CHL1   H7B 6193   5.737   6.707   9.948 -2.9813 -1.5733  2.3939
   51CHL1    C8 6194   5.578   6.815   9.852  0.4429  0.4495  0.6163
   51CHL1    H8 6195   5.546   6.921   9.844 -0.3095  0.0959 -1.8994
   51CHL1   C14 6196   5.629   6.759   9.708  0.0926  0.0103 -0.0605
   51CHL1   H14 6197   5.656   6.652   9.723 -0.9487 -0.3569 -0.7509
   51CHL1   C15 6198   5.748   6.823   9.638 -0.1119  0.1841 -0.8912
   51CHL1  H15A 6199   5.756   6.932   9.658 -0.3876 -0.0428  0.5422
   51CHL1  H15B 6200   5.840   6.780   9.681 -1.5453 -0.4707  1.7699
   51CHL1   C16 6201   5.726   6.800   9.486  0.3591  0.2850 -0.2008
   51CHL1  H16A 6202   5.720   6.897   9.432  1.5686 -0.2277 -1.3155
   51CHL1  H16B 6203   5.810   6.738   9.447  1.4426  0.4126  1.7878
   51CHL1   C17 6204   5.593   6.714   9.475 -0.5938  0.2647 -0.0268
   51CHL1   H17 6205   5.637   6.612   9.485  0.6441  0.5844 -1.6916
   51CHL1   C13 6206   5.516   6.752   9.604 -0.3075  0.1565  0.1021
   51CHL1   C18 6207   5.449   6.889   9.586 -0.6831  0.1950  0.1680
   51CHL1  H18A 6208   5.357   6.875   9.525  0.5760 -1.8537 -1.3940
   51CHL1  H18B 6209   5.417   6.939   9.680 -1.5997  0.9506 -0.5275
   51CHL1  H18C 6210   5.520   6.960   9.537 -0.1783 -0.1039  0.4608
   51CHL1   C12 6211   5.412   6.653   9.653 -0.7069 -0.3680 -0.0461
   51CHL1  H12A 6212   5.331   6.635   9.579 -1.1000 -1.0870  0.5374
   51CHL1  H12B 6213   5.449   6.551   9.678 -0.2835 -0.1262  0.3372
   51CHL1   C11 6214   5.348   6.703   9.785  0.0611 -0.3226  0.1392
   51CHL1  H11A 6215   5.295   6.798   9.761  1.7347 -0.0458 -3.0506
   51CHL1  H11B 6216   5.276   6.624   9.814  1.4605 -0.9136  2.2810
   51CHL1    C9 6217   5.458   6.720   9.898 -0.0520 -0.9704  0.3673
   51CHL1    H9 6218   5.499   6.617   9.900  0.2322 -1.0070 -2.7156
   51CHL1   C10 6219   5.406   6.763  10.028  0.0129 -0.5350 -0.2706
   51CHL1   C19 6220   5.331   6.902  10.008  0.3951 -0.5738  0.0463
   51CHL1  H19A 6221   5.394   6.990   9.983 -0.8544  0.2507 -0.2903
   51CHL1  H19B 6222   5.249   6.888   9.935 -2.0697  1.7600  2.1364
   51CHL1  H19C 6223   5.282   6.939  10.100 -0.2217  0.3626 -0.6300
   51CHL1    C1 6224   5.311   6.655  10.082  0.1936 -0.1936  0.1313
   51CHL1   H1A 6225   5.219   6.660  10.020 -0.3416 -2.1170  0.7133
   51CHL1   H1B 6226   5.369   6.562  10.064  0.5767  0.4014 -1.9305
   51CHL1    C2 6227   5.270   6.671  10.235 -0.6393 -0.5264  0.5833
   51CHL1   H2A 6228   5.219   6.578  10.265  0.3544 -0.9417  1.0385
   51CHL1   H2B 6229   5.199   6.754  10.255  1.1375  1.7305 -1.6642
   51CHL1   C20 6230   5.525   6.716   9.344 -0.2168  0.5631  0.5431
   51CHL1   H20 6231   5.418   6.688   9.357 -0.6592  0.8309 -1.9381
   51CHL1   C21 6232   5.578   6.602   9.253 -0.4456 -0.1849 -0.2307
   51CHL1  H21A 6233   5.543   6.613   9.148 -1.7903 -1.0086  0.1020
   51CHL1  H21B 6234   5.559   6.501   9.297  1.9011 -0.5969 -0.0410
   51CHL1  H21C 6235   5.689   6.604   9.243 -0.0155 -0.3830  3.1891
   51CHL1   C22 6236   5.535   6.845   9.261  0.2236  0.2803  0.2707
   51CHL1  H22A 6237   5.507   6.932   9.325 -3.1938  0.4661 -1.2707
   51CHL1  H22B 6238   5.637   6.867   9.221 -0.5884  1.3042 -1.3320
   51CHL1   C23 6239   5.437   6.852   9.142 -0.3159  0.4645  0.1626
   51CHL1  H23A 6240   5.454   6.773   9.066  1.4176  1.5914 -0.6842
   51CHL1  H23B 6241   5.338   6.838   9.191 -0.8044  0.8773 -0.6700
   51CHL1   C24 6242   5.433   6.987   9.074 -0.3059 -0.2430  0.4196
   51CHL1  H24A 6243   5.534   7.028   9.051 -0.6914  1.9626  2.3249
   51CHL1  H24B 6244   5.375   6.993   8.980 -0.2490  0.8851  0.4415
   51CHL1   C25 6245   5.374   7.105   9.163  0.4166 -1.0833 -0.5842
   51CHL1   H25 6246   5.367   7.083   9.272  0.0987 -3.4369 -1.0124
   51CHL1   C26 6247   5.452   7.233   9.140 -0.4151  0.1204 -0.7325
   51CHL1  H26A 6248   5.418   7.312   9.210  0.1276  0.4870 -0.8767
   51CHL1  H26B 6249   5.561   7.221   9.158 -0.2614  2.9506  0.8280
   51CHL1  H26C 6250   5.428   7.269   9.038 -1.5717  0.6528 -0.2814
   51CHL1   C27 6251   5.228   7.129   9.124 -0.4467  0.3173 -0.3187
   51CHL1  H27A 6252   5.168   7.046   9.166  0.4079  0.3144  0.9537
   51CHL1  H27B 6253   5.186   7.226   9.157  0.1301  0.0423  1.2879
   51CHL1  H27C 6254   5.212   7.127   9.014 -0.9142  1.1863 -0.2831
   52CHL1    C3 6255   4.091   5.306  10.072  0.1809  0.7677 -0.2558
   52CHL1    H3 6256   3.991   5.258  10.073 -0.7266  2.1631  4.7547
   52CHL1    O3 6257   4.146   5.281  10.206 -0.0416  0.2555  0.2226
   52CHL1   H3' 6258   4.073   5.294  10.268 -0.0178 -0.8108  0.5008
   52CHL1    C4 6259   4.192   5.256   9.964 -0.3239  0.3459 -0.9604
   52CHL1   H4A 6260   4.286   5.311   9.986  1.3613 -3.0217  1.0582
   52CHL1   H4B 6261   4.207   5.148   9.984 -3.5184  0.1830  1.3630
   52CHL1    C5 6262   4.129   5.285   9.824  0.5544  0.8579  0.0060
   52CHL1    C6 6263   4.104   5.198   9.729 -0.5268  0.1103  0.5937
   52CHL1    H6 6264   4.122   5.090   9.744  2.1788  0.6743  2.2951
   52CHL1    C7 6265   4.056   5.231   9.593  0.3891 -0.2999 -0.8127
   52CHL1   H7A 6266   4.112   5.167   9.521  1.1867  1.2147 -1.5963
   52CHL1   H7B 6267   3.946   5.217   9.588  0.0746  1.4161  0.2872
   52CHL1    C8 6268   4.081   5.376   9.552 -0.0136  0.8792  0.2914
   52CHL1    H8 6269   4.191   5.391   9.546 -0.2396  2.0110 -1.6494
   52CHL1   C14 6270   4.030   5.415   9.414  0.1681  0.2786  0.0034
   52CHL1   H14 6271   3.920   5.410   9.421  0.2666 -0.2769  1.5013
   52CHL1   C15 6272   4.066   5.330   9.287 -0.8186  0.0874  0.2529
   52CHL1  H15A 6273   4.169   5.299   9.314 -1.5627 -1.2092  1.7787
   52CHL1  H15B 6274   3.996   5.243   9.282 -0.1407 -0.3808 -1.7382
   52CHL1   C16 6275   4.033   5.430   9.172 -0.1755  0.0913  0.3630
   52CHL1  H16A 6276   4.126   5.417   9.112 -1.0202  0.5659 -1.1034
   52CHL1  H16B 6277   3.954   5.391   9.105  1.6668 -3.4041 -0.0152
   52CHL1   C17 6278   4.010   5.568   9.234  0.0082 -0.0731  0.9384
   52CHL1   H17 6279   3.900   5.573   9.241 -0.0898 -1.7560  1.1353
   52CHL1   C13 6280   4.058   5.561   9.381 -0.0862  0.0286  0.0868
   52CHL1   C18 6281   4.207   5.604   9.386 -1.0079  0.2656 -0.7051
   52CHL1  H18A 6282   4.268   5.555   9.307  2.4737  0.3585  1.6793
   52CHL1  H18B 6283   4.217   5.713   9.371  1.9430  0.5394  2.2099
   52CHL1  H18C 6284   4.262   5.569   9.476 -0.9357 -0.7389 -1.1185
   52CHL1   C12 6285   3.978   5.646   9.471  0.2912 -0.4093 -0.0632
   52CHL1  H12A 6286   3.997   5.752   9.446 -0.5304 -0.6310 -1.7899
   52CHL1  H12B 6287   3.870   5.622   9.459 -0.2718  0.0857  3.2444
   52CHL1   C11 6288   4.032   5.618   9.615 -0.3521  0.1067  0.2311
   52CHL1  H11A 6289   4.136   5.658   9.614  0.7200 -2.3695 -2.1893
   52CHL1  H11B 6290   3.979   5.678   9.692 -1.0519 -1.3475  0.9138
   52CHL1    C9 6291   4.036   5.468   9.662 -0.5109 -0.1689  0.2916
   52CHL1    H9 6292   3.928   5.461   9.689 -0.3496 -0.7078  0.8229
   52CHL1   C10 6293   4.107   5.434   9.798 -0.0102 -0.8175 -0.0162
   52CHL1   C19 6294   4.233   5.525   9.808  0.3034 -0.0708  0.7376
   52CHL1  H19A 6295   4.296   5.496   9.895  1.1100 -2.9585 -0.6607
   52CHL1  H19B 6296   4.280   5.499   9.711 -0.8076 -0.2533  0.2341
   52CHL1  H19C 6297   4.208   5.632   9.821  1.3357  0.6158 -2.2344
   52CHL1    C1 6298   4.009   5.482   9.915  0.0793 -0.2298  0.2368
   52CHL1   H1A 6299   3.993   5.591   9.905  0.9337 -0.2115 -1.3562
   52CHL1   H1B 6300   3.919   5.423   9.888 -0.2981  0.2039  0.5394
   52CHL1    C2 6301   4.066   5.459  10.057  0.1352  1.1492  0.4738
   52CHL1   H2A 6302   3.984   5.482  10.128 -0.4041  1.4633 -0.2356
   52CHL1   H2B 6303   4.158   5.516  10.082  0.7506 -0.0279  0.9719
   52CHL1   C20 6304   4.057   5.688   9.139  0.0946 -0.4491 -0.1086
   52CHL1   H20 6305   4.076   5.770   9.212 -0.6639 -0.3970  0.0374
   52CHL1   C21 6306   3.939   5.720   9.048  0.4522 -0.4896 -0.4087
   52CHL1  H21A 6307   3.854   5.747   9.114  0.1401  1.1105 -1.4249
   52CHL1  H21B 6308   3.925   5.635   8.977 -0.8945 -0.6465  0.0264
   52CHL1  H21C 6309   3.971   5.814   8.998 -2.5502 -0.0305 -1.6386
   52CHL1   C22 6310   4.193   5.661   9.065 -0.0027  0.1236  0.6942
   52CHL1  H22A 6311   4.276   5.628   9.131 -0.2166 -0.7745  0.5253
   52CHL1  H22B 6312   4.186   5.573   8.997  0.7243  0.9120 -0.4455
   52CHL1   C23 6313   4.238   5.782   8.987 -0.3342  0.6156  0.6223
   52CHL1  H23A 6314   4.165   5.810   8.909  0.3560 -0.0174 -0.2740
   52CHL1  H23B 6315   4.259   5.857   9.066 -0.4387  0.8487  0.4278
   52CHL1   C24 6316   4.365   5.747   8.909  0.5838 -0.0896  0.5400
   52CHL1  H24A 6317   4.449   5.709   8.972  1.2538 -1.3192 -1.0520
   52CHL1  H24B 6318   4.327   5.672   8.838  0.9549  0.8438 -0.6737
   52CHL1   C25 6319   4.422   5.858   8.828 -1.0527 -0.0376  0.4260
   52CHL1   H25 6320   4.339   5.912   8.778 -0.8079 -1.9428 -2.1997
   52CHL1   C26 6321   4.494   5.960   8.915 -0.0269 -0.2355  0.2811
   52CHL1  H26A 6322   4.498   6.062   8.873 -1.6196  0.4742  1.7485
   52CHL1  H26B 6323   4.434   5.969   9.008  0.0397 -2.1452  0.5628
   52CHL1  H26C 6324   4.588   5.908   8.945  0.2308 -0.3801 -0.7510
   52CHL1   C27 6325   4.529   5.804   8.739 -0.2088 -0.3443  0.2340
   52CHL1  H27A 6326   4.495   5.709   8.692 -0.3341 -0.6862  1.0002
   52CHL1  H27B 6327   4.561   5.878   8.663  1.1939 -0.5646  0.5846
   52CHL1  H27C 6328   4.617   5.771   8.799  1.5501  1.2920 -1.2888
   53CHL1    C3 6329   3.480   5.162  10.142 -0.0189 -0.2251  0.2082
   53CHL1    H3 6330   3.378   5.201  10.125 -0.3157 -0.5192  1.2174
   53CHL1    O3 6331   3.485   5.162  10.280 -0.6970  0.2840 -0.4275
   53CHL1   H3' 6332   3.538   5.085  10.304 -1.5892 -0.1226  0.3082
   53CHL1    C4 6333   3.500   5.030  10.064 -0.2881 -0.1057 -0.5129
   53CHL1   H4A 6334   3.599   4.986  10.087 -1.0948 -0.9180  1.6883
   53CHL1   H4B 6335   3.424   4.959  10.104  0.6355 -0.9425 -0.1961
   53CHL1    C5 6336   3.486   5.056   9.920 -0.2547  0.0332  0.0483
   53CHL1    C6 6337   3.392   4.991   9.853 -0.2078  0.0924  0.3821
   53CHL1    H6 6338   3.328   4.910   9.890 -0.9181 -0.2517 -1.4489
   53CHL1    C7 6339   3.373   4.994   9.707  0.0377 -0.5588 -0.4854
   53CHL1   H7A 6340   3.353   4.892   9.667  1.2266 -1.2272  0.5538
   53CHL1   H7B 6341   3.283   5.054   9.682 -0.5882 -2.0473 -2.0287
   53CHL1    C8 6342   3.493   5.061   9.635 -0.4972 -0.2602 -1.0883
   53CHL1    H8 6343   3.573   4.983   9.636 -0.6981 -0.4647 -0.7764
   53CHL1   C14 6344   3.465   5.110   9.494 -0.2594 -0.1884  0.1195
   53CHL1   H14 6345   3.385   5.187   9.502  1.1484  1.3109  0.3010
   53CHL1   C15 6346   3.406   5.007   9.395 -0.2590  0.4424  0.1036
   53CHL1  H15A 6347   3.465   4.915   9.412 -1.7390 -0.8031 -1.2134
   53CHL1  H15B 6348   3.299   4.982   9.405 -0.3302 -0.4680 -2.3698
   53CHL1   C16 6349   3.446   5.058   9.253 -0.3936  0.7445  0.5612
   53CHL1  H16A 6350   3.517   4.992   9.200 -0.3792  2.1362 -1.2463
   53CHL1  H16B 6351   3.354   5.072   9.193 -1.1050 -0.7249  1.2592
   53CHL1   C17 6352   3.521   5.200   9.274 -0.7338  0.6894 -0.5479
   53CHL1   H17 6353   3.439   5.275   9.278 -0.7519  0.8269 -2.4675
   53CHL1   C13 6354   3.580   5.184   9.415 -0.5727  0.6920 -0.2679
   53CHL1   C18 6355   3.707   5.098   9.405  0.0328 -0.1660  0.3917
   53CHL1  H18A 6356   3.790   5.161   9.368  0.6989 -1.6596 -0.7909
   53CHL1  H18B 6357   3.729   5.068   9.509 -1.2650  0.3811  0.8422
   53CHL1  H18C 6358   3.690   5.005   9.346  2.5068 -0.9904  0.9019
   53CHL1   C12 6359   3.599   5.314   9.496 -0.1036  0.3408 -0.4161
   53CHL1  H12A 6360   3.680   5.372   9.447 -1.6087  0.7401 -2.5726
   53CHL1  H12B 6361   3.505   5.373   9.489 -0.1950  0.1401 -0.9288
   53CHL1   C11 6362   3.641   5.287   9.639 -0.3419 -0.2633  0.5465
   53CHL1  H11A 6363   3.742   5.242   9.633  0.1141  0.8948 -1.2365
   53CHL1  H11B 6364   3.643   5.374   9.707  0.8147 -0.3536  0.6555
   53CHL1    C9 6365   3.544   5.190   9.711 -0.5509 -0.0632 -0.4121
   53CHL1    H9 6366   3.459   5.260   9.727  1.7864  2.4687  2.0879
   53CHL1   C10 6367   3.584   5.159   9.863  0.1817  0.2492 -0.1905
   53CHL1   C19 6368   3.725   5.099   9.864  0.2361  0.2877 -0.8288
   53CHL1  H19A 6369   3.801   5.176   9.837  0.8522 -0.6984 -1.9536
   53CHL1  H19B 6370   3.762   5.059   9.961  1.6556  0.7761 -1.1448
   53CHL1  H19C 6371   3.726   5.027   9.780 -2.2968 -0.4849 -0.2979
   53CHL1    C1 6372   3.569   5.293   9.940  0.3376 -0.1737 -0.4194
   53CHL1   H1A 6373   3.643   5.371   9.913  1.0683 -0.8655 -0.4650
   53CHL1   H1B 6374   3.472   5.342   9.922 -0.8586 -0.9829  3.0391
   53CHL1    C2 6375   3.582   5.265  10.093  0.2316 -0.4021  0.5066
   53CHL1   H2A 6376   3.557   5.364  10.137  1.3857 -0.2034  0.7595
   53CHL1   H2B 6377   3.686   5.228  10.109  0.8002  0.0265 -1.8405
   53CHL1   C20 6378   3.611   5.235   9.155 -0.6691  0.4951  0.2845
   53CHL1   H20 6379   3.701   5.170   9.152 -0.4824  0.7249 -3.2342
   53CHL1   C21 6380   3.670   5.374   9.165 -0.2013 -0.0040  0.0094
   53CHL1  H21A 6381   3.734   5.401   9.077  2.9906 -4.7765  0.5243
   53CHL1  H21B 6382   3.734   5.391   9.254 -2.2793  2.9242  1.1092
   53CHL1  H21C 6383   3.581   5.440   9.171  0.0895  1.3757 -5.2204
   53CHL1   C22 6384   3.549   5.221   9.011  0.6899  0.1669 -0.0996
   53CHL1  H22A 6385   3.515   5.116   8.995 -2.9545  1.1318  0.4122
   53CHL1  H22B 6386   3.458   5.284   9.007  0.1311 -0.3850  2.4386
   53CHL1   C23 6387   3.636   5.251   8.893 -0.4693  0.2497 -0.0307
   53CHL1  H23A 6388   3.667   5.357   8.899  1.3977 -0.3025  1.7227
   53CHL1  H23B 6389   3.725   5.185   8.911 -1.1933 -1.5790 -2.5910
   53CHL1   C24 6390   3.558   5.198   8.769 -0.2172  0.3265  0.1240
   53CHL1  H24A 6391   3.553   5.088   8.757 -0.4241  0.4750 -1.3557
   53CHL1  H24B 6392   3.453   5.234   8.768 -0.2020  0.3866 -1.1633
   53CHL1   C25 6393   3.612   5.251   8.638  0.1553 -0.6249 -0.5846
   53CHL1   H25 6394   3.602   5.361   8.640 -0.7171 -0.6691  1.9666
   53CHL1   C26 6395   3.752   5.212   8.594  0.1972  0.7418  0.3811
   53CHL1  H26A 6396   3.781   5.271   8.505 -0.9263  1.1703  0.2817
   53CHL1  H26B 6397   3.830   5.237   8.669  0.9894  3.4538 -1.2149
   53CHL1  H26C 6398   3.759   5.105   8.564 -0.3758  1.2572 -1.7479
   53CHL1   C27 6399   3.512   5.205   8.536  0.5642  0.3787  1.0924
   53CHL1  H27A 6400   3.526   5.246   8.434  0.0039  0.9848  1.2516
   53CHL1  H27B 6401   3.512   5.094   8.528 -1.4010  0.4871 -2.2699
   53CHL1  H27C 6402   3.412   5.248   8.558 -1.3118 -0.2526 -4.4772
   54CHL1    C3 6403   2.648   0.645  10.346 -0.5467 -0.5934 -0.4511
   54CHL1    H3 6404   2.568   0.572  10.320 -1.2608  0.5255 -1.5008
   54CHL1    O3 6405   2.695   0.607  10.477 -0.2479 -0.1661  0.1603
   54CHL1   H3' 6406   2.739   0.684  10.512  1.9719 -2.2568  2.4099
   54CHL1    C4 6407   2.763   0.638  10.240 -0.7828 -0.2200  0.3763
   54CHL1   H4A 6408   2.857   0.684  10.277 -1.0344  0.7108 -0.1000
   54CHL1   H4B 6409   2.800   0.535  10.221  2.3568  0.7410  0.7888
   54CHL1    C5 6410   2.736   0.702  10.107 -0.1751  0.2691  0.5525
   54CHL1    C6 6411   2.761   0.632   9.999 -0.1588 -0.4267 -0.1445
   54CHL1    H6 6412   2.806   0.532  10.001 -0.2824 -0.4988 -0.6611
   54CHL1    C7 6413   2.740   0.701   9.863  0.1173  0.0431  0.1909
   54CHL1   H7A 6414   2.813   0.670   9.785 -2.8324 -1.3967 -2.2563
   54CHL1   H7B 6415   2.645   0.666   9.817  0.7737  0.8561 -1.8881
   54CHL1    C8 6416   2.730   0.855   9.865 -0.3782 -0.6739 -0.7768
   54CHL1    H8 6417   2.834   0.887   9.882 -1.0924  0.4588  1.9440
   54CHL1   C14 6418   2.684   0.916   9.728 -0.8084  0.1261  0.2350
   54CHL1   H14 6419   2.578   0.888   9.710 -1.0996  1.5363 -0.4201
   54CHL1   C15 6420   2.752   0.862   9.599 -0.0894 -0.1639 -0.4449
   54CHL1  H15A 6421   2.862   0.873   9.611  0.1820 -2.9346  0.3090
   54CHL1  H15B 6422   2.722   0.757   9.581 -1.9119 -0.1195  1.8243
   54CHL1   C16 6423   2.688   0.950   9.489  0.1261 -0.8469  0.5438
   54CHL1  H16A 6424   2.775   0.973   9.424  0.8284  0.3733  1.8606
   54CHL1  H16B 6425   2.604   0.899   9.436  0.3889  0.2018 -0.9215
   54CHL1   C17 6426   2.636   1.079   9.570 -0.2804 -0.9189 -0.0938
   54CHL1   H17 6427   2.525   1.074   9.572 -0.3228 -0.8216 -1.2901
   54CHL1   C13 6428   2.685   1.066   9.719  0.0465  0.1281 -0.7561
   54CHL1   C18 6429   2.826   1.132   9.741 -0.5107  0.0230  0.1103
   54CHL1  H18A 6430   2.908   1.115   9.669  2.4965 -0.0798  3.2758
   54CHL1  H18B 6431   2.809   1.241   9.733  0.0543  0.0776 -0.4046
   54CHL1  H18C 6432   2.862   1.112   9.844  1.0075  0.2718 -0.3570
   54CHL1   C12 6433   2.591   1.120   9.828 -0.8222  0.0917  0.1751
   54CHL1  H12A 6434   2.594   1.231   9.831  1.4315  0.0661  1.3920
   54CHL1  H12B 6435   2.488   1.086   9.805 -0.6749 -0.0971 -0.2038
   54CHL1   C11 6436   2.632   1.058   9.971  0.9430 -0.0686 -0.1424
   54CHL1  H11A 6437   2.724   1.097  10.020  1.2899 -0.5443 -0.4077
   54CHL1  H11B 6438   2.545   1.089  10.032 -0.3845 -0.4016 -1.7962
   54CHL1    C9 6439   2.641   0.901   9.980  0.1047 -0.2868  0.8837
   54CHL1    H9 6440   2.539   0.861   9.959  1.1480 -1.6273 -2.2235
   54CHL1   C10 6441   2.679   0.843  10.119 -0.2919 -0.0231  0.2904
   54CHL1   C19 6442   2.794   0.932  10.178  0.1416 -0.1155 -0.3055
   54CHL1  H19A 6443   2.872   0.951  10.101 -1.5906  1.5318 -1.7494
   54CHL1  H19B 6444   2.770   1.036  10.208  0.6262 -0.4260  1.2693
   54CHL1  H19C 6445   2.843   0.887  10.267  0.3230  1.1740  0.2696
   54CHL1    C1 6446   2.560   0.843  10.210 -0.0409  0.2351 -0.2805
   54CHL1   H1A 6447   2.528   0.948  10.222 -2.2159 -0.5210  1.1130
   54CHL1   H1B 6448   2.472   0.787  10.172  0.2395 -1.2430  1.1193
   54CHL1    C2 6449   2.589   0.783  10.349 -0.4848 -0.6676 -0.3872
   54CHL1   H2A 6450   2.497   0.777  10.411  0.7011 -2.0156  1.3403
   54CHL1   H2B 6451   2.653   0.853  10.407  1.6635 -1.1109 -2.1200
   54CHL1   C20 6452   2.661   1.217   9.503 -0.1745 -0.5104  0.6357
   54CHL1   H20 6453   2.767   1.244   9.523 -0.5398  1.3402  0.2538
   54CHL1   C21 6454   2.584   1.332   9.561  0.0095 -0.0920  0.0493
   54CHL1  H21A 6455   2.623   1.432   9.529  0.8354  0.5670  2.8370
   54CHL1  H21B 6456   2.610   1.341   9.669 -0.8094 -1.9464  0.4285
   54CHL1  H21C 6457   2.475   1.321   9.544 -0.2169 -1.0200  1.8826
   54CHL1   C22 6458   2.653   1.223   9.348 -0.1804  0.0631 -0.5315
   54CHL1  H22A 6459   2.680   1.330   9.335 -0.4723  0.2813  0.5660
   54CHL1  H22B 6460   2.733   1.153   9.317  0.2268  0.0006  0.6218
   54CHL1   C23 6461   2.516   1.196   9.275 -0.3967 -0.7233 -0.4054
   54CHL1  H23A 6462   2.482   1.092   9.292 -2.8566  0.0469 -0.2008
   54CHL1  H23B 6463   2.432   1.260   9.308 -1.2920 -2.2453  0.3605
   54CHL1   C24 6464   2.523   1.227   9.119 -0.5547  0.5044 -0.2504
   54CHL1  H24A 6465   2.627   1.256   9.093 -0.3842  0.4500  0.3433
   54CHL1  H24B 6466   2.496   1.140   9.056 -0.9061 -0.4118  1.1218
   54CHL1   C25 6467   2.452   1.355   9.070  0.3703  0.4596  0.3734
   54CHL1   H25 6468   2.354   1.373   9.118  1.0985  1.2448  1.6256
   54CHL1   C26 6469   2.539   1.483   9.116  0.4304  0.2828  0.6293
   54CHL1  H26A 6470   2.485   1.577   9.093 -1.4739 -0.6042  1.2270
   54CHL1  H26B 6471   2.547   1.473   9.226  0.6489 -1.5657  0.4847
   54CHL1  H26C 6472   2.635   1.475   9.061  0.1499  1.5401 -0.0774
   54CHL1   C27 6473   2.434   1.354   8.919 -0.4078  0.2814 -0.6955
   54CHL1  H27A 6474   2.390   1.257   8.888  1.3877 -0.5344 -0.8153
   54CHL1  H27B 6475   2.362   1.432   8.887 -1.1436 -0.1635 -0.1323
   54CHL1  H27C 6476   2.535   1.353   8.872 -0.4435  0.2327 -0.7713
   55CHL1    C3 6477   4.700   4.139  10.181  0.2377  0.0152  0.0362
   55CHL1    H3 6478   4.601   4.089  10.180  0.3344 -0.1998  0.4967
   55CHL1    O3 6479   4.733   4.187  10.310  0.1862  0.0511 -0.2526
   55CHL1   H3' 6480   4.828   4.196  10.305  0.6687 -3.7186 -0.3617
   55CHL1    C4 6481   4.803   4.031  10.139 -0.6297  0.8957 -0.3033
   55CHL1   H4A 6482   4.902   4.082  10.141 -0.8093  1.2330  1.3263
   55CHL1   H4B 6483   4.801   3.948  10.212 -1.1445  0.9010 -0.3094
   55CHL1    C5 6484   4.784   3.978   9.994  0.4718  0.4460  0.1248
   55CHL1    C6 6485   4.766   3.846   9.965  0.4187  0.1754 -0.5289
   55CHL1    H6 6486   4.776   3.777  10.051  1.4614 -1.5877 -1.9865
   55CHL1    C7 6487   4.739   3.775   9.835 -1.2823 -0.2299  0.6495
   55CHL1   H7A 6488   4.816   3.697   9.821  2.5640  3.3496 -0.1399
   55CHL1   H7B 6489   4.635   3.736   9.823 -0.5221 -1.6763 -2.1615
   55CHL1    C8 6490   4.764   3.885   9.714  0.1847 -0.3888 -0.0928
   55CHL1    H8 6491   4.874   3.902   9.712  0.0676  0.3861 -1.5167
   55CHL1   C14 6492   4.699   3.838   9.581 -0.5091 -0.3947  1.2110
   55CHL1   H14 6493   4.590   3.826   9.599 -0.3987 -2.4722  0.7276
   55CHL1   C15 6494   4.735   3.698   9.528 -0.2237 -1.1699  0.2328
   55CHL1  H15A 6495   4.844   3.686   9.546 -0.4094  0.2448  2.7617
   55CHL1  H15B 6496   4.676   3.621   9.584  0.9957 -2.9353 -0.8464
   55CHL1   C16 6497   4.705   3.702   9.378  0.3593 -0.4960 -0.4013
   55CHL1  H16A 6498   4.795   3.677   9.318  1.5571  1.4425  0.5108
   55CHL1  H16B 6499   4.627   3.627   9.353  1.3093 -1.6284 -0.0814
   55CHL1   C17 6500   4.656   3.845   9.350 -0.2898  0.1050 -0.5162
   55CHL1   H17 6501   4.547   3.840   9.372 -0.4482 -1.4040 -1.5227
   55CHL1   C13 6502   4.713   3.937   9.466  0.2472  0.2423  0.5923
   55CHL1   C18 6503   4.859   3.966   9.434 -0.0590 -0.3548  0.0879
   55CHL1  H18A 6504   4.876   4.024   9.341  0.8317  0.4626  0.7456
   55CHL1  H18B 6505   4.900   4.034   9.512 -0.2284  0.2468 -0.3416
   55CHL1  H18C 6506   4.914   3.870   9.424 -0.1231 -0.3788 -0.0305
   55CHL1   C12 6507   4.623   4.053   9.507  0.3366  0.5598 -0.3216
   55CHL1  H12A 6508   4.621   4.131   9.429  0.8894  3.3613  2.2587
   55CHL1  H12B 6509   4.518   4.022   9.526  0.6514 -0.3554  0.0303
   55CHL1   C11 6510   4.666   4.114   9.637  0.1085  0.2114  0.0775
   55CHL1  H11A 6511   4.754   4.182   9.635 -1.7820  2.7879 -0.9235
   55CHL1  H11B 6512   4.583   4.175   9.678 -0.6177 -1.2983  0.9350
   55CHL1    C9 6513   4.694   4.016   9.756  0.6350  0.2303 -0.5759
   55CHL1    H9 6514   4.591   3.984   9.785  0.4236  1.7073  0.3871
   55CHL1   C10 6515   4.761   4.079   9.883 -0.1653 -0.0575  0.5341
   55CHL1   C19 6516   4.909   4.135   9.852  0.2320  0.1439 -0.3414
   55CHL1  H19A 6517   4.989   4.063   9.823  1.2430  1.6198 -1.3822
   55CHL1  H19B 6518   4.907   4.205   9.765  0.0615 -0.3319 -0.7210
   55CHL1  H19C 6519   4.935   4.210   9.930 -1.9992  1.6425 -0.9433
   55CHL1    C1 6520   4.674   4.199   9.930 -0.1307  0.3265  0.0302
   55CHL1   H1A 6521   4.679   4.281   9.855  0.0362  0.1772 -0.1235
   55CHL1   H1B 6522   4.571   4.158   9.937 -0.6735  1.3917 -1.2071
   55CHL1    C2 6523   4.708   4.251  10.075  0.9419 -0.3150  0.7007
   55CHL1   H2A 6524   4.630   4.323  10.108  0.8272 -0.2020  0.1888
   55CHL1   H2B 6525   4.802   4.310  10.071 -1.0728  3.0621 -1.3210
   55CHL1   C20 6526   4.670   3.890   9.206 -0.4702 -0.3501 -0.1592
   55CHL1   H20 6527   4.779   3.890   9.188 -0.5283 -0.6964 -0.5311
   55CHL1   C21 6528   4.621   4.033   9.165 -0.3064  0.0455 -0.1653
   55CHL1  H21A 6529   4.613   4.028   9.054  0.4723 -1.8546 -0.1876
   55CHL1  H21B 6530   4.699   4.110   9.182 -2.2971  2.6755 -2.0342
   55CHL1  H21C 6531   4.529   4.074   9.211  0.1413 -0.0356  0.8167
   55CHL1   C22 6532   4.612   3.785   9.109 -0.4112  0.0246  0.3295
   55CHL1  H22A 6533   4.627   3.828   9.007  1.3072 -0.3155  0.4040
   55CHL1  H22B 6534   4.680   3.697   9.110 -1.4255 -0.7963 -0.2212
   55CHL1   C23 6535   4.468   3.752   9.123  0.3411  0.0500  0.6122
   55CHL1  H23A 6536   4.448   3.714   9.226 -0.3829 -1.9249 -0.2113
   55CHL1  H23B 6537   4.415   3.848   9.107  1.7533  0.8472  0.5963
   55CHL1   C24 6538   4.420   3.654   9.022  0.1578  0.3782  0.2527
   55CHL1  H24A 6539   4.488   3.566   9.027 -0.8510 -0.3948  0.8008
   55CHL1  H24B 6540   4.324   3.615   9.064  1.0235 -1.0920  0.9527
   55CHL1   C25 6541   4.394   3.698   8.867  0.0362  0.2578  0.1760
   55CHL1   H25 6542   4.494   3.736   8.837  0.6626 -2.0489 -0.8702
   55CHL1   C26 6543   4.369   3.572   8.781  0.1221  0.8576  0.4008
   55CHL1  H26A 6544   4.340   3.593   8.675  1.9430  1.8533  0.0453
   55CHL1  H26B 6545   4.458   3.505   8.793  1.4276  2.6917  1.4857
   55CHL1  H26C 6546   4.295   3.505   8.828  1.5606 -1.5960 -0.6214
   55CHL1   C27 6547   4.285   3.800   8.839  1.0080 -0.3186  0.0153
   55CHL1  H27A 6548   4.191   3.765   8.887  2.2094 -1.8292  1.4020
   55CHL1  H27B 6549   4.321   3.901   8.866 -0.6186  0.2899 -0.0001
   55CHL1  H27C 6550   4.266   3.811   8.730 -0.0702 -0.0883  0.2187
   56CHL1    C3 6551   2.352   2.983  10.159 -0.3894 -0.8839 -0.1955
   56CHL1    H3 6552   2.385   3.083  10.125  0.6443 -1.0380  0.3214
   56CHL1    O3 6553   2.356   2.978  10.291  0.3540 -0.2416 -0.1853
   56CHL1   H3' 6554   2.338   2.884  10.302 -1.5218 -0.0393 -1.0399
   56CHL1    C4 6555   2.212   2.949  10.116  0.6866 -0.1790  0.5433
   56CHL1   H4A 6556   2.194   2.848  10.159  1.6632 -0.6049 -0.0229
   56CHL1   H4B 6557   2.130   3.010  10.161  1.2579  0.9998  0.0218
   56CHL1    C5 6558   2.193   2.938   9.968 -0.4452 -0.2252 -0.7341
   56CHL1    C6 6559   2.105   3.013   9.898 -0.1420 -0.4432  0.4096
   56CHL1    H6 6560   2.033   3.076   9.952 -1.8514 -0.3041 -1.9147
   56CHL1    C7 6561   2.082   2.993   9.747 -0.4153 -0.0023 -0.5008
   56CHL1   H7A 6562   1.975   2.993   9.719 -0.2866 -0.4680 -1.0117
   56CHL1   H7B 6563   2.125   3.084   9.699 -2.6540  0.7328 -1.1991
   56CHL1    C8 6564   2.152   2.867   9.690  0.6472 -0.3976 -0.3355
   56CHL1    H8 6565   2.097   2.775   9.721  4.1087 -2.2313  0.9708
   56CHL1   C14 6566   2.146   2.866   9.540  0.4502  0.6684 -0.0400
   56CHL1   H14 6567   2.209   2.953   9.511 -0.5917  1.8222  1.0486
   56CHL1   C15 6568   2.008   2.870   9.471  0.1071 -0.0503 -0.2055
   56CHL1  H15A 6569   1.931   2.813   9.528 -0.0752  1.3602  1.0364
   56CHL1  H15B 6570   1.988   2.977   9.448  0.1659 -0.4487 -2.2866
   56CHL1   C16 6571   2.031   2.813   9.325 -0.3380  0.3280 -0.1221
   56CHL1  H16A 6572   1.976   2.717   9.317  0.1167 -0.2606  2.7001
   56CHL1  H16B 6573   1.995   2.891   9.255 -0.1620  0.6869  0.1797
   56CHL1   C17 6574   2.185   2.784   9.318  0.3227 -0.8470 -0.6529
   56CHL1   H17 6575   2.221   2.888   9.307 -0.6870 -0.3498  0.5944
   56CHL1   C13 6576   2.225   2.755   9.463  0.2263  0.1772 -0.0375
   56CHL1   C18 6577   2.181   2.616   9.516  0.1127  0.2180  0.0869
   56CHL1  H18A 6578   2.077   2.585   9.489  0.0522 -0.0701  0.6414
   56CHL1  H18B 6579   2.260   2.545   9.484  1.7513  0.6140  2.9233
   56CHL1  H18C 6580   2.169   2.625   9.626  0.0049  0.9649  0.0163
   56CHL1   C12 6581   2.370   2.792   9.497 -0.1408  0.5019 -0.3119
   56CHL1  H12A 6582   2.426   2.712   9.445 -1.5366 -0.7594  0.0511
   56CHL1  H12B 6583   2.383   2.891   9.447 -0.6051  0.7696  0.0826
   56CHL1   C11 6584   2.399   2.783   9.648 -0.0880 -0.4278  0.6604
   56CHL1  H11A 6585   2.412   2.676   9.675 -1.2634 -0.9416 -0.7056
   56CHL1  H11B 6586   2.491   2.840   9.671  0.8333 -0.0111 -3.3380
   56CHL1    C9 6587   2.293   2.862   9.738  0.4865  0.3932  0.1071
   56CHL1    H9 6588   2.321   2.968   9.717  0.8323  0.2030 -0.4111
   56CHL1   C10 6589   2.294   2.843   9.893  0.7737 -0.4196  0.6993
   56CHL1   C19 6590   2.256   2.697   9.913  0.0999 -0.0577 -0.8008
   56CHL1  H19A 6591   2.154   2.668   9.880  0.4027  0.9973 -2.8192
   56CHL1  H19B 6592   2.325   2.641   9.846  0.1862  1.5902 -2.1483
   56CHL1  H19C 6593   2.281   2.659  10.015  1.9952 -0.1560 -1.2615
   56CHL1    C1 6594   2.441   2.881   9.940  0.4347 -0.4576  0.0417
   56CHL1   H1A 6595   2.512   2.805   9.901  0.9883  0.5593 -0.9934
   56CHL1   H1B 6596   2.475   2.972   9.887 -1.8366 -0.1688 -1.0365
   56CHL1    C2 6597   2.447   2.880  10.092  0.3894 -0.0951 -0.3252
   56CHL1   H2A 6598   2.552   2.898  10.124  0.3450 -1.1281  0.4297
   56CHL1   H2B 6599   2.425   2.779  10.132  0.9876 -0.1932 -0.2382
   56CHL1   C20 6600   2.243   2.693   9.208  0.4215 -0.4615  0.3707
   56CHL1   H20 6601   2.333   2.643   9.248  3.0584  2.3909 -1.5236
   56CHL1   C21 6602   2.291   2.798   9.106 -0.5540 -0.3809  0.3823
   56CHL1  H21A 6603   2.385   2.854   9.124  0.6532 -1.2029 -2.7010
   56CHL1  H21B 6604   2.201   2.858   9.080 -0.1709 -0.3887 -1.0265
   56CHL1  H21C 6605   2.322   2.731   9.023 -1.8527 -1.2954  0.5976
   56CHL1   C22 6606   2.141   2.599   9.148  0.5244  0.7744 -0.7230
   56CHL1  H22A 6607   2.091   2.541   9.229 -0.2970  0.6383 -1.3099
   56CHL1  H22B 6608   2.064   2.654   9.089 -1.0035 -3.2883 -2.9080
   56CHL1   C23 6609   2.194   2.491   9.054  0.4370  0.8251  0.7862
   56CHL1  H23A 6610   2.231   2.539   8.961  1.0103  0.6654  0.9314
   56CHL1  H23B 6611   2.282   2.450   9.108 -0.3809  0.2994  1.7677
   56CHL1   C24 6612   2.104   2.384   8.994  0.7766 -0.0440  0.3044
   56CHL1  H24A 6613   2.055   2.322   9.072  0.9383 -1.1700 -0.4740
   56CHL1  H24B 6614   2.025   2.445   8.946 -0.5381 -0.9326  1.2899
   56CHL1   C25 6615   2.159   2.288   8.880 -0.9203 -0.2309 -0.3347
   56CHL1   H25 6616   2.086   2.204   8.884 -0.9608 -0.2273 -0.8959
   56CHL1   C26 6617   2.169   2.355   8.740 -0.1272 -0.4311  0.1584
   56CHL1  H26A 6618   2.234   2.445   8.728 -2.5123  1.1101 -2.7700
   56CHL1  H26B 6619   2.222   2.280   8.677  1.9411 -0.4192  1.7799
   56CHL1  H26C 6620   2.071   2.362   8.688 -0.6513 -1.6459  0.9441
   56CHL1   C27 6621   2.294   2.232   8.926  0.0998  0.1699 -0.5231
   56CHL1  H27A 6622   2.333   2.155   8.856  1.1059  0.9456 -0.8378
   56CHL1  H27B 6623   2.366   2.315   8.940  0.5749 -0.5694  2.0242
   56CHL1  H27C 6624   2.296   2.185   9.027 -0.2238  1.5913  0.1700
   57CHL1    C3 6625   4.521   4.921  10.387 -0.6980 -0.3567  0.4281
   57CHL1    H3 6626   4.599   4.994  10.357 -2.7532  2.2045  0.8504
   57CHL1    O3 6627   4.488   4.957  10.523 -0.1877 -0.1918  0.0629
   57CHL1   H3' 6628   4.540   4.899  10.578  2.3179  0.5553 -1.3872
   57CHL1    C4 6629   4.403   4.946  10.297  0.0100 -0.2193  0.3537
   57CHL1   H4A 6630   4.312   4.890  10.327  0.3100 -0.8526  0.1002
   57CHL1   H4B 6631   4.382   5.055  10.301 -0.0995 -0.2607  0.9084
   57CHL1    C5 6632   4.432   4.902  10.153  0.4027  0.1908  0.0916
   57CHL1    C6 6633   4.422   4.990  10.051 -0.2362  0.3356  0.2553
   57CHL1    H6 6634   4.385   5.092  10.068 -1.3999  0.0473 -0.4511
   57CHL1    C7 6635   4.452   4.959   9.909  0.0596  0.8594 -0.6287
   57CHL1   H7A 6636   4.376   4.999   9.838 -0.7680 -2.9075 -2.1262
   57CHL1   H7B 6637   4.548   5.001   9.873  0.3041  1.3097  0.5085
   57CHL1    C8 6638   4.457   4.804   9.883  1.0388 -0.2038 -0.9382
   57CHL1    H8 6639   4.357   4.756   9.890 -0.1481  2.2294  0.2594
   57CHL1   C14 6640   4.517   4.783   9.749 -0.2561  0.2692  0.2763
   57CHL1   H14 6641   4.621   4.823   9.753 -0.2860  0.2296  2.5905
   57CHL1   C15 6642   4.444   4.850   9.628  0.1146  0.1723  0.1809
   57CHL1  H15A 6643   4.333   4.849   9.638 -0.1496  1.4727 -2.0670
   57CHL1  H15B 6644   4.460   4.959   9.613 -1.4051  0.0671 -2.8233
   57CHL1   C16 6645   4.478   4.760   9.504  0.1162 -0.3506  0.0094
   57CHL1  H16A 6646   4.389   4.702   9.470  0.3770 -0.5973 -0.2508
   57CHL1  H16B 6647   4.526   4.812   9.419  1.1551  0.6524  1.1695
   57CHL1   C17 6648   4.574   4.655   9.568 -0.5662  0.3299 -0.2243
   57CHL1   H17 6649   4.668   4.714   9.570 -1.2754  1.4725  0.1564
   57CHL1   C13 6650   4.531   4.635   9.713  0.2702 -0.3112 -0.7602
   57CHL1   C18 6651   4.396   4.561   9.717 -0.5362  0.0936  0.9147
   57CHL1  H18A 6652   4.321   4.598   9.644 -0.5964  1.8699  1.8158
   57CHL1  H18B 6653   4.416   4.453   9.698 -0.7876  0.2371 -0.2619
   57CHL1  H18C 6654   4.345   4.563   9.815 -1.4616 -3.2210  0.6301
   57CHL1   C12 6655   4.640   4.581   9.813  0.0422 -0.2533 -0.1773
   57CHL1  H12A 6656   4.672   4.475   9.807  2.9279  0.5422 -0.1750
   57CHL1  H12B 6657   4.729   4.647   9.812  0.4968 -0.8355  0.4524
   57CHL1   C11 6658   4.580   4.588   9.957 -0.0304 -1.3579 -0.4819
   57CHL1  H11A 6659   4.490   4.522   9.960 -0.7313 -0.4578 -1.1429
   57CHL1  H11B 6660   4.659   4.544  10.021 -2.7842 -4.1718  1.2611
   57CHL1    C9 6661   4.542   4.738   9.994 -0.5865  0.5156 -0.4762
   57CHL1    H9 6662   4.639   4.791   9.983 -0.1668 -0.2316 -0.4483
   57CHL1   C10 6663   4.487   4.756  10.139 -0.0102 -0.4159 -0.3264
   57CHL1   C19 6664   4.372   4.652  10.152  0.2032  0.1192 -0.4364
   57CHL1  H19A 6665   4.316   4.666  10.247 -1.3277  0.3170 -1.3374
   57CHL1  H19B 6666   4.298   4.650  10.070  1.6041  0.1887 -1.7372
   57CHL1  H19C 6667   4.415   4.551  10.169  2.1757  1.0937  0.7158
   57CHL1    C1 6668   4.604   4.739  10.246  0.4507 -0.1609  0.2593
   57CHL1   H1A 6669   4.646   4.636  10.245  2.7980  0.7162  1.4795
   57CHL1   H1B 6670   4.692   4.797  10.211  3.1449 -3.0341  1.7866
   57CHL1    C2 6671   4.579   4.782  10.386 -0.0007 -0.5003  0.6975
   57CHL1   H2A 6672   4.669   4.774  10.450  0.9646  2.4857 -0.1200
   57CHL1   H2B 6673   4.510   4.708  10.431  0.3761 -1.6288 -0.5011
   57CHL1   C20 6674   4.592   4.528   9.480 -0.2892 -0.3556  0.0986
   57CHL1   H20 6675   4.505   4.461   9.497 -0.9484  0.6167  0.7095
   57CHL1   C21 6676   4.720   4.457   9.523 -0.2848  0.2663 -0.0811
   57CHL1  H21A 6677   4.801   4.527   9.550 -0.2873  0.8687 -1.5510
   57CHL1  H21B 6678   4.762   4.386   9.450 -1.9107  0.0374 -0.8471
   57CHL1  H21C 6679   4.717   4.400   9.619  1.3438  1.8027  0.9444
   57CHL1   C22 6680   4.597   4.556   9.327 -0.1019  0.6105  0.3520
   57CHL1  H22A 6681   4.513   4.623   9.298 -1.6360 -0.5030  2.0007
   57CHL1  H22B 6682   4.700   4.594   9.306  1.1930 -2.0032  1.5279
   57CHL1   C23 6683   4.568   4.423   9.248  0.0933 -0.4674  0.1166
   57CHL1  H23A 6684   4.664   4.368   9.244  0.7234  0.3644  2.0479
   57CHL1  H23B 6685   4.494   4.356   9.297  0.1384 -0.4536  0.2059
   57CHL1   C24 6686   4.525   4.442   9.108 -0.4596  0.2922 -0.2009
   57CHL1  H24A 6687   4.590   4.508   9.047 -1.1130  1.8456  0.7196
   57CHL1  H24B 6688   4.533   4.338   9.070 -1.8114 -0.1011  0.5001
   57CHL1   C25 6689   4.376   4.489   9.090  0.0567 -0.3457 -1.0153
   57CHL1   H25 6690   4.365   4.589   9.137  0.5600  0.0229 -1.6530
   57CHL1   C26 6691   4.332   4.499   8.942 -0.3057  0.6043 -0.4418
   57CHL1  H26A 6692   4.416   4.553   8.892  1.9876  1.6012  3.9007
   57CHL1  H26B 6693   4.328   4.396   8.900  0.0865 -1.7529  4.5240
   57CHL1  H26C 6694   4.233   4.548   8.934 -1.2598 -1.0149  0.9003
   57CHL1   C27 6695   4.281   4.389   9.151 -0.3017 -0.0665 -0.0507
   57CHL1  H27A 6696   4.274   4.300   9.084 -1.1983  0.4272 -0.6385
   57CHL1  H27B 6697   4.301   4.351   9.253 -0.1160  0.3694  0.0787
   57CHL1  H27C 6698   4.177   4.430   9.143 -1.1153 -2.1794 -1.2217
   58CHL1    C3 6699   6.542   3.302  10.171  0.4799  0.0307  0.3818
   58CHL1    H3 6700   6.435   3.296  10.144  0.2206  2.1950  0.7585
   58CHL1    O3 6701   6.561   3.266  10.307  0.5681  0.2809  0.4487
   58CHL1   H3' 6702   6.656   3.271  10.316  0.8507 -0.9670 -1.2831
   58CHL1    C4 6703   6.632   3.216  10.081 -0.1295  0.6799 -0.4047
   58CHL1   H4A 6704   6.734   3.214  10.126 -1.2326  0.3023  2.2371
   58CHL1   H4B 6705   6.608   3.108  10.087  1.7129  0.2088 -0.7636
   58CHL1    C5 6706   6.628   3.267   9.934  0.2271 -0.8449  0.1204
   58CHL1    C6 6707   6.591   3.184   9.837  0.3114  0.2688  0.2138
   58CHL1    H6 6708   6.570   3.080   9.867 -0.5185 -0.0949 -1.5157
   58CHL1    C7 6709   6.570   3.216   9.692 -0.0512 -0.3137 -0.1081
   58CHL1   H7A 6710   6.630   3.153   9.623  3.0193  2.2482 -0.0101
   58CHL1   H7B 6711   6.468   3.192   9.658  0.1508 -0.3149 -0.7243
   58CHL1    C8 6712   6.618   3.357   9.652  0.7183  0.4601 -0.2605
   58CHL1    H8 6713   6.729   3.349   9.642  0.7386 -1.0362  0.6721
   58CHL1   C14 6714   6.532   3.400   9.535 -0.1987  0.2389  0.3600
   58CHL1   H14 6715   6.427   3.423   9.564  0.4891  3.3424  0.6982
   58CHL1   C15 6716   6.526   3.304   9.417  0.3229 -0.4661 -0.1355
   58CHL1  H15A 6717   6.623   3.250   9.413  0.1063 -0.7981 -1.4627
   58CHL1  H15B 6718   6.449   3.224   9.423 -2.1576  1.8166  0.0829
   58CHL1   C16 6719   6.509   3.393   9.299  0.1136  0.0211 -0.1507
   58CHL1  H16A 6720   6.581   3.376   9.216  0.3609 -0.1273  0.0942
   58CHL1  H16B 6721   6.409   3.376   9.253 -0.2070  1.3492  0.0261
   58CHL1   C17 6722   6.491   3.541   9.348  0.1867  0.1456  0.7787
   58CHL1   H17 6723   6.387   3.544   9.386 -0.0682 -0.3399  0.1535
   58CHL1   C13 6724   6.573   3.538   9.475  0.2321  0.3292 -1.1392
   58CHL1   C18 6725   6.719   3.551   9.433 -0.6604  0.2557 -0.2145
   58CHL1  H18A 6726   6.781   3.508   9.514  0.9270  3.0892  0.1945
   58CHL1  H18B 6727   6.757   3.510   9.337  0.9154  0.8059  0.1431
   58CHL1  H18C 6728   6.744   3.659   9.437 -1.2731  0.3805  1.7568
   58CHL1   C12 6729   6.534   3.638   9.583  0.5309 -0.1371 -0.4909
   58CHL1  H12A 6730   6.566   3.738   9.547  1.1810 -0.6589 -1.3887
   58CHL1  H12B 6731   6.424   3.639   9.600  0.4142  1.3677 -1.1358
   58CHL1   C11 6732   6.605   3.608   9.723 -0.1015 -0.4007 -0.0064
   58CHL1  H11A 6733   6.713   3.623   9.704 -0.5362  1.1788 -1.5401
   58CHL1  H11B 6734   6.572   3.680   9.802  1.4699 -0.7839  1.0352
   58CHL1    C9 6735   6.587   3.458   9.768 -0.7730  0.0023  0.1631
   58CHL1    H9 6736   6.477   3.451   9.786 -0.7993 -1.3843 -0.3712
   58CHL1   C10 6737   6.641   3.417   9.911  0.4319  0.1327  0.2732
   58CHL1   C19 6738   6.796   3.430   9.900 -0.0946 -0.1320 -0.3096
   58CHL1  H19A 6739   6.816   3.539   9.906  0.5111 -0.2946  0.8948
   58CHL1  H19B 6740   6.856   3.380   9.979 -1.3035 -0.3298  0.5106
   58CHL1  H19C 6741   6.838   3.399   9.802 -0.9407  0.8336 -1.0037
   58CHL1    C1 6742   6.571   3.508  10.019  0.3265  0.9398 -0.1796
   58CHL1   H1A 6743   6.614   3.610  10.008  2.9680 -0.1655 -0.7522
   58CHL1   H1B 6744   6.461   3.513  10.003 -0.4853 -2.6950  2.8263
   58CHL1    C2 6745   6.589   3.454  10.162 -0.0996 -0.1106  1.2917
   58CHL1   H2A 6746   6.525   3.511  10.232 -0.2273  0.8503  0.4161
   58CHL1   H2B 6747   6.695   3.449  10.196  0.0588 -2.1260  0.6372
   58CHL1   C20 6748   6.516   3.654   9.247  0.5290  0.0781 -0.3118
   58CHL1   H20 6749   6.619   3.698   9.246  0.1277  1.0991 -2.5245
   58CHL1   C21 6750   6.415   3.761   9.292  0.2615 -0.0324 -0.5982
   58CHL1  H21A 6751   6.436   3.794   9.395  0.9741 -0.3883 -0.6250
   58CHL1  H21B 6752   6.308   3.731   9.286 -0.1508  1.1523  0.5593
   58CHL1  H21C 6753   6.430   3.850   9.227 -0.6757  0.6555  0.0952
   58CHL1   C22 6754   6.480   3.615   9.094  0.3462  0.2303 -1.0578
   58CHL1  H22A 6755   6.560   3.546   9.060  0.2945  0.8983 -2.5908
   58CHL1  H22B 6756   6.390   3.550   9.105  1.3089 -1.3514 -2.0679
   58CHL1   C23 6757   6.444   3.719   8.992  0.7568  0.7318 -0.4799
   58CHL1  H23A 6758   6.338   3.752   8.989  0.0985 -1.0632  0.9967
   58CHL1  H23B 6759   6.506   3.811   9.003  2.2150 -0.1567 -0.9505
   58CHL1   C24 6760   6.479   3.667   8.856 -0.0189  0.0113 -0.3992
   58CHL1  H24A 6761   6.421   3.738   8.793 -0.8031  0.0931  0.3868
   58CHL1  H24B 6762   6.588   3.679   8.836 -0.0816  0.3565 -0.5509
   58CHL1   C25 6763   6.429   3.525   8.803  0.0221 -0.8236  0.5807
   58CHL1   H25 6764   6.438   3.455   8.889  0.3344 -0.8917  0.4933
   58CHL1   C26 6765   6.280   3.528   8.750 -0.1419  0.4534  0.0066
   58CHL1  H26A 6766   6.236   3.427   8.734 -1.2329  0.2141  3.5280
   58CHL1  H26B 6767   6.210   3.569   8.827  1.3612  0.0587  1.6558
   58CHL1  H26C 6768   6.267   3.588   8.658 -1.0628  0.8507  0.3880
   58CHL1   C27 6769   6.511   3.482   8.680 -0.0832  0.0834 -0.1305
   58CHL1  H27A 6770   6.447   3.478   8.590 -0.0594 -0.4762 -0.1259
   58CHL1  H27B 6771   6.580   3.565   8.656  2.5684 -0.9649  3.0322
   58CHL1  H27C 6772   6.550   3.380   8.700  1.4117  0.8999  1.4493
   59CHL1    C3 6773   6.685   2.072  10.362  0.0672  0.9292  0.7578
   59CHL1    H3 6774   6.699   2.180  10.337  1.3849  0.5153 -0.4061
   59CHL1    O3 6775   6.709   2.056  10.501 -0.3534  0.3463  0.9443
   59CHL1   H3' 6776   6.700   1.964  10.525 -0.6314  0.0311 -0.2718
   59CHL1    C4 6777   6.542   2.035  10.326 -0.7328 -0.2678 -0.1869
   59CHL1   H4A 6778   6.545   1.927  10.349 -1.8225 -0.5599 -1.2890
   59CHL1   H4B 6779   6.466   2.088  10.387  0.4542  1.6966 -0.3206
   59CHL1    C5 6780   6.527   2.074  10.182 -0.2586  0.2387  0.4745
   59CHL1    C6 6781   6.427   2.150  10.129 -0.0600  0.1180 -0.3596
   59CHL1    H6 6782   6.349   2.185  10.198  1.1651  2.2228  0.0490
   59CHL1    C7 6783   6.400   2.175   9.982 -0.1997 -0.4706  0.1909
   59CHL1   H7A 6784   6.290   2.172   9.977 -0.1194 -2.3934 -1.3414
   59CHL1   H7B 6785   6.441   2.274   9.951  0.9130 -0.3220  1.9276
   59CHL1    C8 6786   6.457   2.068   9.892 -0.4915 -0.8243  0.7310
   59CHL1    H8 6787   6.395   1.976   9.897 -1.7539 -0.1868 -1.6214
   59CHL1   C14 6788   6.449   2.125   9.740  0.0950  0.1167 -0.2087
   59CHL1   H14 6789   6.481   2.231   9.746 -1.2242  0.5930 -1.0369
   59CHL1   C15 6790   6.308   2.138   9.673 -0.0366 -0.4904  0.0134
   59CHL1  H15A 6791   6.250   2.048   9.702  0.8618 -1.1411 -0.1610
   59CHL1  H15B 6792   6.255   2.231   9.702 -1.0127 -0.9116 -0.3646
   59CHL1   C16 6793   6.336   2.146   9.525 -0.0101 -0.3760 -0.6749
   59CHL1  H16A 6794   6.278   2.058   9.489 -0.9184 -1.3274  2.7512
   59CHL1  H16B 6795   6.308   2.241   9.474  1.7783  0.1005 -0.8543
   59CHL1   C17 6796   6.486   2.118   9.509 -0.1677  0.5989 -0.5678
   59CHL1   H17 6797   6.538   2.216   9.513  0.9333  0.0300 -0.5115
   59CHL1   C13 6798   6.528   2.047   9.640  0.5244  0.1654 -0.2863
   59CHL1   C18 6799   6.479   1.899   9.621  0.1567  0.0049  0.1084
   59CHL1  H18A 6800   6.377   1.888   9.577  1.2330 -0.4050 -2.4058
   59CHL1  H18B 6801   6.561   1.860   9.558 -0.4721  0.3640 -0.9517
   59CHL1  H18C 6802   6.491   1.846   9.718  1.5036 -0.8871 -0.5168
   59CHL1   C12 6803   6.675   2.043   9.685  0.3327  0.0499 -0.4469
   59CHL1  H12A 6804   6.735   1.992   9.607  2.7209  1.7065  0.2044
   59CHL1  H12B 6805   6.723   2.143   9.694  0.5896 -0.2270  1.6259
   59CHL1   C11 6806   6.701   1.985   9.826 -0.1695 -0.2212  0.0780
   59CHL1  H11A 6807   6.677   1.877   9.816 -1.1055  0.2402 -4.4701
   59CHL1  H11B 6808   6.807   2.010   9.852 -0.3888  0.0448  0.7400
   59CHL1    C9 6809   6.610   2.053   9.929  0.4556 -0.6980 -0.8852
   59CHL1    H9 6810   6.654   2.155   9.936 -3.6110  1.1468  0.7746
   59CHL1   C10 6811   6.620   1.996  10.078 -0.7621  0.3285  0.6255
   59CHL1   C19 6812   6.578   1.843  10.081 -0.0590  0.1428 -0.6482
   59CHL1  H19A 6813   6.657   1.787  10.028 -0.3755  0.1570 -1.1387
   59CHL1  H19B 6814   6.576   1.801  10.184  1.1899 -0.2821 -0.7736
   59CHL1  H19C 6815   6.485   1.825  10.023 -0.3701 -0.4848  0.0322
   59CHL1    C1 6816   6.765   2.004  10.125 -0.4199 -0.4940  0.2538
   59CHL1   H1A 6817   6.822   1.936  10.057 -0.3628 -0.6194  0.4282
   59CHL1   H1B 6818   6.806   2.105  10.107  0.2763 -0.9646 -0.9258
   59CHL1    C2 6819   6.783   1.989  10.281 -0.6225  0.5279  0.3549
   59CHL1   H2A 6820   6.882   2.028  10.315 -0.2971  0.1307 -0.1173
   59CHL1   H2B 6821   6.781   1.878  10.289  3.3425  0.3588  1.1377
   59CHL1   C20 6822   6.512   2.061   9.370 -0.4050 -0.1102  0.1781
   59CHL1   H20 6823   6.480   1.954   9.369 -0.2905 -0.1549  0.8205
   59CHL1   C21 6824   6.665   2.056   9.342 -0.3338 -0.1704  0.1237
   59CHL1  H21A 6825   6.686   2.014   9.241 -1.5863 -0.6116  0.0354
   59CHL1  H21B 6826   6.718   1.996   9.419  3.5002  3.6112  0.8518
   59CHL1  H21C 6827   6.707   2.158   9.355 -0.6033 -0.1340  0.7076
   59CHL1   C22 6828   6.429   2.128   9.259  0.1638 -0.5848 -0.8531
   59CHL1  H22A 6829   6.322   2.098   9.254 -0.6454  2.0133 -0.7009
   59CHL1  H22B 6830   6.432   2.239   9.269 -0.3697 -0.6200 -0.2813
   59CHL1   C23 6831   6.494   2.114   9.120  0.5835 -0.1551 -0.2448
   59CHL1  H23A 6832   6.588   2.171   9.107  0.8758 -0.0728  1.8825
   59CHL1  H23B 6833   6.524   2.008   9.102  1.3007 -0.0928  0.5501
   59CHL1   C24 6834   6.386   2.156   9.012 -0.0905 -0.5914  0.3737
   59CHL1  H24A 6835   6.290   2.101   9.014 -0.5110 -0.1334 -2.5564
   59CHL1  H24B 6836   6.359   2.263   9.028  0.8218 -0.2582 -0.2312
   59CHL1   C25 6837   6.445   2.144   8.872 -0.1799 -0.0977  0.0167
   59CHL1   H25 6838   6.552   2.173   8.869  0.1653 -1.2718  0.3721
   59CHL1   C26 6839   6.445   1.990   8.828  0.6242 -0.0863  0.5272
   59CHL1  H26A 6840   6.514   1.920   8.880 -0.0942 -2.6385 -1.7493
   59CHL1  H26B 6841   6.344   1.951   8.853  0.4499  1.0626  1.7276
   59CHL1  H26C 6842   6.469   1.988   8.720  0.8015  4.2780  0.3117
   59CHL1   C27 6843   6.366   2.242   8.778  0.0586  0.5775 -0.7545
   59CHL1  H27A 6844   6.257   2.225   8.775  0.2066 -0.4046 -1.1103
   59CHL1  H27B 6845   6.371   2.346   8.818  1.1706 -0.0180  0.7661
   59CHL1  H27C 6846   6.412   2.241   8.677  2.0028 -1.6303  0.0495
   60CHL1    C3 6847   5.627   0.509  10.231 -0.2650  0.0881 -0.0674
   60CHL1    H3 6848   5.574   0.594  10.278  1.5503  1.3076 -0.1449
   60CHL1    O3 6849   5.674   0.416  10.333  0.1982  0.1245  0.1456
   60CHL1   H3' 6850   5.597   0.373  10.373 -0.2334  0.1353 -0.6580
   60CHL1    C4 6851   5.522   0.434  10.141  0.5103  0.5046 -0.3483
   60CHL1   H4A 6852   5.555   0.331  10.117 -1.4191  0.2049 -2.0005
   60CHL1   H4B 6853   5.435   0.426  10.210  1.8636 -0.1631  1.3693
   60CHL1    C5 6854   5.496   0.515  10.015  0.0550  0.4017  0.2751
   60CHL1    C6 6855   5.369   0.543   9.979 -0.4446  1.0402 -0.3294
   60CHL1    H6 6856   5.284   0.506  10.039  1.1707 -0.3905  1.1907
   60CHL1    C7 6857   5.344   0.625   9.853  0.7370  0.2993  0.4550
   60CHL1   H7A 6858   5.253   0.595   9.797  2.0971  0.4943 -2.0314
   60CHL1   H7B 6859   5.334   0.730   9.886  0.6111  0.1207  0.9976
   60CHL1    C8 6860   5.463   0.617   9.755 -0.0967  0.0629 -0.0160
   60CHL1    H8 6861   5.466   0.510   9.723 -0.6276 -0.3601  1.2804
   60CHL1   C14 6862   5.430   0.709   9.650 -0.2383 -0.2513 -0.2132
   60CHL1   H14 6863   5.425   0.815   9.686  0.7987 -0.0239 -0.6761
   60CHL1   C15 6864   5.294   0.697   9.576 -0.7316  0.4993 -0.6971
   60CHL1  H15A 6865   5.269   0.594   9.543  0.0672  0.7955 -2.3198
   60CHL1  H15B 6866   5.223   0.756   9.638  0.5118  1.4722 -0.1369
   60CHL1   C16 6867   5.317   0.770   9.444 -0.2917  0.1471 -0.5044
   60CHL1  H16A 6868   5.306   0.691   9.367 -0.9732  1.9253 -2.3303
   60CHL1  H16B 6869   5.244   0.852   9.423 -1.0221 -0.1819  0.6564
   60CHL1   C17 6870   5.470   0.818   9.445  0.0062 -0.1462  0.0684
   60CHL1   H17 6871   5.480   0.912   9.503 -2.7276 -0.2939  0.8984
   60CHL1   C13 6872   5.541   0.717   9.538  1.0114 -0.7481  0.4531
   60CHL1   C18 6873   5.566   0.578   9.478 -0.4330 -0.6049  0.0497
   60CHL1  H18A 6874   5.617   0.596   9.381  0.7518 -2.3318  0.3161
   60CHL1  H18B 6875   5.634   0.509   9.532  2.7100  1.5139 -0.9691
   60CHL1  H18C 6876   5.472   0.523   9.454 -0.8958 -0.5898  1.6872
   60CHL1   C12 6877   5.665   0.768   9.599 -0.7391 -0.1293  0.0990
   60CHL1  H12A 6878   5.744   0.761   9.521 -1.2592  0.5367 -0.5047
   60CHL1  H12B 6879   5.656   0.871   9.639  0.4913  0.3545 -0.7730
   60CHL1   C11 6880   5.706   0.685   9.721  0.0034 -0.4092 -0.1370
   60CHL1  H11A 6881   5.731   0.582   9.688 -0.4737 -0.0875 -1.5707
   60CHL1  H11B 6882   5.783   0.734   9.784 -1.3125 -1.4623  2.4572
   60CHL1    C9 6883   5.588   0.660   9.826  0.5589 -0.5817  0.0331
   60CHL1    H9 6884   5.558   0.764   9.852 -2.0953 -0.9247 -1.3375
   60CHL1   C10 6885   5.620   0.565   9.939 -0.8204  0.0610 -0.7094
   60CHL1   C19 6886   5.693   0.433   9.894  0.1201 -0.4961  0.8124
   60CHL1  H19A 6887   5.710   0.356   9.972  0.0314 -0.4784  0.8488
   60CHL1  H19B 6888   5.644   0.384   9.807  0.0772  1.2651 -0.1959
   60CHL1  H19C 6889   5.797   0.462   9.866  0.0631 -1.2817 -0.2975
   60CHL1    C1 6890   5.711   0.640  10.039 -0.4306 -0.1750  0.3359
   60CHL1   H1A 6891   5.803   0.672   9.986 -0.0863 -0.8312  0.5208
   60CHL1   H1B 6892   5.664   0.733  10.078 -0.2542 -0.0074  0.1565
   60CHL1    C2 6893   5.752   0.554  10.158 -0.0176  0.6116  0.0985
   60CHL1   H2A 6894   5.817   0.606  10.232  0.6081 -2.9255  2.2457
   60CHL1   H2B 6895   5.827   0.474  10.143 -0.6185  0.1598 -0.5419
   60CHL1   C20 6896   5.534   0.856   9.306 -0.1031  0.2363  0.1312
   60CHL1   H20 6897   5.532   0.761   9.249 -0.0071  0.4925 -0.2967
   60CHL1   C21 6898   5.682   0.894   9.313  0.0070  0.4475 -0.5020
   60CHL1  H21A 6899   5.710   0.952   9.223  1.6868 -3.4281 -2.7228
   60CHL1  H21B 6900   5.740   0.801   9.295 -0.0617  0.3187 -0.0615
   60CHL1  H21C 6901   5.694   0.950   9.409  0.6840 -3.5170  1.9481
   60CHL1   C22 6902   5.444   0.955   9.227 -0.6465 -0.4595 -0.4608
   60CHL1  H22A 6903   5.477   0.965   9.122  0.9492 -2.3197 -0.1928
   60CHL1  H22B 6904   5.348   0.898   9.221 -0.4594 -0.6359 -2.1954
   60CHL1   C23 6905   5.404   1.094   9.282  0.0920  0.0789 -0.4632
   60CHL1  H23A 6906   5.363   1.075   9.383  0.3770 -0.8113 -0.5005
   60CHL1  H23B 6907   5.498   1.153   9.292 -0.2895  0.7573 -0.8001
   60CHL1   C24 6908   5.308   1.163   9.197  0.4993 -0.0102  0.1041
   60CHL1  H24A 6909   5.354   1.165   9.096 -1.8661  1.2379 -1.0277
   60CHL1  H24B 6910   5.206   1.123   9.181  1.4269 -1.5604 -2.4315
   60CHL1   C25 6911   5.296   1.312   9.232 -0.5520  0.0882 -0.1760
   60CHL1   H25 6912   5.403   1.342   9.238  0.1583 -1.8625 -1.8896
   60CHL1   C26 6913   5.238   1.399   9.117 -0.0824 -0.2696  0.1929
   60CHL1  H26A 6914   5.239   1.505   9.151 -0.7997 -0.4640  0.8556
   60CHL1  H26B 6915   5.300   1.390   9.026 -0.4369  1.3536 -0.2501
   60CHL1  H26C 6916   5.135   1.363   9.097 -0.4680  0.2958  1.0634
   60CHL1   C27 6917   5.242   1.344   9.368  1.0501 -0.6212 -0.6391
   60CHL1  H27A 6918   5.132   1.329   9.360  0.1360  3.7280  0.9036
   60CHL1  H27B 6919   5.295   1.287   9.447  0.8231  1.1264  0.8460
   60CHL1  H27C 6920   5.264   1.452   9.383  0.6105 -0.3306 -1.9182
   61CHL1    C3 6921   2.302   1.838  10.405  0.5773 -0.2568  0.2420
   61CHL1    H3 6922   2.197   1.810  10.383  0.4512  0.7295 -0.4480
   61CHL1    O3 6923   2.336   1.865  10.536 -0.3832 -0.3550 -0.2134
   61CHL1   H3' 6924   2.428   1.883  10.516 -0.3467 -1.2508 -0.9042
   61CHL1    C4 6925   2.390   1.732  10.337 -0.3462 -0.2006  0.1635
   61CHL1   H4A 6926   2.494   1.766  10.358 -0.2004 -0.7033  0.2644
   61CHL1   H4B 6927   2.382   1.635  10.391 -0.3193  0.1627  0.8358
   61CHL1    C5 6928   2.368   1.718  10.184  0.3736 -0.3128  0.3343
   61CHL1    C6 6929   2.329   1.598  10.132  0.1960 -0.8820 -0.3088
   61CHL1    H6 6930   2.311   1.511  10.197  0.9152  1.0281  2.6482
   61CHL1    C7 6931   2.312   1.574   9.982  0.4582 -0.0081  0.9977
   61CHL1   H7A 6932   2.363   1.481   9.947 -1.0409 -0.4226 -0.2136
   61CHL1   H7B 6933   2.204   1.558   9.964  0.3654  0.1257  1.4316
   61CHL1    C8 6934   2.351   1.697   9.894 -0.2738 -0.0572  0.3832
   61CHL1    H8 6935   2.462   1.698   9.892 -0.2516  1.3246  0.9180
   61CHL1   C14 6936   2.299   1.682   9.745  0.7312  0.7862 -0.4114
   61CHL1   H14 6937   2.192   1.696   9.769  1.2364  0.6509  2.2344
   61CHL1   C15 6938   2.312   1.548   9.667  0.1282  0.3340  0.1265
   61CHL1  H15A 6939   2.416   1.510   9.675  0.0742 -0.2932 -1.6997
   61CHL1  H15B 6940   2.236   1.469   9.691  0.7046 -0.3912 -0.3898
   61CHL1   C16 6941   2.283   1.599   9.517  0.1730 -0.0604 -0.1768
   61CHL1  H16A 6942   2.364   1.578   9.444 -0.9098  1.4555 -1.8989
   61CHL1  H16B 6943   2.199   1.547   9.468 -0.0829 -0.3350  0.5401
   61CHL1   C17 6944   2.252   1.753   9.522  0.3473  0.3423  0.0359
   61CHL1   H17 6945   2.143   1.752   9.541  0.4299  1.5570  0.6157
   61CHL1   C13 6946   2.331   1.795   9.649 -0.2258 -0.1144 -0.1078
   61CHL1   C18 6947   2.484   1.797   9.628  0.3983  0.4450 -0.0149
   61CHL1  H18A 6948   2.515   1.889   9.574 -0.0708  1.3519  1.2066
   61CHL1  H18B 6949   2.525   1.802   9.731 -2.2172  0.8209  1.0890
   61CHL1  H18C 6950   2.525   1.704   9.584  0.5609  0.1423  0.7644
   61CHL1   C12 6951   2.282   1.926   9.724 -0.3691  0.0547  0.4741
   61CHL1  H12A 6952   2.305   2.014   9.661 -2.2714  1.6613  1.9085
   61CHL1  H12B 6953   2.171   1.928   9.720 -0.3925 -0.6897  0.6105
   61CHL1   C11 6954   2.341   1.950   9.863  0.0866 -0.0130 -0.4818
   61CHL1  H11A 6955   2.450   1.966   9.850  0.0289  1.2779  0.3978
   61CHL1  H11B 6956   2.300   2.045   9.903 -0.0434 -0.2514 -0.0302
   61CHL1    C9 6957   2.316   1.830   9.962 -0.0411 -0.3289  0.8891
   61CHL1    H9 6958   2.206   1.818   9.965 -0.1054  0.1685  0.5227
   61CHL1   C10 6959   2.367   1.850  10.108 -0.6608 -0.7678 -0.5372
   61CHL1   C19 6960   2.512   1.894  10.104  0.6439  0.5124 -0.4286
   61CHL1  H19A 6961   2.515   1.992  10.051 -0.6413  0.2014 -1.1278
   61CHL1  H19B 6962   2.566   1.901  10.201 -0.2617 -1.4443  0.2612
   61CHL1  H19C 6963   2.565   1.820  10.041 -0.6717 -0.1479 -0.7953
   61CHL1    C1 6964   2.270   1.948  10.186 -0.2565  0.3033  0.4087
   61CHL1   H1A 6965   2.269   2.047  10.134 -1.3282  0.4998  0.7897
   61CHL1   H1B 6966   2.166   1.917  10.161 -0.0644  0.1149 -0.1777
   61CHL1    C2 6967   2.303   1.973  10.330 -0.3833  0.1142 -0.2139
   61CHL1   H2A 6968   2.226   2.037  10.379  0.5217  0.2577  1.0677
   61CHL1   H2B 6969   2.401   2.025  10.341 -0.3192 -0.2646  1.1846
   61CHL1   C20 6970   2.288   1.818   9.383  0.5808 -0.1931  0.9812
   61CHL1   H20 6971   2.399   1.824   9.377  0.6090 -1.8228 -0.7946
   61CHL1   C21 6972   2.228   1.959   9.388  0.2614 -0.0974 -0.0631
   61CHL1  H21A 6973   2.280   2.019   9.465  0.5640 -0.0110 -0.3289
   61CHL1  H21B 6974   2.122   1.940   9.413  0.0205  0.1276 -0.8750
   61CHL1  H21C 6975   2.246   2.004   9.287 -2.0163 -1.1469 -1.0013
   61CHL1   C22 6976   2.244   1.732   9.258  0.6641 -0.1162  0.0385
   61CHL1  H22A 6977   2.300   1.637   9.256 -3.7085 -3.0030  0.2810
   61CHL1  H22B 6978   2.137   1.717   9.285  0.6143  0.6856  0.3255
   61CHL1   C23 6979   2.251   1.821   9.130  0.1863 -0.8744  0.2765
   61CHL1  H23A 6980   2.163   1.885   9.150  0.9834 -0.3890  2.5120
   61CHL1  H23B 6981   2.348   1.874   9.132  2.1114 -3.9830  3.9693
   61CHL1   C24 6982   2.238   1.737   9.003  0.0040 -0.6639 -0.5949
   61CHL1  H24A 6983   2.309   1.652   9.003  1.3353  0.4177 -0.7244
   61CHL1  H24B 6984   2.141   1.683   9.000  0.3534 -1.3525  0.0463
   61CHL1   C25 6985   2.260   1.805   8.872 -0.3812 -0.2915 -0.1189
   61CHL1   H25 6986   2.346   1.874   8.885 -1.2910  0.6150  1.3129
   61CHL1   C26 6987   2.292   1.704   8.756 -0.2876  0.0354  0.0718
   61CHL1  H26A 6988   2.303   1.769   8.667 -1.0640  1.4293  0.9556
   61CHL1  H26B 6989   2.389   1.655   8.778  1.7235  4.0779  0.9783
   61CHL1  H26C 6990   2.206   1.636   8.734 -0.8453  0.2539  1.4579
   61CHL1   C27 6991   2.140   1.892   8.836  0.2238  0.2618 -0.1735
   61CHL1  H27A 6992   2.168   1.932   8.736  0.9393 -2.4951 -1.1830
   61CHL1  H27B 6993   2.055   1.826   8.810 -0.9427  1.8041 -0.4097
   61CHL1  H27C 6994   2.116   1.974   8.907  0.4148 -0.3592  0.6191
   62CHL1    C3 6995   3.931   4.920  10.195 -0.2199 -0.0710  0.3947
   62CHL1    H3 6996   3.872   5.013  10.182  1.2880  0.5062 -3.9120
   62CHL1    O3 6997   3.970   4.895  10.330  0.4705  0.3125  0.1293
   62CHL1   H3' 6998   4.036   4.826  10.332  0.7054  0.5140 -0.4416
   62CHL1    C4 6999   3.859   4.796  10.143  0.2606 -0.7331 -0.0430
   62CHL1   H4A 7000   3.909   4.705  10.182 -1.5984 -1.8486 -0.1009
   62CHL1   H4B 7001   3.765   4.800  10.203  0.8386  0.7113  0.7927
   62CHL1    C5 7002   3.827   4.771   9.997  0.1529  0.2896 -0.2783
   62CHL1    C6 7003   3.704   4.752   9.949 -0.7428 -0.4253 -0.1491
   62CHL1    H6 7004   3.610   4.750  10.007 -0.9232 -0.3725 -0.4341
   62CHL1    C7 7005   3.682   4.721   9.806 -0.3141  0.0729  0.5063
   62CHL1   H7A 7006   3.613   4.634   9.793  2.2231 -1.7458 -2.1158
   62CHL1   H7B 7007   3.631   4.810   9.764  0.6580  0.7888  0.8188
   62CHL1    C8 7008   3.817   4.699   9.725 -0.0599 -0.4204 -0.1083
   62CHL1    H8 7009   3.845   4.594   9.747 -1.3779 -0.6192  0.7271
   62CHL1   C14 7010   3.792   4.714   9.580 -0.6276  0.6395 -0.7230
   62CHL1   H14 7011   3.760   4.817   9.555  0.2882  0.3426 -3.4271
   62CHL1   C15 7012   3.680   4.625   9.518 -0.8257  0.0373  0.2135
   62CHL1  H15A 7013   3.675   4.523   9.562 -0.4977  0.1927  0.6157
   62CHL1  H15B 7014   3.581   4.670   9.538 -1.7164 -2.4447  1.9286
   62CHL1   C16 7015   3.704   4.625   9.369 -0.4086  0.0009  0.2674
   62CHL1  H16A 7016   3.719   4.521   9.333  0.7982 -0.9892  3.2889
   62CHL1  H16B 7017   3.623   4.668   9.308  0.8318  0.7442 -0.9193
   62CHL1   C17 7018   3.844   4.700   9.352 -1.1255 -0.4264 -0.4169
   62CHL1   H17 7019   3.825   4.808   9.334 -0.6046 -0.5286 -1.6715
   62CHL1   C13 7020   3.912   4.696   9.492  0.3500  0.2442  0.2170
   62CHL1   C18 7021   3.966   4.555   9.505 -0.4179  0.1449 -0.5023
   62CHL1  H18A 7022   3.892   4.475   9.484  0.1152 -0.6875  0.6467
   62CHL1  H18B 7023   4.055   4.543   9.440  0.3186 -0.9075  0.6447
   62CHL1  H18C 7024   4.001   4.540   9.610 -1.5493  1.4855  0.1096
   62CHL1   C12 7025   4.016   4.798   9.526  0.4639  0.0959 -0.3581
   62CHL1  H12A 7026   4.100   4.769   9.460 -0.9740 -1.6833 -1.4879
   62CHL1  H12B 7027   3.978   4.900   9.501  0.1793  0.7866  2.5095
   62CHL1   C11 7028   4.044   4.796   9.677  0.3146  0.2047  0.0438
   62CHL1  H11A 7029   4.102   4.704   9.700 -0.6595  0.1168  2.4171
   62CHL1  H11B 7030   4.121   4.869   9.711  0.5485 -0.7058  1.5504
   62CHL1    C9 7031   3.922   4.802   9.768 -0.1215 -0.2005 -0.0810
   62CHL1    H9 7032   3.864   4.896   9.751  0.0826  0.2216  1.3779
   62CHL1   C10 7033   3.953   4.786   9.909 -0.0656  0.4360  0.1812
   62CHL1   C19 7034   4.045   4.662   9.936 -0.1086 -0.4872 -0.0625
   62CHL1  H19A 7035   4.044   4.636  10.044 -1.3370  0.4180  0.1687
   62CHL1  H19B 7036   4.018   4.564   9.892  2.1702 -0.9406 -0.5800
   62CHL1  H19C 7037   4.148   4.695   9.913  0.3715 -1.2587  0.9320
   62CHL1    C1 7038   4.025   4.916   9.956 -0.2995  0.8524  0.2152
   62CHL1   H1A 7039   4.119   4.917   9.897 -1.5265  0.8801 -1.8669
   62CHL1   H1B 7040   3.974   5.011   9.931 -1.4810  0.1693 -0.1032
   62CHL1    C2 7041   4.054   4.930  10.108 -0.1059 -0.0387  0.2941
   62CHL1   H2A 7042   4.111   5.024  10.125 -2.5464  1.4861  0.4955
   62CHL1   H2B 7043   4.126   4.848  10.128  0.1360 -0.0708 -0.6572
   62CHL1   C20 7044   3.922   4.637   9.233  0.7458  0.0076  0.2972
   62CHL1   H20 7045   3.943   4.530   9.256  1.2948  0.0770  0.1316
   62CHL1   C21 7046   4.059   4.699   9.211  0.1342 -1.2007 -1.0422
   62CHL1  H21A 7047   4.134   4.663   9.284  0.7089 -1.3732 -1.7040
   62CHL1  H21B 7048   4.060   4.810   9.205 -0.0171 -1.2672 -3.0275
   62CHL1  H21C 7049   4.101   4.667   9.113  1.6823  1.0371 -1.1791
   62CHL1   C22 7050   3.834   4.666   9.104 -0.4910  0.4973 -0.4274
   62CHL1  H22A 7051   3.899   4.646   9.017 -0.6754 -3.4908  0.1378
   62CHL1  H22B 7052   3.750   4.593   9.095  0.0837 -0.3174  0.5998
   62CHL1   C23 7053   3.773   4.802   9.088 -0.0429 -0.1619 -0.1356
   62CHL1  H23A 7054   3.687   4.820   9.156 -0.5743  1.6451 -1.2128
   62CHL1  H23B 7055   3.851   4.876   9.117  2.0147 -3.3933  3.5648
   62CHL1   C24 7056   3.723   4.830   8.946  0.1273 -0.6671 -0.0664
   62CHL1  H24A 7057   3.702   4.939   8.935 -1.0556 -0.9106 -0.3869
   62CHL1  H24B 7058   3.808   4.809   8.878 -0.8935  0.3936 -1.7529
   62CHL1   C25 7059   3.603   4.749   8.899 -0.0163 -0.2511  0.6711
   62CHL1   H25 7060   3.626   4.641   8.912  1.3686 -0.2613 -1.3083
   62CHL1   C26 7061   3.470   4.772   8.967 -0.2616 -0.3064  0.3676
   62CHL1  H26A 7062   3.487   4.764   9.076  0.0655 -0.4313  0.3077
   62CHL1  H26B 7063   3.433   4.876   8.949 -2.3144 -0.6088  2.3161
   62CHL1  H26C 7064   3.399   4.692   8.937  1.5913 -1.9265  0.1064
   62CHL1   C27 7065   3.589   4.761   8.743  1.1808  0.3050  0.7373
   62CHL1  H27A 7066   3.613   4.860   8.700  2.2808 -1.0368 -2.0249
   62CHL1  H27B 7067   3.658   4.693   8.688 -1.0995 -2.0334  0.5655
   62CHL1  H27C 7068   3.484   4.739   8.712  1.6700 -0.9766 -0.1075
   63CHL1    C3 7069   5.358   6.087  10.586 -1.1796 -0.1087 -0.1433
   63CHL1    H3 7070   5.444   6.157  10.573 -3.3877  3.2022  1.4737
   63CHL1    O3 7071   5.335   6.078  10.727  0.2771 -0.5544 -0.3739
   63CHL1   H3' 7072   5.282   6.000  10.745 -1.2320  0.5952  0.3326
   63CHL1    C4 7073   5.232   6.141  10.518 -0.2925 -0.4232 -0.7186
   63CHL1   H4A 7074   5.154   6.066  10.545  2.1955 -2.7251  0.5456
   63CHL1   H4B 7075   5.187   6.231  10.564  1.2975 -0.8380  1.8148
   63CHL1    C5 7076   5.255   6.154  10.366  0.7028  0.3732 -0.7471
   63CHL1    C6 7077   5.238   6.271  10.307  0.1810  0.0560 -0.4786
   63CHL1    H6 7078   5.206   6.355  10.369 -1.3061 -0.0357 -1.0835
   63CHL1    C7 7079   5.250   6.291  10.159 -0.1578 -0.4610  0.6896
   63CHL1   H7A 7080   5.167   6.349  10.113  0.7347  0.3159  0.0359
   63CHL1   H7B 7081   5.335   6.358  10.132 -0.1578 -0.2865  1.1104
   63CHL1    C8 7082   5.258   6.161  10.075  0.0125 -0.2973  0.5718
   63CHL1    H8 7083   5.158   6.117  10.051  0.4289 -0.4257 -1.0662
   63CHL1   C14 7084   5.317   6.192   9.936 -0.6125 -0.4612 -0.8556
   63CHL1   H14 7085   5.425   6.217   9.951 -0.7718  0.1158 -0.6253
   63CHL1   C15 7086   5.261   6.304   9.857  0.6594  0.7529  0.0808
   63CHL1  H15A 7087   5.150   6.312   9.865  0.6318  0.0844  0.4628
   63CHL1  H15B 7088   5.286   6.409   9.882 -0.7750  1.1414  0.0032
   63CHL1   C16 7089   5.329   6.285   9.721  0.3815 -0.8209 -0.0763
   63CHL1  H16A 7090   5.256   6.308   9.640  0.4733 -0.5335 -0.0768
   63CHL1  H16B 7091   5.416   6.350   9.700  0.1551 -0.1767  0.9070
   63CHL1   C17 7092   5.383   6.138   9.717 -0.5549  0.1953 -0.2911
   63CHL1   H17 7093   5.488   6.145   9.753 -0.8816 -1.2530  1.0155
   63CHL1   C13 7094   5.318   6.078   9.841  0.1586 -0.3054  0.0783
   63CHL1   C18 7095   5.173   6.041   9.804  0.3901 -0.0848 -0.2642
   63CHL1  H18A 7096   5.120   5.988   9.885  1.4374 -2.4553 -1.0215
   63CHL1  H18B 7097   5.112   6.125   9.764  0.3158 -1.2179 -2.7411
   63CHL1  H18C 7098   5.167   5.971   9.717 -1.1677 -2.1255  1.3730
   63CHL1   C12 7099   5.392   5.957   9.911 -0.0617  0.3983 -0.3780
   63CHL1  H12A 7100   5.378   5.868   9.847  0.8246  0.8646 -1.2554
   63CHL1  H12B 7101   5.500   5.980   9.925  0.0159 -0.2508  0.1450
   63CHL1   C11 7102   5.342   5.932  10.059 -0.4954  0.3925  0.6376
   63CHL1  H11A 7103   5.237   5.897  10.044 -0.2894  0.6493 -1.7101
   63CHL1  H11B 7104   5.394   5.843  10.101 -0.5515 -0.3459 -0.8044
   63CHL1    C9 7105   5.338   6.059  10.147 -0.3634  0.7531  1.0530
   63CHL1    H9 7106   5.445   6.088  10.156  0.1538  0.0591 -1.7937
   63CHL1   C10 7107   5.288   6.022  10.291 -1.3642  0.3269 -0.2926
   63CHL1   C19 7108   5.164   5.932  10.290  0.5134  0.2288 -0.5591
   63CHL1  H19A 7109   5.097   5.966  10.208  1.1108  1.3427 -0.6130
   63CHL1  H19B 7110   5.193   5.829  10.261  3.5013  0.7478  0.2774
   63CHL1  H19C 7111   5.113   5.937  10.388  1.3939 -2.3718  0.1121
   63CHL1    C1 7112   5.406   5.946  10.365 -0.5271  0.7071 -0.3647
   63CHL1   H1A 7113   5.420   5.842  10.329 -1.6169 -0.4466  2.2739
   63CHL1   H1B 7114   5.499   6.003  10.341  0.6057 -0.0697  1.8452
   63CHL1    C2 7115   5.399   5.949  10.519  0.0684 -0.4372 -0.8233
   63CHL1   H2A 7116   5.496   5.908  10.555  0.2089  0.7335  0.1937
   63CHL1   H2B 7117   5.311   5.889  10.552 -0.5677  0.8007 -0.2240
   63CHL1   C20 7118   5.366   6.081   9.578  0.0928  0.3531  0.1298
   63CHL1   H20 7119   5.257   6.080   9.556 -0.4062 -0.1451  2.4221
   63CHL1   C21 7120   5.432   5.946   9.573  0.0667 -0.2628  0.2137
   63CHL1  H21A 7121   5.538   5.954   9.606  0.4830 -0.5613 -0.9891
   63CHL1  H21B 7122   5.434   5.908   9.469 -0.9949 -3.6517  1.2780
   63CHL1  H21C 7123   5.387   5.868   9.638  0.1034 -1.1555 -0.8038
   63CHL1   C22 7124   5.419   6.169   9.467 -0.4922 -0.4180 -0.3841
   63CHL1  H22A 7125   5.377   6.271   9.479  0.0568 -0.2367  0.0214
   63CHL1  H22B 7126   5.530   6.174   9.461 -0.5768  0.8451 -1.2819
   63CHL1   C23 7127   5.382   6.132   9.321  0.4400  0.0775  0.0722
   63CHL1  H23A 7128   5.419   6.028   9.304  1.5295  0.5497 -0.5604
   63CHL1  H23B 7129   5.271   6.136   9.320  0.4279  1.3839  1.8415
   63CHL1   C24 7130   5.470   6.214   9.221 -0.3958  0.3376 -0.4360
   63CHL1  H24A 7131   5.432   6.318   9.214  2.7242  1.6540  0.3117
   63CHL1  H24B 7132   5.574   6.215   9.261 -1.5618  0.7760  2.9000
   63CHL1   C25 7133   5.482   6.155   9.083 -0.1635 -0.6296  0.6952
   63CHL1   H25 7134   5.381   6.124   9.049  0.3878  0.1770 -1.9083
   63CHL1   C26 7135   5.522   6.276   8.989 -0.1206 -0.2610 -0.3063
   63CHL1  H26A 7136   5.627   6.311   9.002 -0.9277  2.7281 -1.1385
   63CHL1  H26B 7137   5.513   6.240   8.884  0.2006  2.0412 -1.1790
   63CHL1  H26C 7138   5.457   6.365   9.002 -0.8419 -0.9850  1.2492
   63CHL1   C27 7139   5.570   6.028   9.069  0.7647 -0.2823 -0.1645
   63CHL1  H27A 7140   5.602   6.014   8.964  0.9323  0.9560 -0.2986
   63CHL1  H27B 7141   5.668   6.052   9.116  0.7164 -2.6093  1.2402
   63CHL1  H27C 7142   5.511   5.945   9.113 -0.0199  0.9614  1.2321
   64CHL1    C3 7143   4.705   5.266  10.062  0.1009 -0.3886 -0.4865
   64CHL1    H3 7144   4.630   5.184  10.069 -0.9480  0.4184 -1.7716
   64CHL1    O3 7145   4.759   5.289  10.191 -0.1658 -0.2367 -0.2027
   64CHL1   H3' 7146   4.680   5.319  10.237  0.5898  0.4703  0.6587
   64CHL1    C4 7147   4.824   5.229   9.973  0.1218  0.3739  0.2780
   64CHL1   H4A 7148   4.904   5.305   9.973  0.2910  0.2176  1.5460
   64CHL1   H4B 7149   4.873   5.140  10.020  1.3974 -0.6196 -2.7149
   64CHL1    C5 7150   4.786   5.194   9.835  0.3538  0.1257  0.4751
   64CHL1    C6 7151   4.817   5.076   9.770 -0.3775 -0.9376  0.9152
   64CHL1    H6 7152   4.870   4.999   9.828  0.5218 -1.4270 -0.5142
   64CHL1    C7 7153   4.793   5.061   9.620 -0.0061 -0.2571 -0.3735
   64CHL1   H7A 7154   4.887   5.035   9.566 -0.7233 -2.6722 -0.5895
   64CHL1   H7B 7155   4.725   4.974   9.610 -0.8072  0.1197  1.4971
   64CHL1    C8 7156   4.738   5.187   9.543  0.2319 -1.0272  0.1670
   64CHL1    H8 7157   4.821   5.258   9.526 -0.4246  0.2162  1.8514
   64CHL1   C14 7158   4.670   5.134   9.415  0.2650  0.3247 -0.0399
   64CHL1   H14 7159   4.586   5.070   9.450 -0.4253  0.3521 -1.5646
   64CHL1   C15 7160   4.744   5.036   9.328  0.7106  0.2343  0.2125
   64CHL1  H15A 7161   4.854   5.052   9.321  0.9095 -0.7438  0.7708
   64CHL1  H15B 7162   4.732   4.936   9.377  0.2243 -1.0150 -2.3016
   64CHL1   C16 7163   4.675   5.051   9.189  1.2047 -0.3923 -0.3006
   64CHL1  H16A 7164   4.756   5.085   9.122  1.3701 -1.0851 -0.4562
   64CHL1  H16B 7165   4.623   4.959   9.155 -1.6080  0.7963  0.5021
   64CHL1   C17 7166   4.566   5.161   9.200  0.0394  0.1718 -0.0498
   64CHL1   H17 7167   4.473   5.112   9.237  0.3540  1.1285  2.1892
   64CHL1   C13 7168   4.613   5.243   9.322 -0.0279  0.4563 -0.6984
   64CHL1   C18 7169   4.722   5.343   9.282  0.1175 -0.3054 -0.3365
   64CHL1  H18A 7170   4.805   5.302   9.220 -1.2570 -2.2427 -1.0108
   64CHL1  H18B 7171   4.663   5.404   9.210 -0.5536  0.6149  0.9619
   64CHL1  H18C 7172   4.768   5.407   9.360  0.7133  0.2665 -1.1329
   64CHL1   C12 7173   4.506   5.310   9.405  0.3060  0.0932 -0.0857
   64CHL1  H12A 7174   4.464   5.399   9.353 -0.3069  0.2665  0.7078
   64CHL1  H12B 7175   4.422   5.240   9.420 -0.5747 -0.3918 -5.3741
   64CHL1   C11 7176   4.554   5.364   9.543 -0.2023 -0.6800 -0.0100
   64CHL1  H11A 7177   4.613   5.454   9.514 -2.0634  0.8979  0.8303
   64CHL1  H11B 7178   4.466   5.393   9.604 -0.2044  0.3808 -0.4788
   64CHL1    C9 7179   4.633   5.262   9.630 -0.6729 -0.2961  0.5582
   64CHL1    H9 7180   4.555   5.188   9.655  0.0718 -0.7834  1.5185
   64CHL1   C10 7181   4.704   5.306   9.766  0.4662 -0.2107 -0.2063
   64CHL1   C19 7182   4.797   5.424   9.760 -0.8602 -0.5380 -0.2531
   64CHL1  H19A 7183   4.874   5.397   9.684 -1.1253 -2.0047 -0.0382
   64CHL1  H19B 7184   4.746   5.515   9.723 -0.4096  1.0334  2.6326
   64CHL1  H19C 7185   4.846   5.456   9.855  1.9768 -1.7858 -1.1706
   64CHL1    C1 7186   4.588   5.348   9.863 -0.2012 -0.1761 -0.6667
   64CHL1   H1A 7187   4.544   5.437   9.814  1.3672  0.8436 -0.2825
   64CHL1   H1B 7188   4.523   5.257   9.866  0.8209 -0.9116 -0.1582
   64CHL1    C2 7189   4.638   5.387  10.004 -0.1233  0.2268 -0.2714
   64CHL1   H2A 7190   4.556   5.420  10.073  0.5377  3.0976 -0.7161
   64CHL1   H2B 7191   4.700   5.479   9.997 -0.6546  0.6897  0.7305
   64CHL1   C20 7192   4.540   5.228   9.062  0.0872 -0.1088 -0.0551
   64CHL1   H20 7193   4.635   5.268   9.023 -1.3075  1.4311 -2.1047
   64CHL1   C21 7194   4.443   5.344   9.066  0.1307  0.1766 -0.0678
   64CHL1  H21A 7195   4.473   5.432   9.126 -0.9875  0.7815 -0.3615
   64CHL1  H21B 7196   4.352   5.310   9.119  1.0530 -0.8364  0.9017
   64CHL1  H21C 7197   4.408   5.373   8.964  0.0880 -0.6700 -0.2967
   64CHL1   C22 7198   4.478   5.128   8.961 -0.1949  0.0459 -0.0747
   64CHL1  H22A 7199   4.477   5.168   8.858  1.2661 -3.0342 -1.4211
   64CHL1  H22B 7200   4.554   5.046   8.959  2.2120  2.1315  0.4023
   64CHL1   C23 7201   4.338   5.079   8.980 -0.6813  0.3986  0.5265
   64CHL1  H23A 7202   4.336   5.021   9.075  0.5758  0.7195  0.7624
   64CHL1  H23B 7203   4.271   5.168   8.975  0.2790  1.0574 -2.3457
   64CHL1   C24 7204   4.312   4.974   8.867  0.2909  0.5728  0.1718
   64CHL1  H24A 7205   4.319   5.025   8.769 -0.0474 -0.5656 -0.4647
   64CHL1  H24B 7206   4.388   4.892   8.865 -1.5342 -1.2054  0.4500
   64CHL1   C25 7207   4.181   4.898   8.877  0.6116 -0.5248 -0.0980
   64CHL1   H25 7208   4.177   4.853   8.978  0.5244  0.9017  0.5544
   64CHL1   C26 7209   4.073   5.000   8.857  0.6448 -0.3992  0.1034
   64CHL1  H26A 7210   4.083   5.100   8.905 -2.2641  0.6443 -1.2468
   64CHL1  H26B 7211   4.065   5.030   8.751 -0.4606  2.4584  0.8964
   64CHL1  H26C 7212   3.978   4.946   8.878  1.1662 -1.3065  0.1745
   64CHL1   C27 7213   4.151   4.778   8.780 -0.5772 -0.5791 -0.4977
   64CHL1  H27A 7214   4.237   4.708   8.774 -1.0307 -1.3822  1.5220
   64CHL1  H27B 7215   4.057   4.726   8.806  0.2626 -2.0009 -0.1967
   64CHL1  H27C 7216   4.132   4.813   8.677 -1.2899 -0.8937 -0.4790
   65CHL1    C3 7217   6.264   2.507  10.354 -0.4373  0.5518 -0.0350
   65CHL1    H3 7218   6.259   2.402  10.318  0.6655  0.5948 -0.3775
   65CHL1    O3 7219   6.229   2.515  10.492  0.4495  0.4840  0.5050
   65CHL1   H3' 7220   6.301   2.470  10.537 -1.3666 -1.2897  1.7691
   65CHL1    C4 7221   6.413   2.552  10.345  0.4137 -0.1345 -1.0925
   65CHL1   H4A 7222   6.426   2.655  10.384 -3.4417  0.0611  0.0042
   65CHL1   H4B 7223   6.463   2.477  10.410  1.7947  0.7909 -1.0228
   65CHL1    C5 7224   6.468   2.555  10.207  0.0764  0.6878 -0.4911
   65CHL1    C6 7225   6.581   2.489  10.174 -0.3302  0.0533 -0.3066
   65CHL1    H6 7226   6.632   2.427  10.248  0.7468  0.6805 -0.5104
   65CHL1    C7 7227   6.641   2.484  10.036 -0.6622 -0.5606 -0.5090
   65CHL1   H7A 7228   6.751   2.498  10.027 -0.8221  0.3013 -1.3656
   65CHL1   H7B 7229   6.621   2.383   9.994 -1.1775 -0.7591  0.1889
   65CHL1    C8 7230   6.574   2.584   9.938  0.0868 -0.2706  0.7103
   65CHL1    H8 7231   6.636   2.675   9.950  0.4934 -0.1306 -1.8128
   65CHL1   C14 7232   6.599   2.538   9.792  0.6274  0.2046  0.1916
   65CHL1   H14 7233   6.527   2.454   9.787 -0.5157  1.1000  1.0259
   65CHL1   C15 7234   6.736   2.491   9.748  0.5107  0.9647 -0.1080
   65CHL1  H15A 7235   6.820   2.564   9.750  3.4003 -2.1434  1.2813
   65CHL1  H15B 7236   6.760   2.396   9.800 -1.6870  0.4253  0.0141
   65CHL1   C16 7237   6.720   2.472   9.597  0.1759 -0.7635 -0.3547
   65CHL1  H16A 7238   6.813   2.496   9.542  0.0108  1.5444  0.2372
   65CHL1  H16B 7239   6.691   2.367   9.579  0.8858 -1.1279  0.5432
   65CHL1   C17 7240   6.591   2.556   9.559  0.0060  0.0744  0.6022
   65CHL1   H17 7241   6.509   2.482   9.541  0.0212  0.1761  0.0817
   65CHL1   C13 7242   6.547   2.632   9.682 -0.3362  0.1568  0.0659
   65CHL1   C18 7243   6.611   2.767   9.692 -0.4968  0.8248 -1.4838
   65CHL1  H18A 7244   6.572   2.834   9.613 -3.4786  0.0307 -0.7943
   65CHL1  H18B 7245   6.577   2.815   9.786 -1.3194 -2.4406  0.0519
   65CHL1  H18C 7246   6.722   2.763   9.691 -0.4223  0.4365  1.2932
   65CHL1   C12 7247   6.394   2.645   9.708 -0.3272 -0.1420 -0.2904
   65CHL1  H12A 7248   6.343   2.718   9.643 -1.5004 -0.8134 -0.1644
   65CHL1  H12B 7249   6.349   2.544   9.695  0.3862 -0.4007 -0.8006
   65CHL1   C11 7250   6.358   2.681   9.853 -0.3517  0.1792 -0.5461
   65CHL1  H11A 7251   6.385   2.788   9.864  0.5669 -0.3085  3.4121
   65CHL1  H11B 7252   6.247   2.675   9.859 -0.3216  0.9549  1.3545
   65CHL1    C9 7253   6.424   2.595   9.962  0.0687  0.5979 -0.0954
   65CHL1    H9 7254   6.387   2.490   9.959  0.1076  0.4973  1.6552
   65CHL1   C10 7255   6.382   2.636  10.112 -0.5519 -0.3086  0.8508
   65CHL1   C19 7256   6.415   2.783  10.136  0.0082 -0.0359 -0.0435
   65CHL1  H19A 7257   6.514   2.816  10.098  1.5566 -1.3559  2.5460
   65CHL1  H19B 7258   6.329   2.844  10.099 -2.4557 -1.5078  2.7968
   65CHL1  H19C 7259   6.409   2.810  10.244 -3.8560  0.1697 -0.1465
   65CHL1    C1 7260   6.228   2.611  10.130 -0.5201 -0.1864  0.1534
   65CHL1   H1A 7261   6.169   2.688  10.077 -0.1894 -0.2478 -0.3120
   65CHL1   H1B 7262   6.215   2.506  10.094  0.4143 -0.2466 -0.0561
   65CHL1    C2 7263   6.173   2.599  10.268  0.3865  0.1371  0.2784
   65CHL1   H2A 7264   6.069   2.561  10.272  0.2259  0.3473 -1.2023
   65CHL1   H2B 7265   6.185   2.702  10.307 -1.7305  1.2635 -1.7955
   65CHL1   C20 7266   6.602   2.627   9.429 -0.1244 -0.2682 -0.5532
   65CHL1   H20 7267   6.684   2.701   9.430 -1.3519  1.1505  0.7230
   65CHL1   C21 7268   6.468   2.697   9.388 -0.6468 -0.5884 -0.3413
   65CHL1  H21A 7269   6.385   2.625   9.404  1.8820 -3.3440  1.6619
   65CHL1  H21B 7270   6.462   2.737   9.285 -1.8794  3.7990  1.1779
   65CHL1  H21C 7271   6.453   2.789   9.450  0.2843  0.0935 -1.1091
   65CHL1   C22 7272   6.641   2.532   9.314  0.0186  0.0014  0.5845
   65CHL1  H22A 7273   6.737   2.477   9.329 -0.3845 -1.3059 -1.3216
   65CHL1  H22B 7274   6.565   2.452   9.312  1.9988 -2.0959  2.5967
   65CHL1   C23 7275   6.662   2.598   9.181  0.0844  0.2735 -0.0593
   65CHL1  H23A 7276   6.575   2.654   9.141  2.5539  2.3922 -2.9607
   65CHL1  H23B 7277   6.730   2.686   9.192 -0.2670  0.4258  1.1156
   65CHL1   C24 7278   6.700   2.505   9.062  0.7659 -0.0511  0.4869
   65CHL1  H24A 7279   6.787   2.443   9.089  1.0373  0.2735  0.3638
   65CHL1  H24B 7280   6.620   2.428   9.058  0.0764  0.3907  3.2869
   65CHL1   C25 7281   6.714   2.581   8.930  0.2507 -0.2913  0.1772
   65CHL1   H25 7282   6.745   2.685   8.951 -0.3099 -0.2173  0.6824
   65CHL1   C26 7283   6.827   2.521   8.844  0.6823  0.2832 -0.5137
   65CHL1  H26A 7284   6.784   2.435   8.788 -0.0865  0.5274 -0.3213
   65CHL1  H26B 7285   6.859   2.602   8.774 -1.7671  0.7541 -1.2136
   65CHL1  H26C 7286   6.915   2.496   8.907  1.5989  2.6805 -0.7345
   65CHL1   C27 7287   6.589   2.593   8.846 -0.2230  0.1132 -0.2778
   65CHL1  H27A 7288   6.513   2.655   8.897  0.2974  1.0523 -0.6343
   65CHL1  H27B 7289   6.609   2.652   8.754  0.4872  0.9399  0.3963
   65CHL1  H27C 7290   6.543   2.494   8.825 -0.0974  0.3118 -1.5802
   66CHL1    C3 7291   3.030   3.362  10.517 -0.6080  0.3656 -0.0330
   66CHL1    H3 7292   2.925   3.379  10.485 -0.8191  1.2345  1.0704
   66CHL1    O3 7293   3.038   3.375  10.660  0.2097 -0.0451  0.5673
   66CHL1   H3' 7294   3.129   3.383  10.688 -0.1558 -0.3368  1.9032
   66CHL1    C4 7295   3.078   3.223  10.471  0.5368  0.1109  0.0076
   66CHL1   H4A 7296   3.184   3.204  10.498  1.3254  1.3521 -2.0093
   66CHL1   H4B 7297   3.024   3.144  10.527  0.2345  2.1563  2.7968
   66CHL1    C5 7298   3.061   3.202  10.322 -0.4181 -0.2697 -0.0505
   66CHL1    C6 7299   2.994   3.102  10.263 -0.2120 -0.1454 -0.0563
   66CHL1    H6 7300   2.956   3.029  10.337  1.5007 -0.1033  0.9115
   66CHL1    C7 7301   2.975   3.085  10.115  0.0184 -0.2461 -0.3979
   66CHL1   H7A 7302   2.996   2.983  10.075 -1.9292 -0.0851 -1.9790
   66CHL1   H7B 7303   2.871   3.111  10.087 -0.1457 -0.2500  0.2134
   66CHL1    C8 7304   3.062   3.183  10.030 -0.1458  0.8202  1.0148
   66CHL1    H8 7305   3.166   3.146  10.034  0.1655  1.3617 -0.9555
   66CHL1   C14 7306   3.010   3.196   9.888 -0.0832  0.1690  0.6382
   66CHL1   H14 7307   2.914   3.251   9.889 -0.6116 -0.5560 -2.0532
   66CHL1   C15 7308   2.975   3.065   9.810 -0.2880 -0.0325 -0.3201
   66CHL1  H15A 7309   3.043   2.985   9.848 -1.7046 -0.3144  1.8051
   66CHL1  H15B 7310   2.876   3.022   9.838  1.3530 -3.4674  0.7101
   66CHL1   C16 7311   3.003   3.090   9.666  0.4944 -0.3734  0.1499
   66CHL1  H16A 7312   3.093   3.029   9.644  1.8960  0.7258  2.4955
   66CHL1  H16B 7313   2.920   3.053   9.602  0.7783  0.8570 -0.9751
   66CHL1   C17 7314   3.029   3.243   9.655 -1.0284  0.4220 -0.1617
   66CHL1   H17 7315   2.929   3.293   9.655 -1.2410  0.0261 -1.3186
   66CHL1   C13 7316   3.095   3.279   9.793 -0.0476 -0.8780 -0.1982
   66CHL1   C18 7317   3.238   3.226   9.790 -0.3309  0.3691  0.1419
   66CHL1  H18A 7318   3.291   3.226   9.888  0.2502  0.6587 -0.1665
   66CHL1  H18B 7319   3.261   3.128   9.742  3.5441  0.9326  0.4682
   66CHL1  H18C 7320   3.295   3.291   9.720  1.4150 -2.0600 -0.8241
   66CHL1   C12 7321   3.091   3.425   9.849  0.4738 -0.1199  0.3809
   66CHL1  H12A 7322   3.155   3.493   9.788 -2.7472  2.0098 -0.8958
   66CHL1  H12B 7323   2.988   3.461   9.831  0.8904  0.3320 -1.3438
   66CHL1   C11 7324   3.143   3.429   9.995 -0.3322 -0.0900 -0.2507
   66CHL1  H11A 7325   3.250   3.400   9.985 -1.4282 -4.4686 -1.6303
   66CHL1  H11B 7326   3.129   3.532  10.032  1.0871  0.1902 -0.4503
   66CHL1    C9 7327   3.076   3.327  10.087  0.7297  0.4332  0.1679
   66CHL1    H9 7328   2.970   3.358  10.096  1.1503  1.6957  1.2214
   66CHL1   C10 7329   3.120   3.320  10.232 -0.2213  0.4582 -0.1018
   66CHL1   C19 7330   3.273   3.296  10.239  0.6892 -0.4499 -0.2095
   66CHL1  H19A 7331   3.336   3.371  10.187 -0.0158  0.6518  0.4894
   66CHL1  H19B 7332   3.308   3.303  10.344  1.1828  0.9479 -0.4502
   66CHL1  H19C 7333   3.296   3.194  10.201 -0.3414  0.0767 -2.4053
   66CHL1    C1 7334   3.088   3.459  10.286  0.8703  0.6913 -0.1369
   66CHL1   H1A 7335   3.135   3.547  10.237  0.4185  0.5933 -0.7609
   66CHL1   H1B 7336   2.978   3.474  10.274  0.3864 -1.3992  1.2138
   66CHL1    C2 7337   3.104   3.478  10.441  0.0584  0.0625  0.5518
   66CHL1   H2A 7338   3.074   3.580  10.474  1.3081  1.1980 -1.6021
   66CHL1   H2B 7339   3.210   3.480  10.475  0.3302  0.1856 -0.2821
   66CHL1   C20 7340   3.107   3.280   9.517 -0.6881 -0.3413 -0.2057
   66CHL1   H20 7341   3.211   3.241   9.529  0.4726  2.9273  1.7766
   66CHL1   C21 7342   3.128   3.433   9.513 -0.9340  0.0373  0.1851
   66CHL1  H21A 7343   3.166   3.472   9.416 -1.6346 -0.7610 -0.4236
   66CHL1  H21B 7344   3.213   3.463   9.578 -0.3717  1.0571 -0.9827
   66CHL1  H21C 7345   3.038   3.492   9.538 -1.3674 -0.0153 -1.1698
   66CHL1   C22 7346   3.051   3.209   9.388  0.8900  0.6443  0.0484
   66CHL1  H22A 7347   3.048   3.101   9.412  2.3294  0.1686 -1.7434
   66CHL1  H22B 7348   2.950   3.254   9.374  0.2313 -0.5008  0.8974
   66CHL1   C23 7349   3.139   3.233   9.269 -0.1430  0.7955 -0.2026
   66CHL1  H23A 7350   3.146   3.343   9.257  0.5337  1.1856  2.9665
   66CHL1  H23B 7351   3.232   3.185   9.306 -1.1544 -1.1453 -0.0178
   66CHL1   C24 7352   3.068   3.178   9.149  0.3543 -0.1460  0.6585
   66CHL1  H24A 7353   3.028   3.078   9.180 -0.3648 -0.6779 -1.7856
   66CHL1  H24B 7354   2.979   3.238   9.123 -0.8679 -1.9420  0.5446
   66CHL1   C25 7355   3.164   3.167   9.027  0.0254 -0.7551  0.1833
   66CHL1   H25 7356   3.255   3.115   9.064 -0.4572 -0.4832  1.8276
   66CHL1   C26 7357   3.095   3.072   8.927 -0.6645  0.1640  0.2110
   66CHL1  H26A 7358   3.055   2.978   8.971 -0.0586 -0.8413 -1.3454
   66CHL1  H26B 7359   3.006   3.119   8.879 -1.7233 -0.2358  1.7098
   66CHL1  H26C 7360   3.174   3.039   8.857  0.6936  1.7680  0.9145
   66CHL1   C27 7361   3.201   3.304   8.972  0.1290  0.0217  0.2304
   66CHL1  H27A 7362   3.271   3.289   8.887  1.7406 -2.0564  1.8089
   66CHL1  H27B 7363   3.111   3.364   8.945  1.1173  2.1631  1.4141
   66CHL1  H27C 7364   3.251   3.374   9.042  1.7512  0.3596 -1.1863
   67CHL1    C3 7365   0.774   2.059  10.499  0.2399  0.1893  0.5867
   67CHL1    H3 7366   0.806   1.953  10.507 -0.7079 -0.2428 -0.9385
   67CHL1    O3 7367   0.759   2.106  10.633  0.3048  0.4461  0.1761
   67CHL1   H3' 7368   0.692   2.047  10.670 -1.1067 -0.5479 -3.4732
   67CHL1    C4 7369   0.873   2.146  10.424  0.5476 -0.0964  0.5316
   67CHL1   H4A 7370   0.835   2.248  10.445  0.4400 -0.1267  0.4838
   67CHL1   H4B 7371   0.967   2.123  10.479  0.8387 -2.2893 -0.7592
   67CHL1    C5 7372   0.878   2.117  10.276  0.7037 -0.2886  0.3591
   67CHL1    C6 7373   0.991   2.069  10.214 -0.8936  0.0760 -0.2286
   67CHL1    H6 7374   1.084   2.064  10.273 -0.3128  0.6442 -1.0782
   67CHL1    C7 7375   0.995   2.037  10.066 -0.0113 -0.6429  0.2902
   67CHL1   H7A 7376   1.089   2.085  10.031 -0.4843  0.6952  0.7882
   67CHL1   H7B 7377   1.017   1.928  10.063 -3.6621 -1.5224  0.8906
   67CHL1    C8 7378   0.880   2.095   9.990  0.1383  0.2039  0.0701
   67CHL1    H8 7379   0.894   2.204   9.976  2.6942 -0.1615 -0.7427
   67CHL1   C14 7380   0.881   2.021   9.860  0.4665  0.1523 -0.3854
   67CHL1   H14 7381   0.848   1.919   9.888 -0.8671  1.1448  1.9384
   67CHL1   C15 7382   1.001   2.014   9.767 -0.4238  0.7871  0.5179
   67CHL1  H15A 7383   1.056   2.110   9.759  0.0504  0.4579 -0.1602
   67CHL1  H15B 7384   1.069   1.939   9.813 -2.0382 -0.7805  0.4679
   67CHL1   C16 7385   0.957   1.990   9.623  0.5577  1.0566 -0.3727
   67CHL1  H16A 7386   0.984   2.075   9.556  0.9925  0.8610 -0.4471
   67CHL1  H16B 7387   0.998   1.901   9.572  1.8732  0.4691  1.6198
   67CHL1   C17 7388   0.804   1.987   9.639 -0.2015  0.3178 -0.6760
   67CHL1   H17 7389   0.778   1.883   9.667  0.2704  0.2319 -0.5503
   67CHL1   C13 7390   0.775   2.072   9.764 -0.3381 -0.4902 -0.6393
   67CHL1   C18 7391   0.793   2.225   9.711 -0.7863  0.4148  0.4745
   67CHL1  H18A 7392   0.708   2.253   9.647 -1.0270  3.3233  1.9227
   67CHL1  H18B 7393   0.782   2.295   9.797  0.9005  1.8706 -0.4199
   67CHL1  H18C 7394   0.883   2.245   9.648 -0.5804 -1.0165  0.2725
   67CHL1   C12 7395   0.639   2.045   9.827  0.1360 -0.4702 -0.6016
   67CHL1  H12A 7396   0.562   2.090   9.761  1.3040  1.4145 -0.7615
   67CHL1  H12B 7397   0.636   1.934   9.832 -0.0686 -0.4145  3.0894
   67CHL1   C11 7398   0.623   2.095   9.972  0.5371  0.0428 -1.3609
   67CHL1  H11A 7399   0.616   2.206   9.967 -2.6520  0.0053 -0.0936
   67CHL1  H11B 7400   0.528   2.065  10.022 -1.3971  2.4205 -3.3850
   67CHL1    C9 7401   0.744   2.062  10.066 -0.5460 -0.0244  0.6262
   67CHL1    H9 7402   0.746   1.951  10.076 -0.7090 -0.2553 -1.4292
   67CHL1   C10 7403   0.743   2.120  10.210  0.5759  0.4204 -0.1125
   67CHL1   C19 7404   0.689   2.263  10.195  0.0954 -0.3052 -0.0499
   67CHL1  H19A 7405   0.699   2.325  10.286 -0.2174 -1.8676  1.1026
   67CHL1  H19B 7406   0.730   2.322  10.111  1.1014 -0.2439  0.4682
   67CHL1  H19C 7407   0.579   2.258  10.176  0.3164 -1.9771 -1.0471
   67CHL1    C1 7408   0.640   2.031  10.285  0.3241  1.0413 -0.4269
   67CHL1   H1A 7409   0.536   2.036  10.245  0.1973  0.3258 -0.1847
   67CHL1   H1B 7410   0.668   1.924  10.292  0.0244  0.9587 -0.4540
   67CHL1    C2 7411   0.637   2.073  10.430 -0.2173  0.2577  0.0493
   67CHL1   H2A 7412   0.564   2.011  10.487 -0.3350 -1.3027 -1.7088
   67CHL1   H2B 7413   0.603   2.179  10.424 -0.2612  0.3203  1.1633
   67CHL1   C20 7414   0.733   2.017   9.502 -0.0309  0.1676  0.2843
   67CHL1   H20 7415   0.767   2.117   9.465 -0.4487  0.4208  0.5900
   67CHL1   C21 7416   0.583   2.015   9.511 -0.7025  0.0262 -0.4828
   67CHL1  H21A 7417   0.524   2.012   9.416  0.0249 -2.0815 -0.9330
   67CHL1  H21B 7418   0.556   2.107   9.566  1.7153  0.5197 -0.0510
   67CHL1  H21C 7419   0.543   1.927   9.565  0.1917  0.1494  0.4057
   67CHL1   C22 7420   0.780   1.921   9.380 -0.3418 -0.6428 -0.1515
   67CHL1  H22A 7421   0.889   1.902   9.377  0.2397  2.2404 -0.8233
   67CHL1  H22B 7422   0.716   1.834   9.405  0.4060 -0.5146  2.5065
   67CHL1   C23 7423   0.739   1.988   9.243  0.3080  0.1340  0.2878
   67CHL1  H23A 7424   0.634   2.024   9.252 -0.6181 -2.3209  0.1560
   67CHL1  H23B 7425   0.795   2.076   9.207  0.9877 -0.6329 -0.5758
   67CHL1   C24 7426   0.728   1.880   9.131 -0.3623 -0.1553 -0.4809
   67CHL1  H24A 7427   0.836   1.861   9.108 -0.9133 -2.4475 -1.4720
   67CHL1  H24B 7428   0.685   1.787   9.173  1.0479 -1.2147 -1.2744
   67CHL1   C25 7429   0.639   1.913   9.008 -0.4989 -0.2270  0.0084
   67CHL1   H25 7430   0.601   2.016   9.029  1.2249  0.2832  0.7346
   67CHL1   C26 7431   0.727   1.923   8.877 -0.0436  0.2101  0.3396
   67CHL1  H26A 7432   0.791   1.834   8.868 -0.1836  0.3698 -4.0561
   67CHL1  H26B 7433   0.659   1.946   8.792  0.9970  0.8653 -0.3328
   67CHL1  H26C 7434   0.788   2.015   8.887 -0.8734  0.7860  0.2841
   67CHL1   C27 7435   0.529   1.805   8.984 -0.1306  0.2490 -0.1966
   67CHL1  H27A 7436   0.463   1.825   8.897  0.5352 -2.1437 -1.3499
   67CHL1  H27B 7437   0.563   1.701   8.965 -1.2814 -0.1296 -0.2662
   67CHL1  H27C 7438   0.462   1.805   9.073  1.6097 -1.8795  1.2227
   68CHL1    C3 7439   5.308   1.955  10.342 -0.1749  0.0037 -0.3475
   68CHL1    H3 7440   5.233   2.036  10.353  0.6170  0.6131  0.8504
   68CHL1    O3 7441   5.393   1.968  10.457 -0.3252  0.2311 -0.1330
   68CHL1   H3' 7442   5.404   1.880  10.491  0.3639  0.9628  1.6294
   68CHL1    C4 7443   5.230   1.827  10.342 -0.7772 -0.4633  0.2496
   68CHL1   H4A 7444   5.304   1.744  10.353 -1.0670 -0.4730  2.9093
   68CHL1   H4B 7445   5.173   1.819  10.437 -1.0458  2.1148  0.3692
   68CHL1    C5 7446   5.152   1.793  10.213 -0.2380  0.7548  0.5849
   68CHL1    C6 7447   5.021   1.755  10.214 -0.8709  0.2246 -0.6903
   68CHL1    H6 7448   4.974   1.744  10.313 -0.1936 -0.7284 -0.4697
   68CHL1    C7 7449   4.937   1.712  10.091 -0.1645  1.0893 -0.2754
   68CHL1   H7A 7450   4.877   1.620  10.109 -0.0351  0.5988 -2.1859
   68CHL1   H7B 7451   4.877   1.798  10.053 -0.0171  0.7241 -1.3738
   68CHL1    C8 7452   5.035   1.683   9.978 -0.1624  0.3373 -0.4383
   68CHL1    H8 7453   5.088   1.588   9.999  2.1120  1.2434 -1.7098
   68CHL1   C14 7454   4.967   1.672   9.842 -0.0794 -0.4058  0.3456
   68CHL1   H14 7455   4.905   1.764   9.834 -0.9663 -1.1459 -3.2127
   68CHL1   C15 7456   4.857   1.558   9.831  0.1146 -0.1778  0.3590
   68CHL1  H15A 7457   4.899   1.461   9.867 -1.4152 -1.2725 -0.6628
   68CHL1  H15B 7458   4.779   1.589   9.903 -0.4181 -0.1541 -0.2189
   68CHL1   C16 7459   4.815   1.559   9.686 -0.0030  0.1861 -0.2910
   68CHL1  H16A 7460   4.828   1.456   9.646 -2.3527  0.8181 -2.9574
   68CHL1  H16B 7461   4.717   1.610   9.684  0.9170  2.0784  0.2831
   68CHL1   C17 7462   4.926   1.649   9.616 -0.4535  0.5051 -0.3284
   68CHL1   H17 7463   4.887   1.753   9.615 -1.6191  0.1835  2.1933
   68CHL1   C13 7464   5.048   1.662   9.713  0.3757  0.2296 -0.2137
   68CHL1   C18 7465   5.134   1.533   9.721  0.1766  0.4208  0.5091
   68CHL1  H18A 7466   5.187   1.520   9.818 -1.8122 -0.2860  1.5740
   68CHL1  H18B 7467   5.069   1.443   9.718  1.4417 -0.4730 -1.3742
   68CHL1  H18C 7468   5.200   1.506   9.636  3.3172  0.1488  2.8587
   68CHL1   C12 7469   5.134   1.791   9.702  0.6045  0.1274  0.6131
   68CHL1  H12A 7470   5.217   1.796   9.629  0.7497  1.1971  0.8409
   68CHL1  H12B 7471   5.068   1.878   9.685  0.3365  0.0671  1.3096
   68CHL1   C11 7472   5.212   1.819   9.830  0.0059 -0.1394  0.2175
   68CHL1  H11A 7473   5.285   1.734   9.832  0.3441  0.1082 -0.9516
   68CHL1  H11B 7474   5.270   1.913   9.834  1.0558 -0.7728  0.5615
   68CHL1    C9 7475   5.136   1.803   9.966 -0.2133 -0.3767  0.5805
   68CHL1    H9 7476   5.071   1.893   9.970 -1.5167 -1.0889 -1.9670
   68CHL1   C10 7477   5.235   1.809  10.083  0.5191  0.1306 -0.2664
   68CHL1   C19 7478   5.331   1.694  10.076  0.0877  0.5174 -0.5351
   68CHL1  H19A 7479   5.398   1.700   9.987  0.2697 -4.7938 -1.0823
   68CHL1  H19B 7480   5.411   1.690  10.152  0.4337 -0.8806 -0.9375
   68CHL1  H19C 7481   5.293   1.590  10.064  1.4724  0.1201 -1.8501
   68CHL1    C1 7482   5.312   1.946  10.079  0.0214 -0.3631 -0.7947
   68CHL1   H1A 7483   5.381   1.964   9.994  0.4049 -1.7804 -0.7968
   68CHL1   H1B 7484   5.235   2.026  10.067 -2.3594 -2.1674  1.3202
   68CHL1    C2 7485   5.387   1.961  10.217 -0.3810  0.2796  0.4475
   68CHL1   H2A 7486   5.435   2.061  10.216  2.3957 -0.8672  2.9013
   68CHL1   H2B 7487   5.474   1.892  10.211 -1.6998 -1.4483  0.5888
   68CHL1   C20 7488   4.962   1.613   9.472  0.4497  0.7148  0.2252
   68CHL1   H20 7489   4.986   1.505   9.478 -0.7482  0.4483  0.4800
   68CHL1   C21 7490   5.072   1.686   9.401  0.3629  0.3706 -0.3359
   68CHL1  H21A 7491   5.066   1.796   9.414  1.8814  0.5686 -1.0587
   68CHL1  H21B 7492   5.075   1.671   9.291  2.1522 -0.2975 -0.2208
   68CHL1  H21C 7493   5.168   1.653   9.446 -0.1379 -1.8714 -0.7879
   68CHL1   C22 7494   4.830   1.617   9.386 -0.2317 -0.0521 -0.2223
   68CHL1  H22A 7495   4.861   1.575   9.288 -0.2101 -0.2967 -0.1096
   68CHL1  H22B 7496   4.755   1.542   9.420 -1.5104 -0.0528 -2.7742
   68CHL1   C23 7497   4.780   1.758   9.359  0.7581 -0.1916 -0.2808
   68CHL1  H23A 7498   4.735   1.799   9.451 -1.5929  0.4449 -1.6401
   68CHL1  H23B 7499   4.868   1.813   9.316  0.2429 -1.3781 -3.1095
   68CHL1   C24 7500   4.662   1.766   9.257 -0.0148  0.1170 -0.0158
   68CHL1  H24A 7501   4.696   1.710   9.167 -0.8609  0.4526 -0.5592
   68CHL1  H24B 7502   4.570   1.711   9.289  0.4216 -1.2465 -1.0179
   68CHL1   C25 7503   4.619   1.905   9.229  0.6200 -0.5968 -0.4198
   68CHL1   H25 7504   4.535   1.910   9.156 -0.8528  1.4731  1.3091
   68CHL1   C26 7505   4.539   1.966   9.350 -0.0489 -0.4235 -0.0402
   68CHL1  H26A 7506   4.603   1.954   9.440 -2.1539 -2.2151  1.3302
   68CHL1  H26B 7507   4.508   2.067   9.315 -2.2553 -1.5848 -1.7468
   68CHL1  H26C 7508   4.442   1.913   9.363 -0.8822  0.9978 -0.1999
   68CHL1   C27 7509   4.719   2.001   9.180 -0.0367 -0.3675 -0.6642
   68CHL1  H27A 7510   4.793   2.044   9.251 -0.6738  0.9337 -0.7519
   68CHL1  H27B 7511   4.780   1.961   9.097  1.7786 -0.4082  0.6236
   68CHL1  H27C 7512   4.656   2.089   9.152 -0.2680 -1.1248 -2.6828
   69CHL1    C3 7513   0.578   5.796   6.892 -0.0300  0.0515 -0.9287
   69CHL1    H3 7514   0.520   5.702   6.894  0.0907 -0.0129  0.2948
   69CHL1    O3 7515   0.561   5.860   6.770 -0.3714 -0.0313 -0.6427
   69CHL1   H3' 7516   0.469   5.839   6.752 -0.5394 -0.6124  0.7294
   69CHL1    C4 7517   0.536   5.889   7.006  0.0331 -0.4635 -0.4967
   69CHL1   H4A 7518   0.580   5.991   7.001 -0.6186 -0.0373  1.7431
   69CHL1   H4B 7519   0.427   5.906   6.992 -0.0897 -0.8840 -0.0811
   69CHL1    C5 7520   0.568   5.827   7.136  0.2758 -0.2173  0.0008
   69CHL1    C6 7521   0.469   5.797   7.222  0.1044  0.1467 -0.2283
   69CHL1    H6 7522   0.365   5.821   7.198  0.5793  1.6920 -0.8663
   69CHL1    C7 7523   0.492   5.757   7.365  0.9837  0.5930  0.4414
   69CHL1   H7A 7524   0.423   5.813   7.431 -0.1531  1.1295 -1.1390
   69CHL1   H7B 7525   0.481   5.648   7.386 -0.8094  0.6057 -0.2876
   69CHL1    C8 7526   0.633   5.803   7.401 -0.6300  0.0296 -0.2401
   69CHL1    H8 7527   0.645   5.913   7.402  0.2061 -0.0573  0.8305
   69CHL1   C14 7528   0.662   5.745   7.542  0.2626 -0.1823  0.4727
   69CHL1   H14 7529   0.648   5.635   7.546 -1.1375 -0.0029  3.5668
   69CHL1   C15 7530   0.571   5.783   7.659 -0.4088  0.0315  0.0947
   69CHL1  H15A 7531   0.536   5.888   7.650 -1.3127 -0.2527  0.1217
   69CHL1  H15B 7532   0.485   5.713   7.646 -1.9527  1.5531  1.5703
   69CHL1   C16 7533   0.645   5.748   7.789  0.2436  0.0427  0.4029
   69CHL1  H16A 7534   0.645   5.838   7.853 -1.2482 -1.1346  2.1721
   69CHL1  H16B 7535   0.608   5.665   7.853 -0.0611 -1.0471 -1.1357
   69CHL1   C17 7536   0.792   5.709   7.741  0.3738 -0.4207 -0.0057
   69CHL1   H17 7537   0.779   5.601   7.720 -0.9784 -0.5247  1.2052
   69CHL1   C13 7538   0.803   5.770   7.597  0.0870  0.4663  0.5761
   69CHL1   C18 7539   0.839   5.913   7.630  0.3526 -0.7032  0.0542
   69CHL1  H18A 7540   0.946   5.914   7.660 -0.5612 -1.2028  3.8663
   69CHL1  H18B 7541   0.824   5.985   7.547  1.1469 -1.6308 -0.9242
   69CHL1  H18C 7542   0.779   5.957   7.713 -1.6840  1.5602 -2.4412
   69CHL1   C12 7543   0.913   5.708   7.500 -0.2708  0.5121  0.4378
   69CHL1  H12A 7544   1.018   5.730   7.526 -0.5927  0.7675  1.5894
   69CHL1  H12B 7545   0.900   5.598   7.502  0.4521  0.4144 -0.1150
   69CHL1   C11 7546   0.891   5.755   7.355 -0.1828 -0.3415  0.2427
   69CHL1  H11A 7547   0.935   5.857   7.350  0.8377 -0.7214  1.0721
   69CHL1  H11B 7548   0.959   5.692   7.294  1.3752  1.1560  0.3791
   69CHL1    C9 7549   0.743   5.741   7.309 -0.3170  0.1368 -0.0780
   69CHL1    H9 7550   0.721   5.633   7.307  2.3072 -0.6425  3.4341
   69CHL1   C10 7551   0.718   5.807   7.167 -0.9996  0.0560 -0.2205
   69CHL1   C19 7552   0.786   5.949   7.158  0.2886  0.7220  0.3269
   69CHL1  H19A 7553   0.739   6.031   7.217  0.0492 -0.1689  1.4191
   69CHL1  H19B 7554   0.891   5.961   7.192 -0.1265  3.4462  0.8623
   69CHL1  H19C 7555   0.784   5.977   7.051 -2.1022  4.5415  1.1886
   69CHL1    C1 7556   0.773   5.716   7.051 -0.3523  0.0461  0.4641
   69CHL1   H1A 7557   0.884   5.714   7.048 -0.3184  1.2486 -0.0167
   69CHL1   H1B 7558   0.733   5.613   7.055 -3.1553  0.7461 -3.3657
   69CHL1    C2 7559   0.732   5.760   6.900 -0.2421 -0.3466  0.1014
   69CHL1   H2A 7560   0.755   5.676   6.831  2.7251 -0.5671  1.2149
   69CHL1   H2B 7561   0.792   5.851   6.878 -0.1236  0.2071  2.4196
   69CHL1   C20 7562   0.904   5.745   7.845 -0.1324 -0.2981  0.3757
   69CHL1   H20 7563   0.903   5.854   7.867  1.1510 -0.4351  1.2399
   69CHL1   C21 7564   1.044   5.710   7.796  0.4507  0.5710 -0.0541
   69CHL1  H21A 7565   1.095   5.781   7.729 -1.2560  0.6144 -1.3721
   69CHL1  H21B 7566   1.050   5.626   7.723 -0.4735  1.4538 -1.1631
   69CHL1  H21C 7567   1.112   5.684   7.880  0.8022 -3.2057 -1.2894
   69CHL1   C22 7568   0.876   5.670   7.976  0.5377  0.3031 -0.3099
   69CHL1  H22A 7569   0.772   5.633   7.983  0.5138  0.3663 -0.3334
   69CHL1  H22B 7570   0.938   5.578   7.966 -0.1113 -0.2311  0.4356
   69CHL1   C23 7571   0.906   5.745   8.101  0.0939 -0.1009 -0.7696
   69CHL1  H23A 7572   0.943   5.674   8.178 -1.9895 -1.6426 -1.0893
   69CHL1  H23B 7573   0.995   5.808   8.080 -0.4179  1.4816  1.4338
   69CHL1   C24 7574   0.788   5.836   8.134 -0.2150  0.0396  0.3298
   69CHL1  H24A 7575   0.829   5.927   8.183 -0.1236  1.0870 -1.5845
   69CHL1  H24B 7576   0.745   5.879   8.041  0.9273  0.7742  0.1274
   69CHL1   C25 7577   0.675   5.776   8.215  0.7048 -0.6168  0.6912
   69CHL1   H25 7578   0.638   5.676   8.182 -2.6894  0.5741  0.4264
   69CHL1   C26 7579   0.712   5.767   8.362 -0.5510  0.0484 -0.2875
   69CHL1  H26A 7580   0.733   5.871   8.395  0.5952 -0.0993 -0.5280
   69CHL1  H26B 7581   0.630   5.719   8.421 -0.0168  0.0723  0.4926
   69CHL1  H26C 7582   0.804   5.706   8.365 -0.3561  0.3392 -0.2872
   69CHL1   C27 7583   0.556   5.861   8.219  0.7325 -0.5459 -0.5429
   69CHL1  H27A 7584   0.482   5.834   8.298  1.4731 -1.0527 -0.0110
   69CHL1  H27B 7585   0.595   5.960   8.252 -0.5516 -0.2205  0.0830
   69CHL1  H27C 7586   0.506   5.883   8.122 -2.2110  0.5628  1.0762
   70CHL1    C3 7587   5.435   3.469   7.274  0.3238 -0.4342 -0.7281
   70CHL1    H3 7588   5.546   3.464   7.281  0.3018  0.4103  0.8534
   70CHL1    O3 7589   5.402   3.493   7.145  0.8148 -0.4350 -0.1153
   70CHL1   H3' 7590   5.307   3.499   7.150  0.9472  1.3050  1.2279
   70CHL1    C4 7591   5.374   3.342   7.330  0.0455 -0.5121  0.9359
   70CHL1   H4A 7592   5.264   3.355   7.321  0.0143 -0.5561  1.2541
   70CHL1   H4B 7593   5.398   3.262   7.257 -0.1832 -0.0288  0.3179
   70CHL1    C5 7594   5.409   3.322   7.480 -0.4259  0.2980 -0.0709
   70CHL1    C6 7595   5.461   3.206   7.523 -0.3452 -0.2491 -0.0082
   70CHL1    H6 7596   5.481   3.130   7.446  1.1405  0.6812 -0.5745
   70CHL1    C7 7597   5.505   3.184   7.663  0.0873  0.2459  0.9456
   70CHL1   H7A 7598   5.480   3.081   7.697 -1.7731  0.0624 -0.7739
   70CHL1   H7B 7599   5.615   3.193   7.655 -0.0027  0.6411  0.0835
   70CHL1    C8 7600   5.460   3.289   7.773  0.2078 -0.4994  0.1461
   70CHL1    H8 7601   5.353   3.269   7.794 -0.3133  2.2759  0.6051
   70CHL1   C14 7602   5.534   3.284   7.899  0.3632  0.7278 -0.4817
   70CHL1   H14 7603   5.636   3.323   7.882  0.6421 -0.2181 -1.0445
   70CHL1   C15 7604   5.555   3.149   7.963 -0.5501  0.7333  0.3764
   70CHL1  H15A 7605   5.467   3.082   7.958 -1.0638  1.2609  1.8952
   70CHL1  H15B 7606   5.634   3.097   7.905 -2.0814  3.2349 -4.6333
   70CHL1   C16 7607   5.588   3.174   8.110 -0.1360 -0.1749 -0.3817
   70CHL1  H16A 7608   5.517   3.123   8.179 -0.5725  1.8515  0.7653
   70CHL1  H16B 7609   5.691   3.139   8.132 -0.4033 -0.9585 -0.3273
   70CHL1   C17 7610   5.572   3.325   8.127  0.1167 -1.1184 -0.9365
   70CHL1   H17 7611   5.665   3.373   8.089 -0.2707 -0.1013 -0.6061
   70CHL1   C13 7612   5.483   3.374   8.016 -0.3540  0.0099 -0.8185
   70CHL1   C18 7613   5.330   3.348   8.045  0.2068 -0.2757 -0.4791
   70CHL1  H18A 7614   5.262   3.366   7.959  0.6531 -0.0169 -0.7858
   70CHL1  H18B 7615   5.317   3.241   8.074  1.4149  0.0164  1.3592
   70CHL1  H18C 7616   5.294   3.403   8.135  2.1692  1.1652 -0.5061
   70CHL1   C12 7617   5.503   3.512   7.959  0.6700 -0.0226 -0.6514
   70CHL1  H12A 7618   5.471   3.584   8.037 -2.0268  0.2252 -1.8963
   70CHL1  H12B 7619   5.611   3.525   7.935  0.4471  0.7856 -1.2497
   70CHL1   C11 7620   5.442   3.540   7.817 -0.8147  0.3314 -0.3801
   70CHL1  H11A 7621   5.333   3.542   7.837 -0.6794 -2.7641  1.2886
   70CHL1  H11B 7622   5.454   3.645   7.782 -2.9306  1.0126  0.7535
   70CHL1    C9 7623   5.470   3.429   7.713  0.6116  0.9316  0.3649
   70CHL1    H9 7624   5.576   3.440   7.682  0.3123 -0.9642 -1.5689
   70CHL1   C10 7625   5.397   3.444   7.573  0.2239 -0.4071  0.6307
   70CHL1   C19 7626   5.246   3.463   7.609  0.1240  0.1239  0.2466
   70CHL1  H19A 7627   5.218   3.377   7.674  0.2929 -0.0107  0.1424
   70CHL1  H19B 7628   5.225   3.557   7.663 -1.6949  1.7166 -2.9738
   70CHL1  H19C 7629   5.180   3.456   7.520  1.1510 -0.1435 -0.5105
   70CHL1    C1 7630   5.460   3.572   7.507  0.1263 -0.6312  0.1213
   70CHL1   H1A 7631   5.440   3.667   7.561  0.4813  0.6755 -1.9409
   70CHL1   H1B 7632   5.568   3.550   7.496  0.0610 -0.3412 -1.3461
   70CHL1    C2 7633   5.397   3.592   7.365 -0.1358 -0.5739  0.8347
   70CHL1   H2A 7634   5.467   3.662   7.315 -0.0705 -0.4260  1.1334
   70CHL1   H2B 7635   5.293   3.633   7.367 -0.5971 -1.4458 -1.5317
   70CHL1   C20 7636   5.555   3.388   8.262  0.3648  0.4252 -0.9706
   70CHL1   H20 7637   5.516   3.492   8.258  0.9142  0.7134  0.4915
   70CHL1   C21 7638   5.695   3.393   8.325 -0.4150  0.5083  0.1336
   70CHL1  H21A 7639   5.749   3.296   8.329  0.0341  0.7513  0.1224
   70CHL1  H21B 7640   5.679   3.423   8.431 -0.3778 -3.7358  1.5267
   70CHL1  H21C 7641   5.759   3.472   8.279 -0.3085  0.3183 -0.0464
   70CHL1   C22 7642   5.459   3.306   8.347 -0.1313 -0.1017  0.0684
   70CHL1  H22A 7643   5.367   3.286   8.289 -0.1853 -0.4603  0.2763
   70CHL1  H22B 7644   5.507   3.208   8.367  0.7404 -0.1075 -1.8471
   70CHL1   C23 7645   5.418   3.383   8.475  0.8761 -0.3590 -0.0263
   70CHL1  H23A 7646   5.514   3.381   8.532  1.1937 -0.9440 -0.5699
   70CHL1  H23B 7647   5.381   3.487   8.460 -1.9854 -0.6555  3.6637
   70CHL1   C24 7648   5.316   3.305   8.564  0.5280 -0.1737 -0.3753
   70CHL1  H24A 7649   5.224   3.288   8.505  0.5737 -1.5085 -0.0897
   70CHL1  H24B 7650   5.352   3.202   8.584  0.6256 -0.1348 -0.3490
   70CHL1   C25 7651   5.273   3.354   8.703 -0.5579 -0.1023 -0.1103
   70CHL1   H25 7652   5.219   3.451   8.699  1.7735  1.2816  0.0711
   70CHL1   C26 7653   5.182   3.242   8.768  0.0693  0.0024 -0.4808
   70CHL1  H26A 7654   5.233   3.144   8.776 -0.2185 -0.2409 -1.5028
   70CHL1  H26B 7655   5.155   3.256   8.875 -0.5245 -0.1633 -0.6075
   70CHL1  H26C 7656   5.086   3.233   8.713 -0.2177 -0.3154  0.0609
   70CHL1   C27 7657   5.401   3.386   8.780 -0.6527 -1.1089 -0.1127
   70CHL1  H27A 7658   5.449   3.481   8.746 -0.9347 -0.0668  2.1478
   70CHL1  H27B 7659   5.368   3.411   8.883  0.8022  1.8769 -0.2488
   70CHL1  H27C 7660   5.470   3.300   8.781  1.1281  0.2670 -0.1040
   71CHL1    C3 7661   6.036   6.723   6.949 -0.7013 -0.5348 -0.3006
   71CHL1    H3 7662   5.931   6.687   6.938 -1.5693  0.9056  2.3074
   71CHL1    O3 7663   6.085   6.778   6.831 -0.1892 -0.0777  0.0697
   71CHL1   H3' 7664   6.160   6.832   6.857  0.6635 -0.3662 -1.6540
   71CHL1    C4 7665   6.026   6.833   7.056  0.0539  0.4897 -0.4366
   71CHL1   H4A 7666   6.123   6.887   7.054  0.2941  0.1162  0.4249
   71CHL1   H4B 7667   5.949   6.900   7.014 -1.6891 -1.2356 -0.1220
   71CHL1    C5 7668   5.993   6.775   7.191  0.2663 -0.0800 -0.4234
   71CHL1    C6 7669   5.889   6.825   7.263  0.1069 -0.4738  0.6066
   71CHL1    H6 7670   5.836   6.915   7.229 -1.0673 -0.7366  1.6694
   71CHL1    C7 7671   5.849   6.788   7.399 -0.1183  0.7737 -0.2149
   71CHL1   H7A 7672   5.834   6.877   7.463 -0.7632  1.4755 -1.3180
   71CHL1   H7B 7673   5.756   6.728   7.387  0.6964 -0.4763 -0.5114
   71CHL1    C8 7674   5.942   6.692   7.469 -0.0406 -0.3844  0.4909
   71CHL1    H8 7675   6.023   6.754   7.513  2.1974 -2.9011  0.1847
   71CHL1   C14 7676   5.875   6.606   7.571 -0.1868 -0.8585 -0.2642
   71CHL1   H14 7677   5.814   6.534   7.513  2.1800 -3.2474 -0.0387
   71CHL1   C15 7678   5.777   6.668   7.667  0.2177  0.3418  0.3034
   71CHL1  H15A 7679   5.807   6.770   7.699 -1.1343  1.1631 -0.8753
   71CHL1  H15B 7680   5.680   6.681   7.615 -0.0924  3.1502  1.4049
   71CHL1   C16 7681   5.768   6.572   7.789 -0.1437 -0.9008 -0.4187
   71CHL1  H16A 7682   5.783   6.623   7.887 -0.8221 -0.7183 -0.4054
   71CHL1  H16B 7683   5.672   6.519   7.798  0.0850 -1.1327  0.8252
   71CHL1   C17 7684   5.872   6.459   7.755  1.0938  0.1421 -0.8896
   71CHL1   H17 7685   5.822   6.378   7.698  1.6288 -1.1051  0.3655
   71CHL1   C13 7686   5.977   6.521   7.660  0.7639 -0.0044 -0.3304
   71CHL1   C18 7687   6.070   6.609   7.741 -0.7052 -0.5008  0.0425
   71CHL1  H18A 7688   6.143   6.667   7.680 -1.1363  0.6967  0.6332
   71CHL1  H18B 7689   6.015   6.687   7.797 -0.8136  0.4767 -1.3660
   71CHL1  H18C 7690   6.132   6.555   7.816  0.2916 -0.0543 -0.4366
   71CHL1   C12 7691   6.040   6.419   7.561 -0.2702 -0.7343 -0.3619
   71CHL1  H12A 7692   6.119   6.360   7.613 -0.1109 -0.1603  0.0495
   71CHL1  H12B 7693   5.951   6.361   7.529 -0.2891 -1.2578  0.6146
   71CHL1   C11 7694   6.113   6.505   7.441 -0.2887  0.4514 -1.0726
   71CHL1  H11A 7695   6.199   6.560   7.486 -0.5545  0.5105 -0.6262
   71CHL1  H11B 7696   6.159   6.442   7.362  0.2035  0.5804 -0.8979
   71CHL1    C9 7697   6.016   6.600   7.368  0.0097  0.1249 -0.1164
   71CHL1    H9 7698   5.934   6.535   7.329  0.1484 -0.3952  0.4461
   71CHL1   C10 7699   6.071   6.659   7.242 -0.3052 -0.1474  0.2438
   71CHL1   C19 7700   6.209   6.716   7.285 -0.5504  0.1932 -0.0319
   71CHL1  H19A 7701   6.278   6.631   7.301 -1.6829 -0.6257  0.5949
   71CHL1  H19B 7702   6.256   6.780   7.206 -1.4548  0.7580 -0.1287
   71CHL1  H19C 7703   6.204   6.783   7.373 -1.7850 -0.5055  0.4561
   71CHL1    C1 7704   6.083   6.548   7.125  0.2022  0.0655  0.3945
   71CHL1   H1A 7705   6.131   6.455   7.164 -0.5325  0.5439  2.5449
   71CHL1   H1B 7706   5.977   6.527   7.096  1.4490 -1.3426 -3.8934
   71CHL1    C2 7707   6.129   6.610   6.995 -0.4995  0.2799 -0.0776
   71CHL1   H2A 7708   6.140   6.527   6.922  2.9753  0.5802 -0.0624
   71CHL1   H2B 7709   6.231   6.650   7.012 -1.0768  1.7368  0.0598
   71CHL1   C20 7710   5.927   6.391   7.883  0.3052 -0.7708  0.0984
   71CHL1   H20 7711   5.975   6.473   7.941 -0.3485  1.3135 -2.1494
   71CHL1   C21 7712   6.020   6.282   7.850 -0.2982 -0.2000 -0.1282
   71CHL1  H21A 7713   6.065   6.231   7.937  1.5552  2.6088  0.7269
   71CHL1  H21B 7714   6.107   6.330   7.798 -0.1400 -0.6708 -0.3058
   71CHL1  H21C 7715   5.966   6.216   7.779  0.4356  1.4039 -2.3175
   71CHL1   C22 7716   5.815   6.329   7.972  0.5073 -0.8313  0.8744
   71CHL1  H22A 7717   5.735   6.404   7.987  0.5226 -0.9665  1.6876
   71CHL1  H22B 7718   5.769   6.247   7.913 -1.5393  1.7395 -1.3612
   71CHL1   C23 7719   5.871   6.294   8.108 -0.5054 -0.1272 -0.7979
   71CHL1  H23A 7720   5.950   6.218   8.096 -0.6931 -0.1512 -2.0048
   71CHL1  H23B 7721   5.913   6.389   8.146  1.0955 -1.0921 -0.0748
   71CHL1   C24 7722   5.770   6.245   8.204 -0.0398  0.7586  0.3823
   71CHL1  H24A 7723   5.688   6.317   8.228 -1.4990 -0.3289 -1.1417
   71CHL1  H24B 7724   5.721   6.160   8.153  0.6794  1.0253 -0.7963
   71CHL1   C25 7725   5.840   6.204   8.341  0.2389 -0.1531  0.2064
   71CHL1   H25 7726   5.929   6.142   8.318 -1.4298 -3.3666  1.7963
   71CHL1   C26 7727   5.867   6.325   8.428 -0.2396  0.6406 -0.6229
   71CHL1  H26A 7728   5.940   6.400   8.390  0.9298 -0.4536 -0.6050
   71CHL1  H26B 7729   5.773   6.378   8.453 -0.1501  0.0639  1.0231
   71CHL1  H26C 7730   5.906   6.301   8.529  0.8463  2.0134 -0.6817
   71CHL1   C27 7731   5.766   6.094   8.426 -0.2588  0.1304  0.1526
   71CHL1  H27A 7732   5.729   6.018   8.353 -2.1295  0.6365  0.5282
   71CHL1  H27B 7733   5.828   6.035   8.496 -1.0890 -0.4992  0.3709
   71CHL1  H27C 7734   5.675   6.143   8.466 -1.3352 -0.0108 -1.9485
   72CHL1    C3 7735   5.207   4.718   7.119  0.0282 -0.6704 -0.5235
   72CHL1    H3 7736   5.119   4.654   7.095  0.8537 -1.2870 -2.0735
   72CHL1    O3 7737   5.276   4.725   6.993 -0.2264 -0.5499 -0.9278
   72CHL1   H3' 7738   5.361   4.691   7.023 -0.5396 -3.1179 -2.6217
   72CHL1    C4 7739   5.164   4.865   7.154  0.6611 -0.7243 -0.8135
   72CHL1   H4A 7740   5.255   4.928   7.163  0.1717  0.0853 -1.3954
   72CHL1   H4B 7741   5.105   4.908   7.071 -1.1479  1.7262  1.5614
   72CHL1    C5 7742   5.094   4.873   7.289  0.2248 -0.0867 -1.0391
   72CHL1    C6 7743   4.970   4.923   7.307 -0.5282  0.4783  0.1364
   72CHL1    H6 7744   4.912   4.963   7.223  1.0635  0.5640 -0.9656
   72CHL1    C7 7745   4.912   4.938   7.438  0.3142 -0.8653 -1.0449
   72CHL1   H7A 7746   4.855   5.033   7.436  1.6933  0.1212  1.3468
   72CHL1   H7B 7747   4.850   4.846   7.440 -0.7410 -0.1545  0.4200
   72CHL1    C8 7748   5.008   4.924   7.566  0.9966 -0.0453 -0.6431
   72CHL1    H8 7749   5.061   5.021   7.577 -0.9712  1.0699 -0.5447
   72CHL1   C14 7750   4.927   4.887   7.688  0.2494 -0.3779  0.4782
   72CHL1   H14 7751   4.876   4.794   7.656 -0.5773  0.0227  0.5953
   72CHL1   C15 7752   4.824   4.987   7.724  0.7104 -0.5219  0.3343
   72CHL1  H15A 7753   4.862   5.091   7.715 -0.7088 -0.1224 -1.6178
   72CHL1  H15B 7754   4.727   4.988   7.670  0.7212  0.2783  0.3086
   72CHL1   C16 7755   4.797   4.963   7.876 -0.5793  0.7283 -0.8228
   72CHL1  H16A 7756   4.814   5.060   7.927 -1.0048 -1.0382  3.0778
   72CHL1  H16B 7757   4.693   4.926   7.885 -0.3439 -0.1327 -1.4907
   72CHL1   C17 7758   4.897   4.844   7.918  0.4275 -0.1390 -0.7208
   72CHL1   H17 7759   4.855   4.745   7.891  3.1053 -0.7946 -2.9772
   72CHL1   C13 7760   5.010   4.860   7.817  0.2204 -0.1334  0.3964
   72CHL1   C18 7761   5.084   4.988   7.859  0.3278  0.4279 -0.7821
   72CHL1  H18A 7762   5.018   5.076   7.871 -1.5265 -1.0492  0.5066
   72CHL1  H18B 7763   5.132   4.959   7.955 -2.3552 -2.3419 -0.0968
   72CHL1  H18C 7764   5.163   5.024   7.790  0.0986  2.7094  0.0526
   72CHL1   C12 7765   5.106   4.742   7.787  0.3140  1.0226 -0.4550
   72CHL1  H12A 7766   5.174   4.721   7.872  0.5343  0.5736 -0.7375
   72CHL1  H12B 7767   5.056   4.649   7.753  2.4992  0.6013 -2.8351
   72CHL1   C11 7768   5.199   4.771   7.667 -0.5015 -0.0030  0.2604
   72CHL1  H11A 7769   5.270   4.853   7.692  1.5708 -1.4226 -0.6463
   72CHL1  H11B 7770   5.266   4.686   7.644 -0.0789  1.2083 -3.6264
   72CHL1    C9 7771   5.104   4.809   7.545  0.1577 -0.0640 -0.0943
   72CHL1    H9 7772   5.039   4.718   7.537 -0.7081  0.5763 -0.4708
   72CHL1   C10 7773   5.182   4.808   7.409  0.1549  0.7475 -0.4784
   72CHL1   C19 7774   5.304   4.897   7.427  0.4846  0.1210  0.9416
   72CHL1  H19A 7775   5.271   4.999   7.454  2.7448  1.0521  0.3285
   72CHL1  H19B 7776   5.384   4.858   7.494  1.0360  0.6608  0.5988
   72CHL1  H19C 7777   5.359   4.908   7.332  1.3374  2.0039  1.6094
   72CHL1    C1 7778   5.232   4.663   7.368 -0.4215 -0.3406  0.1384
   72CHL1   H1A 7779   5.304   4.634   7.448 -2.0359 -4.4569  0.3109
   72CHL1   H1B 7780   5.143   4.598   7.375 -1.5800  1.3317  2.4273
   72CHL1    C2 7781   5.301   4.659   7.227  0.1588  0.2527  0.0524
   72CHL1   H2A 7782   5.318   4.550   7.214  1.4872  0.3814  0.5115
   72CHL1   H2B 7783   5.392   4.723   7.225 -0.4723  1.1383 -1.0382
   72CHL1   C20 7784   4.933   4.830   8.064  0.1623  0.5398 -0.4475
   72CHL1   H20 7785   4.983   4.926   8.089  3.5466 -0.9130 -1.0518
   72CHL1   C21 7786   5.024   4.710   8.091  0.4104 -0.2649  0.1766
   72CHL1  H21A 7787   5.129   4.741   8.071  0.0307  0.3935 -0.9083
   72CHL1  H21B 7788   5.001   4.624   8.024  0.9548  0.0692 -0.4554
   72CHL1  H21C 7789   5.001   4.678   8.195 -1.5413 -1.6175 -0.5921
   72CHL1   C22 7790   4.810   4.819   8.153  0.5155  0.3150  0.6229
   72CHL1  H22A 7791   4.727   4.881   8.111  0.0492 -0.6224  0.1230
   72CHL1  H22B 7792   4.779   4.713   8.143  1.1530  0.1971 -0.1897
   72CHL1   C23 7793   4.818   4.862   8.302  1.2234  0.1531 -0.1737
   72CHL1  H23A 7794   4.916   4.821   8.336  0.7112 -0.4184  0.6593
   72CHL1  H23B 7795   4.837   4.971   8.295 -0.2019  0.5112  1.0167
   72CHL1   C24 7796   4.698   4.831   8.383 -0.2667  0.3414 -0.4458
   72CHL1  H24A 7797   4.600   4.855   8.337  0.6716  1.5260 -1.8984
   72CHL1  H24B 7798   4.703   4.720   8.392 -1.1773  0.4196  1.7761
   72CHL1   C25 7799   4.694   4.904   8.519  0.2535  0.2629 -0.1920
   72CHL1   H25 7800   4.699   5.014   8.506  1.5985  0.1718 -0.6474
   72CHL1   C26 7801   4.555   4.881   8.588  0.6163 -0.8687  0.2196
   72CHL1  H26A 7802   4.478   4.859   8.511  1.6069 -1.0083 -0.7603
   72CHL1  H26B 7803   4.554   4.802   8.665 -0.1679  0.9450  2.1916
   72CHL1  H26C 7804   4.535   4.980   8.636  0.0137 -0.2649 -1.2046
   72CHL1   C27 7805   4.803   4.848   8.610 -0.1129  0.1841  0.3313
   72CHL1  H27A 7806   4.906   4.874   8.576 -1.1537  1.8745 -1.7804
   72CHL1  H27B 7807   4.784   4.893   8.709 -0.2958  1.0383 -0.0822
   72CHL1  H27C 7808   4.792   4.737   8.612  1.6860 -0.0564 -0.7787
   73CHL1    C3 7809   5.213   1.289   7.113  0.6693 -0.4124 -0.1452
   73CHL1    H3 7810   5.320   1.275   7.142  0.6105  1.1612  0.9609
   73CHL1    O3 7811   5.190   1.296   6.973  0.3734 -0.1537 -0.0627
   73CHL1   H3' 7812   5.169   1.206   6.948  0.8986 -0.3493  0.1929
   73CHL1    C4 7813   5.126   1.173   7.187 -0.3613  0.0228  0.2993
   73CHL1   H4A 7814   5.019   1.191   7.165 -0.4781 -0.8135  0.1612
   73CHL1   H4B 7815   5.157   1.072   7.152  1.0116 -0.4564  2.6443
   73CHL1    C5 7816   5.147   1.176   7.330  0.5393  0.6092 -0.2170
   73CHL1    C6 7817   5.184   1.070   7.405 -0.1123 -0.3295 -0.4920
   73CHL1    H6 7818   5.199   0.974   7.354 -1.1512  0.0683 -1.6120
   73CHL1    C7 7819   5.191   1.071   7.552  0.1051 -0.3561  0.2168
   73CHL1   H7A 7820   5.138   0.981   7.591  2.1903 -1.9559 -0.4957
   73CHL1   H7B 7821   5.297   1.048   7.575  0.1739  0.9027  1.3328
   73CHL1    C8 7822   5.147   1.189   7.630 -0.7580 -0.4370 -0.4315
   73CHL1    H8 7823   5.038   1.205   7.642 -0.4152  1.5620  0.3606
   73CHL1   C14 7824   5.211   1.184   7.771 -0.4422  0.0808  0.3773
   73CHL1   H14 7825   5.321   1.171   7.759 -0.1625 -0.1512  2.6998
   73CHL1   C15 7826   5.177   1.064   7.849  0.3359 -0.3933  0.1740
   73CHL1  H15A 7827   5.070   1.037   7.860  0.4072 -1.9589 -2.1364
   73CHL1  H15B 7828   5.226   0.968   7.821 -0.8395 -0.8426 -0.4127
   73CHL1   C16 7829   5.221   1.118   7.990  0.4464  0.4342 -0.9155
   73CHL1  H16A 7830   5.131   1.109   8.054  0.2244  1.7956 -1.0217
   73CHL1  H16B 7831   5.309   1.059   8.024  1.9993  2.1048 -1.8356
   73CHL1   C17 7832   5.267   1.263   7.978 -0.8299 -0.7455  0.1439
   73CHL1   H17 7833   5.376   1.273   7.958 -0.6073  2.5723  2.2260
   73CHL1   C13 7834   5.199   1.314   7.850 -0.3574  0.6984 -1.2762
   73CHL1   C18 7835   5.044   1.349   7.871 -0.9193  0.9231 -0.5014
   73CHL1  H18A 7836   4.983   1.271   7.923  1.3217  0.1185  1.0491
   73CHL1  H18B 7837   5.045   1.442   7.931  1.7102  0.4921  0.2544
   73CHL1  H18C 7838   4.992   1.370   7.775 -2.6568 -0.1529  0.1442
   73CHL1   C12 7839   5.262   1.425   7.765  0.3091 -0.8152  0.5192
   73CHL1  H12A 7840   5.260   1.524   7.815  1.8450  0.5532 -1.9585
   73CHL1  H12B 7841   5.370   1.398   7.758 -0.6204 -4.5789 -2.6417
   73CHL1   C11 7842   5.209   1.447   7.622 -0.0287  0.3083 -0.1791
   73CHL1  H11A 7843   5.106   1.489   7.625  1.2036  3.6390 -0.0350
   73CHL1  H11B 7844   5.280   1.516   7.572  0.8568  0.1410  0.7945
   73CHL1    C9 7845   5.201   1.313   7.552  0.4261 -0.3112  0.4946
   73CHL1    H9 7846   5.308   1.295   7.529  0.2147  0.0201 -0.8136
   73CHL1   C10 7847   5.131   1.315   7.408 -0.1921  0.4564  0.1573
   73CHL1   C19 7848   4.976   1.336   7.425  0.0199 -0.1458  0.1741
   73CHL1  H19A 7849   4.959   1.439   7.465  3.1453 -0.1219  1.7778
   73CHL1  H19B 7850   4.927   1.341   7.326  0.3637  0.4856  0.0270
   73CHL1  H19C 7851   4.923   1.251   7.472  0.3505 -0.8729 -0.7478
   73CHL1    C1 7852   5.198   1.430   7.327 -0.2837  0.3814 -0.4185
   73CHL1   H1A 7853   5.168   1.529   7.368 -0.4438  0.3513 -0.4608
   73CHL1   H1B 7854   5.308   1.422   7.330 -0.3717 -2.2755 -1.6202
   73CHL1    C2 7855   5.168   1.425   7.177 -0.6076  0.3062  0.0039
   73CHL1   H2A 7856   5.216   1.510   7.123 -0.4364 -0.1399 -0.5574
   73CHL1   H2B 7857   5.060   1.442   7.162 -0.7160 -1.1425 -1.1241
   73CHL1   C20 7858   5.241   1.346   8.105 -0.0599  0.1892  0.5993
   73CHL1   H20 7859   5.133   1.362   8.123 -0.2953 -0.5490 -0.1418
   73CHL1   C21 7860   5.328   1.477   8.102 -0.3854  0.1128  0.7967
   73CHL1  H21A 7861   5.288   1.550   8.028  0.8362 -1.8262 -1.9266
   73CHL1  H21B 7862   5.432   1.456   8.070  0.2752  2.5143  1.1532
   73CHL1  H21C 7863   5.325   1.520   8.205 -0.7124 -0.2100  0.9251
   73CHL1   C22 7864   5.285   1.272   8.231 -0.1817  0.2352 -1.0557
   73CHL1  H22A 7865   5.260   1.321   8.328 -0.1005 -2.0305  0.1829
   73CHL1  H22B 7866   5.220   1.182   8.236  0.1822 -0.0232 -0.8454
   73CHL1   C23 7867   5.425   1.233   8.246 -0.3084  0.1598 -0.0644
   73CHL1  H23A 7868   5.457   1.182   8.153 -0.6054  0.5192 -0.3651
   73CHL1  H23B 7869   5.486   1.326   8.254 -1.7904  1.0713  1.5370
   73CHL1   C24 7870   5.461   1.143   8.363  0.0030 -0.2990  0.2260
   73CHL1  H24A 7871   5.570   1.132   8.378 -0.0049 -2.3378 -0.8753
   73CHL1  H24B 7872   5.418   1.192   8.454 -1.4562  0.1959 -0.6952
   73CHL1   C25 7873   5.399   1.003   8.348  0.5037  0.4100 -0.1445
   73CHL1   H25 7874   5.295   1.009   8.309 -0.0654  0.3150  1.3202
   73CHL1   C26 7875   5.492   0.923   8.253 -0.3375 -0.1795  0.5245
   73CHL1  H26A 7876   5.442   0.826   8.240 -0.1843 -0.0721 -1.0162
   73CHL1  H26B 7877   5.489   0.972   8.153 -0.0212  1.3274  1.2153
   73CHL1  H26C 7878   5.595   0.920   8.295  0.3476  1.7895 -0.8344
   73CHL1   C27 7879   5.385   0.925   8.484  0.0278  0.1817 -0.0728
   73CHL1  H27A 7880   5.332   0.978   8.566  2.2579  4.1594 -0.9325
   73CHL1  H27B 7881   5.338   0.824   8.482  0.7303 -0.1576  0.3598
   73CHL1  H27C 7882   5.486   0.905   8.524 -0.0656  1.1443  0.6792
   74CHL1    C3 7883   3.686   6.235   6.899 -0.2216 -0.1097  0.1591
   74CHL1    H3 7884   3.581   6.270   6.883  0.7975  2.8095 -0.9061
   74CHL1    O3 7885   3.750   6.169   6.789 -0.0765  0.1324  0.2833
   74CHL1   H3' 7886   3.728   6.076   6.804 -1.5904  0.3272 -0.4848
   74CHL1    C4 7887   3.768   6.367   6.915 -0.1906  0.8973  0.2722
   74CHL1   H4A 7888   3.876   6.345   6.901 -0.3274  1.6290 -2.4069
   74CHL1   H4B 7889   3.739   6.436   6.833 -4.7622  0.3512  1.1839
   74CHL1    C5 7890   3.734   6.434   7.051  0.6424 -0.6454 -0.6235
   74CHL1    C6 7891   3.697   6.565   7.057  0.0896 -0.1372  0.0814
   74CHL1    H6 7892   3.706   6.629   6.968 -0.0213  1.0821  0.9195
   74CHL1    C7 7893   3.684   6.638   7.190  0.6301 -0.2917 -0.3912
   74CHL1   H7A 7894   3.752   6.725   7.197 -0.1369  0.2654  0.4418
   74CHL1   H7B 7895   3.579   6.674   7.198  0.4123 -0.8232 -0.7703
   74CHL1    C8 7896   3.718   6.559   7.313 -0.4443 -0.1436 -0.1932
   74CHL1    H8 7897   3.829   6.564   7.313 -0.4963  2.0738 -0.6008
   74CHL1   C14 7898   3.662   6.620   7.433  0.3938 -0.1693  0.8919
   74CHL1   H14 7899   3.553   6.612   7.416  0.7810 -1.6941 -1.4940
   74CHL1   C15 7900   3.671   6.770   7.456  0.0308  0.1404 -0.1629
   74CHL1  H15A 7901   3.775   6.802   7.434  0.7688 -0.6148  1.9894
   74CHL1  H15B 7902   3.595   6.832   7.402  0.0729  0.6589  0.3564
   74CHL1   C16 7903   3.648   6.785   7.605  0.0990  0.1581 -0.7536
   74CHL1  H16A 7904   3.741   6.823   7.654  0.1732 -0.0247 -0.7524
   74CHL1  H16B 7905   3.570   6.860   7.631  1.4604  0.7591  2.0913
   74CHL1   C17 7906   3.615   6.644   7.655 -0.3419 -0.7467 -0.5905
   74CHL1   H17 7907   3.504   6.642   7.648 -0.8856  5.7260  0.4456
   74CHL1   C13 7908   3.690   6.543   7.563 -0.0979 -0.6068 -0.4270
   74CHL1   C18 7909   3.851   6.541   7.585  0.5517 -0.6885 -0.1905
   74CHL1  H18A 7910   3.901   6.501   7.494 -1.9703  0.3483 -2.1537
   74CHL1  H18B 7911   3.893   6.641   7.606 -2.9570  0.7389  0.9171
   74CHL1  H18C 7912   3.873   6.471   7.668  2.4898  0.8960  0.7079
   74CHL1   C12 7913   3.637   6.400   7.553 -0.7003  0.3079  0.7237
   74CHL1  H12A 7914   3.648   6.344   7.648  0.3202 -3.4506 -1.4155
   74CHL1  H12B 7915   3.527   6.406   7.540 -0.8856 -2.7478  0.1134
   74CHL1   C11 7916   3.694   6.323   7.434 -1.3139 -0.3559  0.3985
   74CHL1  H11A 7917   3.805   6.327   7.440 -0.8806 -0.6739 -4.1438
   74CHL1  H11B 7918   3.655   6.220   7.433 -0.7653 -0.5706 -0.3972
   74CHL1    C9 7919   3.679   6.410   7.304 -0.5216  0.0494 -0.2175
   74CHL1    H9 7920   3.571   6.425   7.281 -0.1425  3.1410 -0.4830
   74CHL1   C10 7921   3.733   6.345   7.173  0.2455  0.2642  0.0869
   74CHL1   C19 7922   3.881   6.295   7.203 -0.2943 -0.6944  0.4935
   74CHL1  H19A 7923   3.893   6.229   7.292 -0.3480 -0.7764  0.4398
   74CHL1  H19B 7924   3.920   6.239   7.115 -1.0735  1.1200 -1.0794
   74CHL1  H19C 7925   3.951   6.380   7.217 -0.5142 -0.4905  0.3502
   74CHL1    C1 7926   3.643   6.228   7.144 -0.5423 -0.2321 -0.6343
   74CHL1   H1A 7927   3.653   6.154   7.226  2.3038  0.6775 -0.0767
   74CHL1   H1B 7928   3.536   6.259   7.141 -1.3391 -2.7855 -1.6238
   74CHL1    C2 7929   3.682   6.146   7.021 -0.0543 -0.0611  0.7380
   74CHL1   H2A 7930   3.610   6.062   7.019  1.5476 -1.4981  0.5370
   74CHL1   H2B 7931   3.782   6.101   7.040 -0.1725 -1.3932 -1.5195
   74CHL1   C20 7932   3.644   6.638   7.811  0.6018  0.0274  0.7366
   74CHL1   H20 7933   3.753   6.648   7.830  1.3748 -3.2264 -1.2391
   74CHL1   C21 7934   3.606   6.499   7.880 -0.3749  0.2725  0.3557
   74CHL1  H21A 7935   3.640   6.500   7.985  1.0482 -0.4916 -0.0778
   74CHL1  H21B 7936   3.675   6.421   7.842 -0.4727 -0.0242  0.7840
   74CHL1  H21C 7937   3.500   6.467   7.862  0.0860  0.0191 -2.3473
   74CHL1   C22 7938   3.562   6.751   7.883  0.3846 -0.4314  0.9657
   74CHL1  H22A 7939   3.593   6.847   7.838  1.7272 -0.6590  1.3757
   74CHL1  H22B 7940   3.453   6.740   7.862  0.7709 -1.6938 -0.5520
   74CHL1   C23 7941   3.572   6.758   8.037 -0.4447  0.2010  0.0861
   74CHL1  H23A 7942   3.513   6.671   8.073 -0.2469 -0.3267 -0.8238
   74CHL1  H23B 7943   3.672   6.731   8.076  0.2587  0.8517 -1.2000
   74CHL1   C24 7944   3.534   6.898   8.085 -0.5017 -0.4252 -0.4614
   74CHL1  H24A 7945   3.580   6.972   8.017 -1.6792  0.0041 -0.8164
   74CHL1  H24B 7946   3.424   6.901   8.070 -0.5585 -1.7334 -0.4921
   74CHL1   C25 7947   3.575   6.937   8.231  0.4820 -0.0307 -0.0254
   74CHL1   H25 7948   3.685   6.924   8.239  0.6126  0.4233 -0.9560
   74CHL1   C26 7949   3.543   7.083   8.260 -0.2208 -0.0906 -0.2454
   74CHL1  H26A 7950   3.577   7.141   8.172  1.7757 -1.1669 -0.2564
   74CHL1  H26B 7951   3.432   7.090   8.262 -0.2708 -0.9064  0.1090
   74CHL1  H26C 7952   3.592   7.126   8.350 -1.0869  1.1579 -0.3428
   74CHL1   C27 7953   3.523   6.841   8.342 -0.0954  0.0929  0.3072
   74CHL1  H27A 7954   3.413   6.843   8.354 -0.5951  0.3279 -3.2990
   74CHL1  H27B 7955   3.554   6.738   8.315  1.0553 -0.3051  2.8286
   74CHL1  H27C 7956   3.561   6.861   8.445  0.4559 -0.8200  0.2902
   75CHL1    C3 7957   1.214   5.895   7.067 -0.7742 -0.1777  0.3357
   75CHL1    H3 7958   1.117   5.873   7.115 -0.3842 -2.0801  0.3435
   75CHL1    O3 7959   1.193   5.947   6.938 -0.0313  0.1575 -0.0017
   75CHL1   H3' 7960   1.108   5.992   6.941  0.2645  0.7726 -0.7283
   75CHL1    C4 7961   1.277   5.998   7.159  0.1010  0.2682 -0.5103
   75CHL1   H4A 7962   1.375   6.025   7.113  0.0169  0.0515 -0.8174
   75CHL1   H4B 7963   1.218   6.092   7.159  0.0386  0.2612 -2.4380
   75CHL1    C5 7964   1.299   5.949   7.301  1.0514  0.7481  1.1506
   75CHL1    C6 7965   1.246   6.007   7.404 -0.3535  1.6058  0.0262
   75CHL1    H6 7966   1.196   6.105   7.405 -0.5826  1.4851  0.9023
   75CHL1    C7 7967   1.266   5.958   7.546 -0.0581 -0.1041  0.1708
   75CHL1   H7A 7968   1.297   6.044   7.609 -0.1106 -0.0651  0.1428
   75CHL1   H7B 7969   1.174   5.922   7.597  0.0476  0.2996  0.6557
   75CHL1    C8 7970   1.378   5.851   7.559  0.1942 -0.3292 -0.0095
   75CHL1    H8 7971   1.465   5.920   7.562 -1.5415  1.9506  2.2181
   75CHL1   C14 7972   1.384   5.775   7.693 -0.0288 -0.3248  0.0418
   75CHL1   H14 7973   1.284   5.726   7.693 -0.2339  0.0569 -1.5792
   75CHL1   C15 7974   1.391   5.867   7.825 -0.0202  0.3756 -0.2324
   75CHL1  H15A 7975   1.464   5.950   7.816 -0.8101  1.1531  0.3891
   75CHL1  H15B 7976   1.290   5.911   7.837  0.2198  0.8689  0.0380
   75CHL1   C16 7977   1.433   5.767   7.936  0.1046 -0.1299 -0.2003
   75CHL1  H16A 7978   1.529   5.803   7.979  1.3840 -1.3085 -1.9449
   75CHL1  H16B 7979   1.350   5.762   8.010 -1.9201 -3.1367 -2.4253
   75CHL1   C17 7980   1.445   5.633   7.862  0.1182  0.2075  0.0166
   75CHL1   H17 7981   1.341   5.594   7.867  0.6737 -1.4541 -0.6383
   75CHL1   C13 7982   1.478   5.662   7.714 -0.8681 -0.6653  0.3689
   75CHL1   C18 7983   1.626   5.707   7.706  0.0871  0.4431  0.1232
   75CHL1  H18A 7984   1.692   5.619   7.721  1.5609  1.7195  1.5168
   75CHL1  H18B 7985   1.650   5.750   7.606 -1.3119 -3.2446 -2.0201
   75CHL1  H18C 7986   1.653   5.784   7.781 -1.8265  2.5189 -1.1867
   75CHL1   C12 7987   1.450   5.564   7.610 -0.3936 -0.4573 -0.6608
   75CHL1  H12A 7988   1.524   5.481   7.613  0.0398 -0.0530  0.3323
   75CHL1  H12B 7989   1.350   5.519   7.631 -0.1244 -0.1225  1.5188
   75CHL1   C11 7990   1.465   5.624   7.473  0.1511 -0.2358 -0.6844
   75CHL1  H11A 7991   1.573   5.647   7.461  0.9574 -3.5810 -0.9944
   75CHL1  H11B 7992   1.458   5.551   7.389 -1.3092  0.6732 -1.3834
   75CHL1    C9 7993   1.374   5.747   7.448  0.2053 -0.1270 -0.0085
   75CHL1    H9 7994   1.273   5.701   7.454  0.5747 -0.8726  0.6689
   75CHL1   C10 7995   1.382   5.813   7.314  0.2738  0.2058  0.4424
   75CHL1   C19 7996   1.535   5.850   7.281 -0.3455 -0.0637  0.6803
   75CHL1  H19A 7997   1.581   5.923   7.351  1.2870 -1.6940  1.3788
   75CHL1  H19B 7998   1.606   5.765   7.283  0.9797  0.9774 -0.4349
   75CHL1  H19C 7999   1.536   5.883   7.175 -2.3411 -0.3457  0.5205
   75CHL1    C1 8000   1.326   5.712   7.205  0.7232  0.0008  0.5579
   75CHL1   H1A 8001   1.379   5.615   7.196 -0.6307 -0.7982  0.9357
   75CHL1   H1B 8002   1.225   5.698   7.247  2.1047 -0.5271  4.0198
   75CHL1    C2 8003   1.307   5.770   7.059 -0.4270  0.0658  0.7645
   75CHL1   H2A 8004   1.261   5.687   7.001 -1.3336 -0.1680  1.7905
   75CHL1   H2B 8005   1.411   5.791   7.024 -0.5950  2.0922  1.3384
   75CHL1   C20 8006   1.527   5.531   7.930  0.2681  0.3929 -0.1411
   75CHL1   H20 8007   1.633   5.544   7.901  0.3200 -3.8123 -2.7570
   75CHL1   C21 8008   1.486   5.389   7.878 -0.1086 -0.4484  0.5370
   75CHL1  H21A 8009   1.542   5.372   7.783 -0.9658  2.5843 -0.6409
   75CHL1  H21B 8010   1.378   5.374   7.859  0.3017 -4.4727  0.5111
   75CHL1  H21C 8011   1.520   5.311   7.949  3.0650 -0.4741 -0.8124
   75CHL1   C22 8012   1.511   5.534   8.084  0.3935 -0.2654 -0.0793
   75CHL1  H22A 8013   1.525   5.638   8.120  2.0080 -1.2184  2.3356
   75CHL1  H22B 8014   1.416   5.479   8.102  0.5058 -0.6981 -0.7718
   75CHL1   C23 8015   1.614   5.447   8.157  0.0990 -0.3944 -0.4309
   75CHL1  H23A 8016   1.603   5.338   8.139 -1.4027 -0.6287  1.5510
   75CHL1  H23B 8017   1.715   5.475   8.119  0.2261 -0.2127  0.0308
   75CHL1   C24 8018   1.603   5.477   8.302 -0.4463  0.9961  0.0949
   75CHL1  H24A 8019   1.584   5.585   8.322  0.1195  1.2760 -0.7987
   75CHL1  H24B 8020   1.522   5.416   8.347  0.2084 -0.0643 -0.1195
   75CHL1   C25 8021   1.732   5.444   8.386 -0.3146 -0.2051 -0.4669
   75CHL1   H25 8022   1.811   5.509   8.343  0.8426 -1.8359 -0.9008
   75CHL1   C26 8023   1.705   5.494   8.529 -0.0103 -0.0010 -0.6055
   75CHL1  H26A 8024   1.678   5.602   8.535 -2.0870 -0.5453  0.9757
   75CHL1  H26B 8025   1.630   5.428   8.578  0.2792  0.1554  0.0519
   75CHL1  H26C 8026   1.801   5.470   8.577 -0.7421 -1.4778  0.1644
   75CHL1   C27 8027   1.762   5.295   8.382 -1.0884 -0.5777 -0.7459
   75CHL1  H27A 8028   1.805   5.261   8.285  1.5412  2.1515 -0.6970
   75CHL1  H27B 8029   1.834   5.272   8.464 -2.4185  0.6136  0.8299
   75CHL1  H27C 8030   1.678   5.232   8.416 -0.8220 -1.8674 -2.3222
   76CHL1    C3 8031   4.802   4.468   7.248 -0.3168 -0.4659 -0.9609
   76CHL1    H3 8032   4.913   4.470   7.237 -0.1165 -0.7407  0.7898
   76CHL1    O3 8033   4.750   4.491   7.121  0.2441 -0.2721 -0.3293
   76CHL1   H3' 8034   4.790   4.573   7.092 -0.5153  0.0029 -0.6122
   76CHL1    C4 8035   4.765   4.321   7.294 -0.0743 -0.0191 -0.7068
   76CHL1   H4A 8036   4.655   4.313   7.278 -0.0136  0.3515 -1.3334
   76CHL1   H4B 8037   4.810   4.242   7.231  1.8925 -0.6503  1.3788
   76CHL1    C5 8038   4.785   4.301   7.443 -0.0653  0.0456  0.3186
   76CHL1    C6 8039   4.852   4.200   7.494 -0.2270 -0.4330  0.0379
   76CHL1    H6 8040   4.899   4.127   7.426  0.1515 -0.7333  0.6101
   76CHL1    C7 8041   4.878   4.179   7.640  0.6108  0.2296  0.3781
   76CHL1   H7A 8042   4.861   4.072   7.661  0.5707  0.2702  0.5529
   76CHL1   H7B 8043   4.977   4.213   7.679 -1.0555  3.2267  2.4444
   76CHL1    C8 8044   4.771   4.249   7.725  0.5931 -0.1782 -0.2022
   76CHL1    H8 8045   4.672   4.202   7.709  0.8168 -0.1131 -1.8745
   76CHL1   C14 8046   4.812   4.243   7.871  0.7766  0.3481  0.0484
   76CHL1   H14 8047   4.908   4.300   7.879  0.8071  0.1996  0.8848
   76CHL1   C15 8048   4.847   4.103   7.932 -0.9434  0.0306 -0.2508
   76CHL1  H15A 8049   4.765   4.032   7.906 -2.7721  1.9522  0.0028
   76CHL1  H15B 8050   4.949   4.072   7.901 -1.5075  0.3794 -2.5953
   76CHL1   C16 8051   4.841   4.125   8.089 -0.2627 -0.1172  0.7458
   76CHL1  H16A 8052   4.766   4.059   8.136 -1.9041  2.1361  1.4511
   76CHL1  H16B 8053   4.941   4.119   8.137  0.0315 -1.7390 -0.0219
   76CHL1   C17 8054   4.787   4.274   8.106 -0.9920 -0.4308 -0.1389
   76CHL1   H17 8055   4.880   4.336   8.110 -0.2797 -1.4525 -0.4256
   76CHL1   C13 8056   4.718   4.311   7.971  0.5957 -0.1636  0.1551
   76CHL1   C18 8057   4.581   4.232   7.971  0.2518 -0.0533 -0.2039
   76CHL1  H18A 8058   4.516   4.296   8.035 -1.9299 -0.9182 -1.4252
   76CHL1  H18B 8059   4.535   4.239   7.870  1.2412  0.8626 -0.6091
   76CHL1  H18C 8060   4.590   4.127   8.007 -0.2337  0.1139  0.4214
   76CHL1   C12 8061   4.698   4.458   7.936  0.0347  0.6344 -0.2167
   76CHL1  H12A 8062   4.615   4.497   7.999 -1.5448 -0.9887 -1.2094
   76CHL1  H12B 8063   4.788   4.523   7.948 -0.5680  1.2330  1.3387
   76CHL1   C11 8064   4.661   4.480   7.788 -0.0011  0.5929 -0.2771
   76CHL1  H11A 8065   4.555   4.447   7.780  0.0080  0.5509 -0.2191
   76CHL1  H11B 8066   4.662   4.588   7.759 -3.3907  1.5295  2.4136
   76CHL1    C9 8067   4.751   4.399   7.688 -0.5529  1.1793  0.4028
   76CHL1    H9 8068   4.851   4.446   7.698 -1.1578  3.3660 -2.3811
   76CHL1   C10 8069   4.717   4.413   7.535  0.1143 -0.4460  0.5447
   76CHL1   C19 8070   4.566   4.412   7.509 -0.2155 -0.0965 -0.0908
   76CHL1  H19A 8071   4.527   4.504   7.558 -0.8462 -1.9448  3.2000
   76CHL1  H19B 8072   4.535   4.418   7.403 -1.3348 -2.3737  0.0429
   76CHL1  H19C 8073   4.511   4.326   7.552  0.3018  0.4986  1.8770
   76CHL1    C1 8074   4.772   4.551   7.493 -0.4459 -0.0230 -0.4562
   76CHL1   H1A 8075   4.743   4.637   7.558 -0.6538 -0.9173  0.6537
   76CHL1   H1B 8076   4.881   4.537   7.510  0.0414  1.7217 -1.7781
   76CHL1    C2 8077   4.756   4.584   7.344 -0.8923  0.4246 -0.1979
   76CHL1   H2A 8078   4.810   4.677   7.316 -1.3103  0.5206 -0.7150
   76CHL1   H2B 8079   4.650   4.613   7.330 -0.4682  2.2128  0.0860
   76CHL1   C20 8080   4.719   4.298   8.243 -0.5766  0.6007  0.0687
   76CHL1   H20 8081   4.616   4.255   8.245  0.3217 -1.6772  1.4549
   76CHL1   C21 8082   4.711   4.447   8.273  0.5435  0.0165 -0.5794
   76CHL1  H21A 8083   4.814   4.489   8.278  0.5444 -0.0182 -0.3273
   76CHL1  H21B 8084   4.658   4.462   8.369 -1.9625 -1.6684 -1.5980
   76CHL1  H21C 8085   4.648   4.505   8.202 -1.6161 -2.6747 -1.0239
   76CHL1   C22 8086   4.790   4.231   8.366  0.5063  0.4679 -0.2944
   76CHL1  H22A 8087   4.797   4.123   8.341  0.8706  0.1106  1.2262
   76CHL1  H22B 8088   4.896   4.264   8.373 -0.0257  1.9855  1.3151
   76CHL1   C23 8089   4.715   4.238   8.497 -0.0807  0.2185  0.0679
   76CHL1  H23A 8090   4.726   4.332   8.555  1.6755 -1.5200  2.7712
   76CHL1  H23B 8091   4.607   4.227   8.474 -0.2311  1.9225 -0.1895
   76CHL1   C24 8092   4.763   4.128   8.597 -0.3935 -0.5544  0.0666
   76CHL1  H24A 8093   4.764   4.034   8.538  0.1656  0.3910 -1.4788
   76CHL1  H24B 8094   4.868   4.153   8.625 -0.8808  1.2756  0.3429
   76CHL1   C25 8095   4.683   4.108   8.726 -0.0620  0.4972  0.6053
   76CHL1   H25 8096   4.751   4.047   8.790 -0.7740 -1.4617 -0.4150
   76CHL1   C26 8097   4.657   4.235   8.801  0.3346 -0.2909  0.2112
   76CHL1  H26A 8098   4.585   4.293   8.740 -0.0379  1.6692  2.3685
   76CHL1  H26B 8099   4.594   4.203   8.887 -0.6040  0.6976 -0.1015
   76CHL1  H26C 8100   4.750   4.293   8.823  1.0752 -2.0927  2.2413
   76CHL1   C27 8101   4.563   4.029   8.704 -0.0132  0.0079  0.0405
   76CHL1  H27A 8102   4.570   3.943   8.634 -0.5726 -0.2558  0.2938
   76CHL1  H27B 8103   4.522   3.990   8.800  3.4684 -0.8242  1.3138
   76CHL1  H27C 8104   4.485   4.098   8.667  1.3286  0.9295 -1.1520
   77CHL1    C3 8105   4.579   1.024   6.807 -0.3751  0.5617  0.1608
   77CHL1    H3 8106   4.589   1.133   6.828  2.0837  0.4474 -0.2228
   77CHL1    O3 8107   4.584   1.011   6.667  0.0418  0.0253  0.1145
   77CHL1   H3' 8108   4.673   1.026   6.634 -0.0746 -1.2095 -0.8396
   77CHL1    C4 8109   4.696   0.941   6.857 -0.0013  0.7922 -0.1199
   77CHL1   H4A 8110   4.673   0.839   6.821 -2.1011  1.7427 -1.7083
   77CHL1   H4B 8111   4.786   0.984   6.809 -1.6320  3.5286 -0.9507
   77CHL1    C5 8112   4.698   0.939   7.006  0.9680 -0.0375 -0.0529
   77CHL1    C6 8113   4.809   0.980   7.077 -0.0706  0.0639 -0.0322
   77CHL1    H6 8114   4.895   1.023   7.024 -0.9057  1.8221 -0.0317
   77CHL1    C7 8115   4.829   0.983   7.227 -0.3018  0.1185  0.1209
   77CHL1   H7A 8116   4.915   0.921   7.260 -1.9847 -1.9288  0.9153
   77CHL1   H7B 8117   4.840   1.091   7.254  0.3511  0.6100 -1.9217
   77CHL1    C8 8118   4.718   0.912   7.302 -0.1326  0.0432  0.2338
   77CHL1    H8 8119   4.739   0.803   7.301 -2.2156 -0.4154  1.4240
   77CHL1   C14 8120   4.715   0.955   7.453  0.3282  0.1715  0.2855
   77CHL1   H14 8121   4.683   1.061   7.453  2.3873  0.9121  2.9944
   77CHL1   C15 8122   4.848   0.948   7.535  0.5794  0.8371 -0.0679
   77CHL1  H15A 8123   4.894   0.850   7.510 -1.4889 -0.7116  1.8189
   77CHL1  H15B 8124   4.918   1.033   7.516 -0.1619  1.2240 -1.2013
   77CHL1   C16 8125   4.796   0.937   7.681 -0.1202 -0.7027 -0.2061
   77CHL1  H16A 8126   4.843   0.844   7.720 -0.0256 -0.9843 -0.9698
   77CHL1  H16B 8127   4.836   1.013   7.750  0.6371 -0.2166 -1.1525
   77CHL1   C17 8128   4.642   0.931   7.674  0.9697  0.1313  0.1247
   77CHL1   H17 8129   4.591   1.030   7.677 -1.0634 -0.8926  1.5348
   77CHL1   C13 8130   4.613   0.871   7.535  0.5179  0.0672 -0.3944
   77CHL1   C18 8131   4.641   0.724   7.538 -0.5160  0.3178  0.3132
   77CHL1  H18A 8132   4.559   0.676   7.596 -1.0361  0.7669 -0.0419
   77CHL1  H18B 8133   4.651   0.682   7.436  1.4310  4.2386 -1.3297
   77CHL1  H18C 8134   4.736   0.697   7.591  1.6341  2.4296 -2.1688
   77CHL1   C12 8135   4.476   0.898   7.471 -0.5459  0.3560  0.4976
   77CHL1  H12A 8136   4.402   0.840   7.530 -1.5774  2.0826  0.9675
   77CHL1  H12B 8137   4.453   1.005   7.489  0.5702  0.2488  2.9689
   77CHL1   C11 8138   4.467   0.861   7.321 -0.7063 -1.2088  0.1028
   77CHL1  H11A 8139   4.478   0.751   7.310  2.4174 -1.0643  0.8412
   77CHL1  H11B 8140   4.371   0.894   7.277 -0.2262 -1.3890 -1.1043
   77CHL1    C9 8141   4.581   0.928   7.237 -0.6332 -0.3612  0.7640
   77CHL1    H9 8142   4.563   1.037   7.248  1.7195  0.0326  1.3075
   77CHL1   C10 8143   4.571   0.893   7.084  0.7912 -1.3903  0.1307
   77CHL1   C19 8144   4.569   0.740   7.076 -0.5284 -0.6006  0.5646
   77CHL1  H19A 8145   4.468   0.702   7.101  0.2989 -2.7944  0.8207
   77CHL1  H19B 8146   4.591   0.711   6.971  0.5316  1.6700  0.1077
   77CHL1  H19C 8147   4.641   0.696   7.148  0.1511  0.1428  0.3503
   77CHL1    C1 8148   4.449   0.970   7.026  0.3660 -0.5439  0.1932
   77CHL1   H1A 8149   4.355   0.936   7.075 -0.4258  0.3639 -0.6307
   77CHL1   H1B 8150   4.453   1.079   7.049 -0.0160 -0.3592 -0.5721
   77CHL1    C2 8151   4.448   0.962   6.871 -0.2599  0.7963  0.0437
   77CHL1   H2A 8152   4.363   1.008   6.815 -0.2525  0.0805 -0.5740
   77CHL1   H2B 8153   4.456   0.854   6.848  2.1563  0.2421  2.9370
   77CHL1   C20 8154   4.578   0.855   7.797 -0.2545  0.6080 -0.0706
   77CHL1   H20 8155   4.607   0.748   7.788  0.1937  0.7552 -0.4231
   77CHL1   C21 8156   4.427   0.867   7.802 -0.5149 -0.5480 -0.1966
   77CHL1  H21A 8157   4.373   0.833   7.711 -0.4213 -3.7426  0.8055
   77CHL1  H21B 8158   4.394   0.972   7.817 -0.7009 -0.3284 -1.9839
   77CHL1  H21C 8159   4.384   0.814   7.890 -1.3382 -1.3813 -1.0810
   77CHL1   C22 8160   4.652   0.900   7.930  0.0537  0.5992  0.1841
   77CHL1  H22A 8161   4.747   0.843   7.935 -0.9507 -1.1984 -0.3272
   77CHL1  H22B 8162   4.677   1.007   7.918 -0.2199  0.5325 -1.1188
   77CHL1   C23 8163   4.581   0.887   8.064  0.0422  0.9493  0.7218
   77CHL1  H23A 8164   4.483   0.938   8.052  0.5886  1.8872  0.1782
   77CHL1  H23B 8165   4.567   0.777   8.077 -0.2214  0.2226 -4.1105
   77CHL1   C24 8166   4.652   0.953   8.178 -0.1126  0.3614  0.1549
   77CHL1  H24A 8167   4.760   0.926   8.183 -0.2246 -1.1437 -2.9591
   77CHL1  H24B 8168   4.657   1.063   8.161  1.2400  0.6840  2.2557
   77CHL1   C25 8169   4.589   0.922   8.317  0.1643  0.0914  0.1677
   77CHL1   H25 8170   4.480   0.944   8.312  0.1041 -0.3273 -0.4886
   77CHL1   C26 8171   4.598   0.778   8.338  0.0699 -0.2025  0.4885
   77CHL1  H26A 8172   4.577   0.759   8.446 -0.2937  0.2101  0.4931
   77CHL1  H26B 8173   4.529   0.715   8.279  0.8096 -0.3128 -0.2885
   77CHL1  H26C 8174   4.701   0.737   8.327 -0.2257 -1.0771  0.9091
   77CHL1   C27 8175   4.659   0.998   8.425  0.9234 -0.3814  0.1862
   77CHL1  H27A 8176   4.766   0.967   8.429  0.8119 -0.6827  2.2963
   77CHL1  H27B 8177   4.642   1.108   8.418 -0.2447 -0.5606  0.0544
   77CHL1  H27C 8178   4.604   0.972   8.519 -1.1852  1.2322 -0.5209
   78CHL1    C3 8179   1.292   2.102   6.774 -0.4299  0.2076  0.1689
   78CHL1    H3 8180   1.377   2.173   6.776  2.2150 -2.7002 -0.0625
   78CHL1    O3 8181   1.228   2.086   6.644  0.3771 -0.5123 -0.4266
   78CHL1   H3' 8182   1.211   1.992   6.636 -1.5327 -0.4282  1.5331
   78CHL1    C4 8183   1.346   1.959   6.810 -0.5522 -0.0331 -0.4113
   78CHL1   H4A 8184   1.260   1.890   6.794 -1.0221  0.5837 -0.6097
   78CHL1   H4B 8185   1.423   1.930   6.735 -2.1733 -0.3672 -2.0279
   78CHL1    C5 8186   1.386   1.941   6.960  0.6245 -0.6758  0.0058
   78CHL1    C6 8187   1.505   1.897   7.007  0.3009 -0.4193  0.1309
   78CHL1    H6 8188   1.590   1.869   6.943  0.4771 -1.1996  0.6790
   78CHL1    C7 8189   1.540   1.880   7.155  0.0212 -0.2421 -1.0675
   78CHL1   H7A 8190   1.595   1.785   7.169 -0.5511 -0.7549 -2.1932
   78CHL1   H7B 8191   1.604   1.967   7.185 -1.1071  0.4205 -0.5093
   78CHL1    C8 8192   1.412   1.879   7.244  0.0165  0.9232  0.3241
   78CHL1    H8 8193   1.343   1.794   7.227  0.7211  0.1727  1.1527
   78CHL1   C14 8194   1.453   1.897   7.384  0.1869 -0.4707  0.1290
   78CHL1   H14 8195   1.510   1.992   7.392  0.3399 -0.6222  0.8443
   78CHL1   C15 8196   1.543   1.790   7.443 -0.0664  0.3633 -0.0484
   78CHL1  H15A 8197   1.510   1.691   7.406 -1.2800  0.6015  0.3453
   78CHL1  H15B 8198   1.652   1.805   7.431 -0.5209  3.6607 -1.2218
   78CHL1   C16 8199   1.527   1.792   7.599  0.3819  0.6425  0.4267
   78CHL1  H16A 8200   1.515   1.690   7.641  1.9065  0.4853  0.5224
   78CHL1  H16B 8201   1.612   1.847   7.643  0.2264  1.4946 -0.3100
   78CHL1   C17 8202   1.417   1.899   7.631  0.0142 -0.1656  0.5003
   78CHL1   H17 8203   1.466   1.997   7.644 -0.6858  0.1076  1.1485
   78CHL1   C13 8204   1.341   1.904   7.493  0.4901 -0.4767 -0.7800
   78CHL1   C18 8205   1.254   1.778   7.489  0.2841  0.7047 -0.2539
   78CHL1  H18A 8206   1.256   1.744   7.383 -1.4396  0.1603 -0.1515
   78CHL1  H18B 8207   1.301   1.694   7.543 -2.5141 -0.1854  0.9941
   78CHL1  H18C 8208   1.151   1.805   7.520  0.8649 -0.2489  2.8058
   78CHL1   C12 8209   1.251   2.027   7.461 -0.5936 -0.4520 -0.4172
   78CHL1  H12A 8210   1.157   2.033   7.519  0.0357 -0.1964  0.6086
   78CHL1  H12B 8211   1.316   2.115   7.481 -1.9044  0.1106  1.7010
   78CHL1   C11 8212   1.209   2.023   7.313  0.1914  0.3383 -0.5119
   78CHL1  H11A 8213   1.144   1.933   7.305  1.4778 -0.7736  0.8842
   78CHL1  H11B 8214   1.151   2.115   7.289 -0.7066 -0.1171 -0.1718
   78CHL1    C9 8215   1.325   1.998   7.213 -0.2711 -0.5844  1.5088
   78CHL1    H9 8216   1.392   2.086   7.222 -0.7560 -0.0633  0.3015
   78CHL1   C10 8217   1.280   1.987   7.062  1.0435 -0.3655  0.0812
   78CHL1   C19 8218   1.149   1.892   7.056 -0.8496  0.2515 -0.5991
   78CHL1  H19A 8219   1.060   1.938   7.104 -1.4929 -1.1482 -0.4061
   78CHL1  H19B 8220   1.120   1.860   6.953 -1.2056  1.9737 -1.0621
   78CHL1  H19C 8221   1.170   1.794   7.105  2.1714 -0.9420 -3.8888
   78CHL1    C1 8222   1.238   2.132   7.024  0.2703 -0.4113 -0.4691
   78CHL1   H1A 8223   1.160   2.167   7.095 -0.5361  0.4071 -1.7213
   78CHL1   H1B 8224   1.326   2.200   7.036 -0.8604  1.7323 -3.2584
   78CHL1    C2 8225   1.187   2.144   6.879  0.5100  0.1977 -0.3924
   78CHL1   H2A 8226   1.174   2.253   6.862  1.1707  0.2688 -0.4815
   78CHL1   H2B 8227   1.087   2.096   6.872 -0.1975  1.1752  1.9796
   78CHL1   C20 8228   1.344   1.876   7.765  0.1368  0.7811  1.2648
   78CHL1   H20 8229   1.302   1.775   7.750  0.4714  0.9289 -1.1187
   78CHL1   C21 8230   1.227   1.971   7.795  0.3146 -0.3580  0.3298
   78CHL1  H21A 8231   1.174   1.937   7.886 -0.9735 -0.9690 -0.6117
   78CHL1  H21B 8232   1.154   1.961   7.712  1.2434  2.0089 -0.8752
   78CHL1  H21C 8233   1.243   2.081   7.790 -1.9899  0.0121  0.2159
   78CHL1   C22 8234   1.444   1.881   7.885 -0.3212 -0.1427 -0.5152
   78CHL1  H22A 8235   1.538   1.825   7.866  0.7578  1.2565  0.4708
   78CHL1  H22B 8236   1.478   1.984   7.908  2.0502 -1.1163  0.6778
   78CHL1   C23 8237   1.376   1.827   8.011  0.0105 -0.1150 -0.4602
   78CHL1  H23A 8238   1.315   1.912   8.048  0.1511  0.1776 -0.8954
   78CHL1  H23B 8239   1.322   1.733   7.984  1.3665 -1.3845  0.9932
   78CHL1   C24 8240   1.484   1.801   8.121  0.2815 -0.0393 -0.2617
   78CHL1  H24A 8241   1.573   1.744   8.087 -0.9465 -2.2079 -0.0373
   78CHL1  H24B 8242   1.527   1.898   8.154 -2.1174  1.5167 -1.4312
   78CHL1   C25 8243   1.426   1.739   8.253  0.7269 -0.2633 -0.2924
   78CHL1   H25 8244   1.325   1.781   8.267  1.0643  0.2073  0.8039
   78CHL1   C26 8245   1.408   1.589   8.252  0.2391 -0.7294  0.1496
   78CHL1  H26A 8246   1.324   1.557   8.187 -1.9837  0.8178  2.0734
   78CHL1  H26B 8247   1.500   1.539   8.215  1.2283 -0.9444  2.7067
   78CHL1  H26C 8248   1.381   1.552   8.353 -0.4713 -1.3489 -0.2556
   78CHL1   C27 8249   1.505   1.787   8.377 -0.0239  0.1871 -0.2461
   78CHL1  H27A 8250   1.612   1.759   8.368 -0.6511 -1.9937 -1.7740
   78CHL1  H27B 8251   1.485   1.896   8.389 -0.7789  0.1187 -0.8333
   78CHL1  H27C 8252   1.471   1.733   8.468 -2.9926  0.5321 -1.0572
   79CHL1    C3 8253   5.814   2.936   7.390 -0.0854  0.6748 -0.2126
   79CHL1    H3 8254   5.811   3.047   7.398 -0.8741  0.6246  0.3494
   79CHL1    O3 8255   5.811   2.910   7.248  0.3963  0.0731 -0.0987
   79CHL1   H3' 8256   5.810   2.814   7.246 -0.0741  0.0272  1.0772
   79CHL1    C4 8257   5.949   2.879   7.437 -0.2141  0.0597  0.1362
   79CHL1   H4A 8258   5.951   2.772   7.409  0.9241 -0.1408  0.9242
   79CHL1   H4B 8259   6.032   2.933   7.388 -1.1620  0.9021 -0.5841
   79CHL1    C5 8260   5.943   2.891   7.586 -0.6876  0.9512  0.1177
   79CHL1    C6 8261   6.034   2.966   7.651 -0.0214  0.1169 -0.3715
   79CHL1    H6 8262   6.112   3.014   7.590  1.9440 -2.7258 -0.2826
   79CHL1    C7 8263   6.038   2.985   7.802 -0.3919 -0.2274  0.6562
   79CHL1   H7A 8264   6.142   2.981   7.841 -0.2555 -1.5156  0.2202
   79CHL1   H7B 8265   5.992   3.085   7.815 -1.5527 -0.5989 -0.3637
   79CHL1    C8 8266   5.963   2.872   7.870  0.1220  0.8963 -0.0953
   79CHL1    H8 8267   6.020   2.777   7.861 -0.8698  0.1683  1.0650
   79CHL1   C14 8268   5.941   2.890   8.022  0.0962  0.1841 -0.4554
   79CHL1   H14 8269   5.883   2.985   8.020  2.5793  1.8619  1.5410
   79CHL1   C15 8270   6.061   2.927   8.101  0.2502 -0.4137  0.7198
   79CHL1  H15A 8271   6.124   2.836   8.098  1.1158  0.1430  1.4745
   79CHL1  H15B 8272   6.113   3.015   8.055 -1.0964 -0.0613 -0.1803
   79CHL1   C16 8273   6.006   2.941   8.238  0.2047  0.7650 -0.5441
   79CHL1  H16A 8274   6.069   2.893   8.316 -1.3276  0.9930  0.8969
   79CHL1  H16B 8275   5.999   3.049   8.263  3.0350  1.1663 -1.2452
   79CHL1   C17 8276   5.868   2.862   8.242 -0.1147  0.1792  0.3690
   79CHL1   H17 8277   5.794   2.943   8.224  0.1503  0.8538  2.1511
   79CHL1   C13 8278   5.861   2.790   8.112 -0.3912 -0.6594  0.2004
   79CHL1   C18 8279   5.937   2.658   8.119  0.4465  0.6490 -0.7521
   79CHL1  H18A 8280   5.870   2.574   8.148  1.8671 -0.4549 -0.6102
   79CHL1  H18B 8281   5.985   2.634   8.022  0.9632  2.9655 -1.1368
   79CHL1  H18C 8282   6.022   2.668   8.188 -0.6144 -0.8188  0.8570
   79CHL1   C12 8283   5.727   2.772   8.047 -0.6447  0.0758  0.4750
   79CHL1  H12A 8284   5.666   2.687   8.084 -2.2058  0.3742 -1.2994
   79CHL1  H12B 8285   5.660   2.860   8.045 -0.7340  0.1171  2.5601
   79CHL1   C11 8286   5.743   2.742   7.891 -0.5981 -0.1119  0.4693
   79CHL1  H11A 8287   5.799   2.645   7.892 -0.2176  0.0786 -0.7514
   79CHL1  H11B 8288   5.648   2.714   7.841 -0.4569  0.6097 -0.2261
   79CHL1    C9 8289   5.823   2.850   7.813  0.3904 -0.0527 -0.4754
   79CHL1    H9 8290   5.763   2.942   7.822 -0.0160 -0.1075 -2.1964
   79CHL1   C10 8291   5.828   2.816   7.661 -0.5982 -0.3688  0.8559
   79CHL1   C19 8292   5.863   2.662   7.650  0.0149 -0.6752 -0.2454
   79CHL1  H19A 8293   5.956   2.655   7.709  1.7263  2.9674 -2.1718
   79CHL1  H19B 8294   5.785   2.601   7.700  2.7340 -3.0797  1.3480
   79CHL1  H19C 8295   5.883   2.617   7.550  0.9174  1.9147 -1.3121
   79CHL1    C1 8296   5.690   2.841   7.605  0.0673  0.0188 -0.5189
   79CHL1   H1A 8297   5.614   2.766   7.637  2.4744 -1.3556  2.4427
   79CHL1   H1B 8298   5.643   2.931   7.650 -0.2973 -1.3170  1.9490
   79CHL1    C2 8299   5.697   2.857   7.448  0.2015  0.1191 -0.1912
   79CHL1   H2A 8300   5.612   2.924   7.423 -1.1660 -0.2809  2.9724
   79CHL1   H2B 8301   5.691   2.756   7.403  1.6667 -0.1286  0.1325
   79CHL1   C20 8302   5.836   2.787   8.372 -0.0340 -0.1514 -0.0410
   79CHL1   H20 8303   5.917   2.712   8.386  0.3238 -0.1165 -1.6836
   79CHL1   C21 8304   5.714   2.700   8.360  1.8074  0.1681  0.6508
   79CHL1  H21A 8305   5.621   2.756   8.335  0.7980 -1.2228  1.1493
   79CHL1  H21B 8306   5.696   2.639   8.451 -0.1341 -1.6995 -0.8733
   79CHL1  H21C 8307   5.721   2.627   8.276  0.7167  3.0490 -2.1394
   79CHL1   C22 8308   5.827   2.881   8.494 -0.0321 -0.1687 -0.6101
   79CHL1  H22A 8309   5.802   2.814   8.579  0.7274  1.0591  0.6140
   79CHL1  H22B 8310   5.926   2.929   8.508  0.1706 -1.2814  2.3316
   79CHL1   C23 8311   5.717   2.996   8.501  0.3816 -0.9249  1.0843
   79CHL1  H23A 8312   5.711   3.040   8.400 -3.8972 -0.0368  1.5234
   79CHL1  H23B 8313   5.622   2.947   8.533 -0.4137 -0.7215 -0.8535
   79CHL1   C24 8314   5.739   3.102   8.610 -0.3795 -0.7374 -0.0044
   79CHL1  H24A 8315   5.838   3.145   8.584 -1.4484  0.9923 -1.4262
   79CHL1  H24B 8316   5.663   3.181   8.625 -0.2920 -0.6087 -0.2389
   79CHL1   C25 8317   5.759   3.040   8.751 -0.0161  0.3027 -0.5837
   79CHL1   H25 8318   5.845   2.971   8.762 -0.7522 -0.3616  1.5401
   79CHL1   C26 8319   5.792   3.156   8.850 -0.4432  0.2146 -0.0283
   79CHL1  H26A 8320   5.868   3.224   8.807 -1.2573  1.3792  0.3222
   79CHL1  H26B 8321   5.708   3.228   8.858  1.1812  2.3623 -1.1965
   79CHL1  H26C 8322   5.806   3.114   8.952 -1.5834 -1.2986 -0.4421
   79CHL1   C27 8323   5.637   2.964   8.803  0.2162  0.1734  0.1167
   79CHL1  H27A 8324   5.605   2.877   8.742 -0.9295  0.8282 -0.2465
   79CHL1  H27B 8325   5.653   2.937   8.910 -0.0087  2.0614  0.6690
   79CHL1  H27C 8326   5.550   3.033   8.805  0.8340  0.9546  1.3177
   80CHL1    C3 8327   4.754   0.163   7.242 -0.4894 -0.3580  0.1205
   80CHL1    H3 8328   4.644   0.147   7.246 -0.3131 -2.5925 -1.6377
   80CHL1    O3 8329   4.771   0.211   7.112 -0.5931  0.1724  0.1641
   80CHL1   H3' 8330   4.865   0.210   7.097 -0.8001  0.4847 -1.4127
   80CHL1    C4 8331   4.806   0.266   7.342 -0.3061 -0.2331 -0.0073
   80CHL1   H4A 8332   4.910   0.293   7.313 -0.2577 -0.6617 -0.2383
   80CHL1   H4B 8333   4.733   0.347   7.322 -1.4330 -0.7131  1.9216
   80CHL1    C5 8334   4.802   0.225   7.489  0.1212  0.1554 -0.0152
   80CHL1    C6 8335   4.736   0.298   7.577 -0.1702  0.0097 -0.5018
   80CHL1    H6 8336   4.702   0.399   7.549  0.3232 -0.1798 -1.8811
   80CHL1    C7 8337   4.739   0.275   7.724 -0.0166  0.0185  0.7135
   80CHL1   H7A 8338   4.788   0.361   7.775  0.0425  0.3754  0.0726
   80CHL1   H7B 8339   4.635   0.260   7.760 -0.6625 -3.7598 -2.1240
   80CHL1    C8 8340   4.826   0.146   7.761  0.5332  0.0867 -0.0042
   80CHL1    H8 8341   4.932   0.179   7.773  1.2992 -1.8066 -1.0706
   80CHL1   C14 8342   4.766   0.082   7.885  0.4428 -0.0800 -0.0350
   80CHL1   H14 8343   4.660   0.057   7.865  0.0408  0.8890  0.8276
   80CHL1   C15 8344   4.758   0.167   8.012  0.3401 -0.0936 -0.2536
   80CHL1  H15A 8345   4.845   0.232   8.037  1.7694 -2.5764  1.6946
   80CHL1  H15B 8346   4.670   0.236   8.017  1.4389  1.3393  4.5852
   80CHL1   C16 8347   4.726   0.073   8.130 -0.1612 -0.2526  0.1795
   80CHL1  H16A 8348   4.798   0.089   8.212  0.3612 -1.5942  0.0108
   80CHL1  H16B 8349   4.621   0.079   8.168 -1.1281 -1.3651 -2.1007
   80CHL1   C17 8350   4.750  -0.068   8.067 -0.0966  0.3304 -0.4123
   80CHL1   H17 8351   4.646  -0.092   8.036  0.0032 -1.6859  0.6614
   80CHL1   C13 8352   4.829  -0.047   7.934 -0.6753 -0.2047 -1.0224
   80CHL1   C18 8353   4.981  -0.012   7.966  0.0083  0.5375  0.3954
   80CHL1  H18A 8354   4.988   0.057   8.053 -0.7851  1.2193 -0.0638
   80CHL1  H18B 8355   5.026  -0.105   8.007 -1.1531  0.6791  2.0965
   80CHL1  H18C 8356   5.050   0.025   7.888  0.8988  0.4709  1.1341
   80CHL1   C12 8357   4.834  -0.146   7.827  0.0942  0.2191 -0.2351
   80CHL1  H12A 8358   4.886  -0.237   7.864 -1.9568 -0.1955  1.8356
   80CHL1  H12B 8359   4.729  -0.177   7.809 -0.2738  1.2375  0.0978
   80CHL1   C11 8360   4.883  -0.092   7.694  0.4170  0.0636 -0.5963
   80CHL1  H11A 8361   4.992  -0.073   7.702  0.0604  1.2721  2.4294
   80CHL1  H11B 8362   4.867  -0.164   7.610  3.2574  1.1826 -2.2479
   80CHL1    C9 8363   4.822   0.042   7.656  0.3546  0.1643 -0.4484
   80CHL1    H9 8364   4.715   0.013   7.656 -0.0439  1.5602 -0.0007
   80CHL1   C10 8365   4.858   0.085   7.511  0.7628 -0.6018 -0.0155
   80CHL1   C19 8366   5.007   0.091   7.502 -0.7525 -0.2703 -0.3296
   80CHL1  H19A 8367   5.051   0.136   7.411  0.1520 -2.0360 -0.8110
   80CHL1  H19B 8368   5.059   0.147   7.582 -0.3325  0.9716 -1.4473
   80CHL1  H19C 8369   5.032  -0.017   7.503 -0.3077 -0.1673  0.3919
   80CHL1    C1 8370   4.799  -0.007   7.403 -0.0854  0.0260  0.9802
   80CHL1   H1A 8371   4.835  -0.112   7.409 -0.7418 -0.4348 -1.6783
   80CHL1   H1B 8372   4.689  -0.015   7.416 -0.2532  0.6746  0.0770
   80CHL1    C2 8373   4.838   0.035   7.266 -0.2418  0.0733  0.3193
   80CHL1   H2A 8374   4.812  -0.048   7.197 -0.9984  0.1283  0.5315
   80CHL1   H2B 8375   4.946   0.056   7.255 -0.2341  0.7401  1.4466
   80CHL1   C20 8376   4.788  -0.174   8.170  0.3903  0.4978 -0.2091
   80CHL1   H20 8377   4.893  -0.161   8.203  1.3260 -1.4942 -2.1492
   80CHL1   C21 8378   4.791  -0.324   8.107 -1.1064  0.7967 -0.5975
   80CHL1  H21A 8379   4.801  -0.408   8.178 -0.1260  0.7367 -0.7929
   80CHL1  H21B 8380   4.880  -0.341   8.044 -0.4210 -0.6490  0.7001
   80CHL1  H21C 8381   4.704  -0.352   8.045 -0.3555 -3.1314 -0.1448
   80CHL1   C22 8382   4.702  -0.167   8.302  0.2357 -0.1639  1.3515
   80CHL1  H22A 8383   4.736  -0.246   8.374 -1.2540 -3.1583 -0.9864
   80CHL1  H22B 8384   4.732  -0.074   8.354  1.4592  0.0903  0.2276
   80CHL1   C23 8385   4.551  -0.198   8.287 -0.6002 -0.7218  0.3209
   80CHL1  H23A 8386   4.515  -0.135   8.203 -0.7707 -2.0024 -0.6108
   80CHL1  H23B 8387   4.529  -0.299   8.245 -2.7606 -0.3478  0.4729
   80CHL1   C24 8388   4.478  -0.176   8.424 -0.5548  0.7210 -0.4907
   80CHL1  H24A 8389   4.522  -0.253   8.491 -1.1079  1.4944  0.8161
   80CHL1  H24B 8390   4.511  -0.076   8.461  1.8732  1.0035 -3.1254
   80CHL1   C25 8391   4.329  -0.203   8.438  0.2776  0.2288  0.0113
   80CHL1   H25 8392   4.300  -0.270   8.354 -1.8456  0.7007  0.3084
   80CHL1   C26 8393   4.302  -0.278   8.575  0.6516 -0.6841  0.3190
   80CHL1  H26A 8394   4.298  -0.203   8.657 -1.0413 -0.3837  0.0097
   80CHL1  H26B 8395   4.208  -0.336   8.564  1.0008 -1.3380  0.7323
   80CHL1  H26C 8396   4.388  -0.345   8.594  1.6660 -0.1090 -1.9573
   80CHL1   C27 8397   4.253  -0.069   8.443  0.1293 -0.3530 -0.3929
   80CHL1  H27A 8398   4.305  -0.001   8.513  0.8252  1.5331 -2.6304
   80CHL1  H27B 8399   4.256  -0.018   8.345  0.3735  0.9613  0.2719
   80CHL1  H27C 8400   4.149  -0.075   8.481  0.8789 -4.2469  1.5883
   81CHL1    C3 8401   3.078   0.012   6.814  0.7190  0.1281  0.4808
   81CHL1    H3 8402   3.137   0.106   6.824 -0.3562  1.0303 -1.0957
   81CHL1    O3 8403   3.075  -0.009   6.674  0.9506  0.1713 -0.4120
   81CHL1   H3' 8404   2.984  -0.035   6.656  1.2400  0.0966 -1.8795
   81CHL1    C4 8405   3.153  -0.093   6.895 -0.7274 -0.0574 -0.0152
   81CHL1   H4A 8406   3.108  -0.192   6.873 -0.4489 -0.0389 -0.6981
   81CHL1   H4B 8407   3.253  -0.096   6.845 -0.2528 -0.7756  0.9335
   81CHL1    C5 8408   3.159  -0.073   7.044  0.7244 -0.7323  0.0055
   81CHL1    C6 8409   3.273  -0.075   7.109 -0.1252  0.2186 -0.2817
   81CHL1    H6 8410   3.365  -0.092   7.050 -1.7263  2.4701 -3.7381
   81CHL1    C7 8411   3.282  -0.056   7.258 -0.3181  0.2782 -0.1721
   81CHL1   H7A 8412   3.347  -0.137   7.296  1.0662  0.5361 -1.8854
   81CHL1   H7B 8413   3.322   0.045   7.283  1.9992 -1.2563  2.9037
   81CHL1    C8 8414   3.144  -0.044   7.338  0.1328  0.6952 -0.1208
   81CHL1    H8 8415   3.104  -0.146   7.354 -0.9250  1.1633  0.3025
   81CHL1   C14 8416   3.158   0.032   7.471  0.2677  0.0493  0.0275
   81CHL1   H14 8417   3.189   0.132   7.433 -0.8460 -0.1176 -1.3705
   81CHL1   C15 8418   3.275  -0.016   7.563 -0.0923  0.2076  0.1638
   81CHL1  H15A 8419   3.272  -0.126   7.572  2.6855  0.1629  1.7165
   81CHL1  H15B 8420   3.369   0.006   7.509  0.7485 -2.1075  0.5709
   81CHL1   C16 8421   3.238   0.040   7.702 -0.0772 -0.2920  0.2667
   81CHL1  H16A 8422   3.230  -0.048   7.769 -1.7931  0.2230  0.7896
   81CHL1  H16B 8423   3.317   0.106   7.745  0.4179  0.9873 -2.4115
   81CHL1   C17 8424   3.102   0.119   7.678 -0.3650 -0.0444 -0.0774
   81CHL1   H17 8425   3.135   0.220   7.647  4.5289 -1.5320 -0.5400
   81CHL1   C13 8426   3.041   0.051   7.557 -0.0158 -0.0789  0.2481
   81CHL1   C18 8427   2.985  -0.084   7.608  0.0167 -0.4033  0.1607
   81CHL1  H18A 8428   2.900  -0.074   7.678  1.2194 -0.8055  1.7324
   81CHL1  H18B 8429   2.945  -0.132   7.516  0.7196  2.4678 -1.7807
   81CHL1  H18C 8430   3.065  -0.151   7.648  0.3715 -1.3409 -1.9630
   81CHL1   C12 8431   2.934   0.124   7.480 -0.1444 -0.4517  0.3665
   81CHL1  H12A 8432   2.841   0.117   7.540 -0.2052 -1.9063  0.1306
   81CHL1  H12B 8433   2.955   0.233   7.476 -1.1429 -0.2910 -1.6963
   81CHL1   C11 8434   2.919   0.060   7.337 -0.0512  0.2704 -0.0074
   81CHL1  H11A 8435   2.865  -0.035   7.361 -1.7298  1.1791 -0.0617
   81CHL1  H11B 8436   2.843   0.120   7.283  1.8234  1.7627 -1.0794
   81CHL1    C9 8437   3.046   0.032   7.255 -0.2731 -0.1608  0.0239
   81CHL1    H9 8438   3.085   0.134   7.234 -2.5486  1.0041  1.0734
   81CHL1   C10 8439   3.020  -0.033   7.112  0.6574  0.7488  0.2514
   81CHL1   C19 8440   2.937  -0.167   7.132 -0.2656  0.7087 -0.4087
   81CHL1  H19A 8441   3.002  -0.234   7.192 -2.4242 -0.7101  0.4629
   81CHL1  H19B 8442   2.845  -0.142   7.190 -1.1737 -0.4697 -1.2896
   81CHL1  H19C 8443   2.924  -0.214   7.032  0.7434  1.1480 -0.7576
   81CHL1    C1 8444   2.947   0.063   7.014  0.3318 -0.3899 -0.0534
   81CHL1   H1A 8445   2.843   0.078   7.052 -0.1479  0.7233 -1.7063
   81CHL1   H1B 8446   2.992   0.165   7.015 -0.0334 -0.0956  3.7501
   81CHL1    C2 8447   2.936   0.019   6.868 -0.4301 -0.8017  0.7512
   81CHL1   H2A 8448   2.878   0.100   6.819  2.7077 -0.5193 -2.9757
   81CHL1   H2B 8449   2.875  -0.070   6.843 -0.8065  0.1159 -1.9966
   81CHL1   C20 8450   3.019   0.140   7.808  1.1606  0.6657  0.3957
   81CHL1   H20 8451   3.002   0.038   7.847  1.4273 -0.5989 -2.4923
   81CHL1   C21 8452   2.888   0.216   7.790  0.0155  0.0969  0.3485
   81CHL1  H21A 8453   2.837   0.225   7.888 -1.4719 -2.3343 -0.1282
   81CHL1  H21B 8454   2.807   0.167   7.733 -1.3960  1.1232  1.3990
   81CHL1  H21C 8455   2.908   0.324   7.772 -2.5032  1.0211  2.5027
   81CHL1   C22 8456   3.102   0.206   7.925 -0.1128  0.2552  0.0324
   81CHL1  H22A 8457   3.206   0.169   7.935 -0.8331 -2.0936 -0.4375
   81CHL1  H22B 8458   3.109   0.315   7.904 -1.8175  0.3179 -0.3696
   81CHL1   C23 8459   3.033   0.200   8.067 -0.8913 -0.9146  0.6703
   81CHL1  H23A 8460   2.960   0.284   8.077 -0.0092  0.0527 -0.6557
   81CHL1  H23B 8461   2.980   0.104   8.086 -0.6051 -1.1448  0.3083
   81CHL1   C24 8462   3.137   0.208   8.186  0.2223 -0.4443  0.0622
   81CHL1  H24A 8463   3.211   0.129   8.210  2.4238  1.0288 -1.4568
   81CHL1  H24B 8464   3.205   0.289   8.151 -0.8166  1.0777  1.4044
   81CHL1   C25 8465   3.066   0.262   8.306 -0.2155  0.7868 -0.2852
   81CHL1   H25 8466   2.984   0.335   8.285  0.0493  0.6448 -1.9367
   81CHL1   C26 8467   2.999   0.146   8.383  1.0296 -0.4110 -0.2187
   81CHL1  H26A 8468   2.923   0.090   8.324  0.7441 -0.1895 -0.0621
   81CHL1  H26B 8469   3.072   0.068   8.412  2.2551  1.1480  1.0815
   81CHL1  H26C 8470   2.943   0.190   8.468  0.3031  0.2679 -1.0230
   81CHL1   C27 8471   3.161   0.336   8.409 -0.5563  0.1672  0.1764
   81CHL1  H27A 8472   3.255   0.277   8.420 -1.8897 -2.1239 -0.0578
   81CHL1  H27B 8473   3.182   0.439   8.373 -1.5415  0.7814  1.2776
   81CHL1  H27C 8474   3.100   0.359   8.499 -0.2026  0.8995  0.2388
   82CHL1    C3 8475   2.206   1.744   7.367 -0.2974 -1.0168 -1.0772
   82CHL1    H3 8476   2.238   1.638   7.376  2.0561 -0.5436 -2.8600
   82CHL1    O3 8477   2.228   1.785   7.234  0.3410 -0.7426 -0.8427
   82CHL1   H3' 8478   2.323   1.791   7.232  0.5144 -1.8631  1.3248
   82CHL1    C4 8479   2.058   1.765   7.399 -0.2006 -0.0750  0.0296
   82CHL1   H4A 8480   2.046   1.875   7.393  2.4904  0.4133  1.7754
   82CHL1   H4B 8481   2.017   1.709   7.312  1.9505 -1.5389 -0.1322
   82CHL1    C5 8482   2.023   1.733   7.543  0.6244  0.1472  0.7285
   82CHL1    C6 8483   1.921   1.649   7.568 -0.4608  0.1802  0.0989
   82CHL1    H6 8484   1.860   1.607   7.486 -0.2226  4.0889 -2.3391
   82CHL1    C7 8485   1.873   1.605   7.704 -0.2626  0.6069  0.6114
   82CHL1   H7A 8486   1.766   1.632   7.717 -0.6428  0.8542 -2.3326
   82CHL1   H7B 8487   1.883   1.495   7.718  1.3636  0.8152  1.3207
   82CHL1    C8 8488   1.949   1.675   7.815  0.1109 -0.1465 -1.5637
   82CHL1    H8 8489   1.909   1.777   7.834  1.7025  0.3183 -0.4841
   82CHL1   C14 8490   1.932   1.603   7.953 -0.4669  0.4375 -1.0287
   82CHL1   H14 8491   1.982   1.505   7.937 -0.7667 -0.5670  3.1304
   82CHL1   C15 8492   1.791   1.565   7.994  0.2007 -0.0180  0.4633
   82CHL1  H15A 8493   1.716   1.645   7.978  0.4397  0.7090  2.6649
   82CHL1  H15B 8494   1.758   1.468   7.951 -2.3607  0.5616  1.0007
   82CHL1   C16 8495   1.802   1.543   8.142 -0.6412 -0.4432  0.6891
   82CHL1  H16A 8496   1.750   1.619   8.205  0.8701  1.7828 -0.5902
   82CHL1  H16B 8497   1.763   1.443   8.168 -1.0293 -0.6659 -0.6891
   82CHL1   C17 8498   1.954   1.565   8.185 -0.2274  0.5638  0.6158
   82CHL1   H17 8499   2.013   1.471   8.172  0.3899  0.0536  5.2537
   82CHL1   C13 8500   2.003   1.664   8.073 -0.0823 -0.5716  0.1697
   82CHL1   C18 8501   1.964   1.809   8.100 -0.0557 -0.1134  0.1730
   82CHL1  H18A 8502   1.858   1.814   8.132  0.0214  1.0261  0.2669
   82CHL1  H18B 8503   2.021   1.851   8.185  1.4239 -1.5717 -0.0401
   82CHL1  H18C 8504   1.968   1.876   8.012 -0.5975 -1.8058 -1.1994
   82CHL1   C12 8505   2.155   1.660   8.035  0.2010 -0.8799 -0.2098
   82CHL1  H12A 8506   2.208   1.713   8.117 -1.0088 -1.1878  0.8076
   82CHL1  H12B 8507   2.179   1.553   8.013 -0.3583 -0.5248 -2.9070
   82CHL1   C11 8508   2.173   1.747   7.906 -0.2390  0.4909  0.4341
   82CHL1  H11A 8509   2.145   1.851   7.930  0.7128  0.9412 -0.3388
   82CHL1  H11B 8510   2.282   1.737   7.888 -0.1764 -0.6170  1.2771
   82CHL1    C9 8511   2.097   1.693   7.778  0.5665 -0.3126  0.3827
   82CHL1    H9 8512   2.142   1.594   7.756 -0.5186 -0.6106 -0.6587
   82CHL1   C10 8513   2.122   1.781   7.652  0.8091  0.1543 -0.3012
   82CHL1   C19 8514   2.066   1.923   7.673 -0.5922 -0.5219 -0.0595
   82CHL1  H19A 8515   2.085   1.993   7.588 -0.3773 -1.9019 -1.1846
   82CHL1  H19B 8516   1.955   1.926   7.685 -0.6420  2.5738 -0.3413
   82CHL1  H19C 8517   2.107   1.969   7.765 -2.6478  1.3335  0.0245
   82CHL1    C1 8518   2.263   1.776   7.612  0.1164 -0.4414 -0.2030
   82CHL1   H1A 8519   2.307   1.846   7.687 -0.4783  2.4882 -2.4156
   82CHL1   H1B 8520   2.307   1.674   7.607 -1.1819 -0.9698 -1.7009
   82CHL1    C2 8521   2.289   1.828   7.468 -0.5057  1.0186  0.2349
   82CHL1   H2A 8522   2.399   1.823   7.458 -0.5064 -0.7568  0.8588
   82CHL1   H2B 8523   2.258   1.933   7.446 -3.3350  0.2796  0.3374
   82CHL1   C20 8524   1.974   1.593   8.331  0.3587 -0.1055  0.1123
   82CHL1   H20 8525   1.934   1.694   8.356  1.1104  0.6505 -1.6231
   82CHL1   C21 8526   2.119   1.584   8.362  1.0609 -1.5945  0.7713
   82CHL1  H21A 8527   2.176   1.494   8.331  2.1774 -0.2929 -1.1870
   82CHL1  H21B 8528   2.137   1.591   8.471  2.9698 -1.3188  0.4759
   82CHL1  H21C 8529   2.164   1.676   8.318  1.2249 -0.4952  3.0960
   82CHL1   C22 8530   1.892   1.489   8.415 -0.3189 -0.0423  0.0675
   82CHL1  H22A 8531   1.783   1.513   8.417 -0.4314 -0.5728  0.5405
   82CHL1  H22B 8532   1.895   1.383   8.383 -1.2448 -0.4653  1.3095
   82CHL1   C23 8533   1.942   1.483   8.558 -0.6406 -0.4931 -0.3111
   82CHL1  H23A 8534   2.045   1.442   8.564 -0.5540 -0.4476 -1.2868
   82CHL1  H23B 8535   1.958   1.582   8.605  0.4731 -1.7111  2.0581
   82CHL1   C24 8536   1.857   1.402   8.657 -0.2799 -0.7670  0.4616
   82CHL1  H24A 8537   1.869   1.435   8.762 -1.6400  0.6608  0.2027
   82CHL1  H24B 8538   1.754   1.440   8.643  0.3536  0.9284  0.1793
   82CHL1   C25 8539   1.874   1.247   8.652 -0.0696  0.1726  0.5587
   82CHL1   H25 8540   1.857   1.215   8.547  2.9418  1.6432 -0.4688
   82CHL1   C26 8541   2.019   1.214   8.695  0.2965  0.0007 -0.1981
   82CHL1  H26A 8542   2.090   1.203   8.610  1.5466 -1.4514  0.9666
   82CHL1  H26B 8543   2.050   1.304   8.752 -2.6193  1.6223 -0.9924
   82CHL1  H26C 8544   2.012   1.121   8.755 -1.7490  0.0956 -0.2267
   82CHL1   C27 8545   1.773   1.187   8.747 -0.0782 -0.2789  0.3038
   82CHL1  H27A 8546   1.673   1.196   8.699 -0.9028 -0.7404  1.8660
   82CHL1  H27B 8547   1.795   1.080   8.772 -0.6246  0.1926  3.0858
   82CHL1  H27C 8548   1.782   1.243   8.842  0.1846 -1.0905  0.7722
   83CHL1    C3 8549   6.077   1.738   7.062  0.2911  0.0190  0.2135
   83CHL1    H3 8550   6.145   1.651   7.073  0.7426  0.4406  0.7766
   83CHL1    O3 8551   6.050   1.749   6.923  0.2560  0.0128  0.4105
   83CHL1   H3' 8552   5.963   1.788   6.915 -0.4061 -1.5070 -0.1645
   83CHL1    C4 8553   5.952   1.712   7.150 -0.0410  0.9212 -0.1965
   83CHL1   H4A 8554   5.881   1.795   7.132  0.6291  1.4428 -0.4480
   83CHL1   H4B 8555   5.896   1.623   7.114 -0.9385  0.6840  1.6296
   83CHL1    C5 8556   5.982   1.704   7.303 -0.1580 -0.1548 -0.3227
   83CHL1    C6 8557   5.937   1.606   7.377 -0.0864  0.0817  0.3001
   83CHL1    H6 8558   5.886   1.521   7.330  0.1310 -0.5338  1.1470
   83CHL1    C7 8559   5.938   1.599   7.525  0.2350  0.7948 -0.5876
   83CHL1   H7A 8560   5.839   1.566   7.564  0.8568 -2.5664 -1.4979
   83CHL1   H7B 8561   6.008   1.519   7.557 -0.9241 -0.7954 -1.8115
   83CHL1    C8 8562   5.979   1.738   7.583  0.6260  0.0252  0.3275
   83CHL1    H8 8563   5.899   1.815   7.586  2.2803  1.8373  0.1920
   83CHL1   C14 8564   6.020   1.708   7.733  0.1863 -0.0991  0.0772
   83CHL1   H14 8565   6.107   1.640   7.721  0.6186  0.7507 -1.9849
   83CHL1   C15 8566   5.923   1.639   7.825 -0.4438 -0.1645  0.0017
   83CHL1  H15A 8567   5.826   1.694   7.825  0.9340  2.4688  1.5225
   83CHL1  H15B 8568   5.898   1.532   7.810  2.1699 -1.2435  2.5510
   83CHL1   C16 8569   5.976   1.654   7.968  0.6294  0.3657 -0.2873
   83CHL1  H16A 8570   5.898   1.696   8.035  1.1578 -0.5207  0.9309
   83CHL1  H16B 8571   6.014   1.558   8.010  0.6855  0.4009 -0.2577
   83CHL1   C17 8572   6.096   1.754   7.953  0.2576  0.4607 -0.0293
   83CHL1   H17 8573   6.181   1.683   7.947 -0.1760 -0.2598  1.8130
   83CHL1   C13 8574   6.069   1.823   7.811  0.3425  0.2664 -0.3155
   83CHL1   C18 8575   5.952   1.927   7.833  0.1732 -0.2289  0.0697
   83CHL1  H18A 8576   5.908   1.953   7.734  1.2908  1.8626  0.0521
   83CHL1  H18B 8577   5.869   1.890   7.896 -1.4834  1.4958 -0.9745
   83CHL1  H18C 8578   5.996   2.015   7.884  0.8677  0.8384 -2.2343
   83CHL1   C12 8579   6.187   1.885   7.743 -0.4503 -0.2488 -0.4952
   83CHL1  H12A 8580   6.212   1.984   7.786  0.0950 -0.7978  0.4745
   83CHL1  H12B 8581   6.272   1.816   7.760 -0.4194 -0.0515  0.1753
   83CHL1   C11 8582   6.164   1.914   7.597 -0.8656 -0.2384  0.5446
   83CHL1  H11A 8583   6.101   2.005   7.601  3.3654  3.0062  1.0903
   83CHL1  H11B 8584   6.253   1.935   7.534 -0.7391 -0.8380  0.5151
   83CHL1    C9 8585   6.103   1.798   7.509  0.1981  0.0533  0.2491
   83CHL1    H9 8586   6.182   1.722   7.496  0.8142  0.6908  0.1841
   83CHL1   C10 8587   6.055   1.828   7.364  0.5856 -0.5412 -0.0997
   83CHL1   C19 8588   5.972   1.952   7.363  0.9889  0.3534  0.1090
   83CHL1  H19A 8589   5.939   1.969   7.258 -0.7897  1.0851  0.7469
   83CHL1  H19B 8590   5.881   1.946   7.427  1.1445 -2.2904  0.1959
   83CHL1  H19C 8591   6.031   2.037   7.402  0.7924 -0.7680  3.2003
   83CHL1    C1 8592   6.179   1.851   7.266 -0.6576 -0.0400  0.1584
   83CHL1   H1A 8593   6.216   1.955   7.279 -0.6631 -0.1409  1.0453
   83CHL1   H1B 8594   6.261   1.785   7.300 -2.3878 -2.2990  0.2263
   83CHL1    C2 8595   6.158   1.855   7.116  0.1302 -0.9255  0.6600
   83CHL1   H2A 8596   6.256   1.872   7.066  0.9041 -1.0040  2.0801
   83CHL1   H2B 8597   6.103   1.947   7.086  0.0374 -1.7512 -1.9531
   83CHL1   C20 8598   6.128   1.838   8.072 -0.2161  0.8727 -0.3955
   83CHL1   H20 8599   6.035   1.893   8.101  1.0271  2.4588  0.7755
   83CHL1   C21 8600   6.250   1.926   8.057  0.1028  0.2125  0.1608
   83CHL1  H21A 8601   6.233   2.033   8.033  2.2222  0.5853  0.1284
   83CHL1  H21B 8602   6.326   1.878   7.992 -0.6004  1.8286 -1.9788
   83CHL1  H21C 8603   6.294   1.933   8.159  1.4825  0.2395 -0.4144
   83CHL1   C22 8604   6.146   1.750   8.202  1.3711  0.1325  0.1260
   83CHL1  H22A 8605   6.084   1.658   8.197  0.8637  0.5364 -2.7639
   83CHL1  H22B 8606   6.255   1.729   8.208  1.8943  1.6308 -2.6782
   83CHL1   C23 8607   6.106   1.825   8.334 -0.4006 -1.1287 -0.4656
   83CHL1  H23A 8608   6.180   1.907   8.344 -0.7446 -0.6681 -1.4841
   83CHL1  H23B 8609   6.014   1.886   8.320  0.2626 -0.1383 -0.5661
   83CHL1   C24 8610   6.105   1.738   8.457  0.4915 -0.0199 -0.7825
   83CHL1  H24A 8611   6.038   1.653   8.431  1.3942 -0.6944 -0.9405
   83CHL1  H24B 8612   6.200   1.686   8.480  0.1538  0.2513  1.4345
   83CHL1   C25 8613   6.045   1.812   8.575  0.3705  0.5961  0.1653
   83CHL1   H25 8614   5.944   1.848   8.547  0.1168  0.9571  1.4740
   83CHL1   C26 8615   6.025   1.706   8.692  0.2877 -0.3681  0.2750
   83CHL1  H26A 8616   6.125   1.677   8.731 -0.2638 -1.2300  1.1011
   83CHL1  H26B 8617   5.965   1.748   8.776 -0.9682  0.6265 -1.0628
   83CHL1  H26C 8618   5.983   1.610   8.657  2.3390 -1.4733  0.6737
   83CHL1   C27 8619   6.134   1.928   8.608  0.4464  0.3456 -0.8122
   83CHL1  H27A 8620   6.156   1.999   8.526  0.1790  1.0839 -0.2504
   83CHL1  H27B 8621   6.078   1.996   8.676  0.3686 -1.1093  0.6552
   83CHL1  H27C 8622   6.225   1.890   8.661 -0.8218  1.6967  2.6536
   84CHL1    C3 8623   1.138   3.175   6.931 -0.9789 -0.2667  0.0963
   84CHL1    H3 8624   1.109   3.275   6.970  2.0162  0.6831  0.1453
   84CHL1    O3 8625   1.134   3.181   6.788 -0.3106 -0.3636  0.3943
   84CHL1   H3' 8626   1.222   3.185   6.752 -1.5325  0.1040 -2.8888
   84CHL1    C4 8627   1.285   3.151   6.981  0.7370  0.3220  0.1861
   84CHL1   H4A 8628   1.311   3.052   6.936  0.3385  0.5521 -0.5618
   84CHL1   H4B 8629   1.359   3.225   6.944  0.2982  0.3767 -0.5917
   84CHL1    C5 8630   1.287   3.142   7.136 -0.1961 -0.0673 -0.1031
   84CHL1    C6 8631   1.371   3.220   7.210 -0.0233  0.5345 -0.1491
   84CHL1    H6 8632   1.445   3.293   7.173  0.3102  1.2243  1.7798
   84CHL1    C7 8633   1.383   3.222   7.356  0.2228 -0.6997 -0.6397
   84CHL1   H7A 8634   1.486   3.233   7.397  0.3222  6.3937 -1.5345
   84CHL1   H7B 8635   1.336   3.311   7.403 -0.0427 -1.6642  1.0343
   84CHL1    C8 8636   1.312   3.099   7.420 -0.2717  0.0829  0.1446
   84CHL1    H8 8637   1.380   3.011   7.409  0.5096  0.5776  0.8288
   84CHL1   C14 8638   1.287   3.111   7.573  0.9425  0.2359  1.2195
   84CHL1   H14 8639   1.218   3.197   7.581 -0.3066 -0.4080 -1.4344
   84CHL1   C15 8640   1.404   3.158   7.659 -0.6271 -0.0636 -1.0568
   84CHL1  H15A 8641   1.502   3.111   7.634 -1.2499 -2.9266  1.2445
   84CHL1  H15B 8642   1.428   3.266   7.656 -0.5818  0.1774  2.9073
   84CHL1   C16 8643   1.362   3.126   7.805 -0.1002 -0.2151 -0.9098
   84CHL1  H16A 8644   1.443   3.056   7.834  0.1674  0.9440  1.3567
   84CHL1  H16B 8645   1.364   3.215   7.871  0.9425 -1.8815  1.4420
   84CHL1   C17 8646   1.224   3.051   7.793 -0.3520 -1.1927 -0.1117
   84CHL1   H17 8647   1.146   3.130   7.793  0.3600 -0.4760  0.5865
   84CHL1   C13 8648   1.228   2.994   7.645 -0.5972 -1.4687 -0.5873
   84CHL1   C18 8649   1.326   2.873   7.639 -0.1386  0.4105 -0.1203
   84CHL1  H18A 8650   1.429   2.888   7.678  1.2474 -1.1516 -2.8481
   84CHL1  H18B 8651   1.280   2.781   7.681  1.0726 -0.7991 -1.3177
   84CHL1  H18C 8652   1.347   2.853   7.531 -0.6264 -1.0310  0.0316
   84CHL1   C12 8653   1.098   2.960   7.583  0.4690 -0.3201 -0.0512
   84CHL1  H12A 8654   1.057   2.861   7.612 -0.4021 -0.2776 -1.0654
   84CHL1  H12B 8655   1.023   3.039   7.601  0.2111 -0.6948  0.5599
   84CHL1   C11 8656   1.112   2.947   7.428 -0.8499 -0.3885 -0.0141
   84CHL1  H11A 8657   1.164   2.851   7.411 -0.6703 -0.3987  0.5527
   84CHL1  H11B 8658   1.008   2.942   7.389 -0.3931  4.2367 -2.6041
   84CHL1    C9 8659   1.175   3.070   7.360 -0.0257  0.5661 -0.2546
   84CHL1    H9 8660   1.119   3.164   7.376 -2.6873 -0.7444 -1.1929
   84CHL1   C10 8661   1.184   3.048   7.203  0.1725  0.3522 -0.3619
   84CHL1   C19 8662   1.241   2.906   7.164 -0.1182 -0.7599  0.0076
   84CHL1  H19A 8663   1.340   2.888   7.211 -0.8034  1.2154  2.4012
   84CHL1  H19B 8664   1.172   2.833   7.212  1.2530 -0.8058  1.9834
   84CHL1  H19C 8665   1.239   2.899   7.053  0.6386  2.3545 -0.2879
   84CHL1    C1 8666   1.044   3.066   7.131 -0.5102 -0.6596 -0.3792
   84CHL1   H1A 8667   0.990   2.979   7.174 -1.2230  0.0651  0.2076
   84CHL1   H1B 8668   0.998   3.160   7.167 -2.0362 -1.6331  0.3537
   84CHL1    C2 8669   1.048   3.065   6.980 -0.3476  0.0566  0.2818
   84CHL1   H2A 8670   0.950   3.098   6.939 -0.6319  0.4060  1.1958
   84CHL1   H2B 8671   1.071   2.966   6.935  1.8132  1.1940 -1.2864
   84CHL1   C20 8672   1.197   2.965   7.904 -0.5482  0.7883 -0.4552
   84CHL1   H20 8673   1.264   2.876   7.897 -0.5625  0.3688  2.8325
   84CHL1   C21 8674   1.048   2.912   7.890  0.0208  0.1728 -0.2043
   84CHL1  H21A 8675   0.977   2.989   7.854 -0.7335 -0.8115 -0.8656
   84CHL1  H21B 8676   1.006   2.866   7.982 -0.4073  0.0635 -0.4509
   84CHL1  H21C 8677   1.041   2.822   7.825  3.3441 -0.7276  0.4896
   84CHL1   C22 8678   1.227   3.037   8.045  0.5661 -0.6741 -0.3280
   84CHL1  H22A 8679   1.338   3.041   8.056  0.5256  0.7036 -0.2396
   84CHL1  H22B 8680   1.213   3.146   8.029  0.2954 -0.3073  2.1121
   84CHL1   C23 8681   1.162   2.986   8.173  0.0579  0.5829 -0.1492
   84CHL1  H23A 8682   1.054   3.011   8.170 -0.4624 -0.9027  2.9271
   84CHL1  H23B 8683   1.155   2.877   8.157 -1.3198  0.7449 -0.8358
   84CHL1   C24 8684   1.217   3.042   8.297 -0.7285  0.2244 -0.0767
   84CHL1  H24A 8685   1.326   3.020   8.288 -0.9106 -1.5399  1.4356
   84CHL1  H24B 8686   1.193   3.151   8.299  1.3447  0.7181  0.3149
   84CHL1   C25 8687   1.168   2.980   8.426 -0.1239 -0.4053  0.5023
   84CHL1   H25 8688   1.193   2.873   8.410 -0.1770 -0.3345 -0.1140
   84CHL1   C26 8689   1.254   3.035   8.538  0.1287 -0.0076 -0.9397
   84CHL1  H26A 8690   1.229   2.996   8.639  0.7191  0.4845 -0.5912
   84CHL1  H26B 8691   1.363   3.020   8.522  0.5147  1.6611 -0.0806
   84CHL1  H26C 8692   1.227   3.141   8.555 -0.5597 -0.3405  0.1306
   84CHL1   C27 8693   1.011   2.996   8.437  0.0000 -0.6647 -0.4095
   84CHL1  H27A 8694   0.956   2.919   8.378 -1.2960  0.4996 -0.7870
   84CHL1  H27B 8695   1.001   2.987   8.547  3.0781  2.0304  0.2287
   84CHL1  H27C 8696   0.978   3.101   8.420  1.7421  0.2093  1.2324
   85CHL1    C3 8697   0.485   2.625   6.930  0.1737 -0.0028 -0.0046
   85CHL1    H3 8698   0.540   2.706   6.985 -0.4214 -1.2287  2.5666
   85CHL1    O3 8699   0.523   2.640   6.794  0.2747  0.7063 -0.4262
   85CHL1   H3' 8700   0.507   2.551   6.761  1.2096  0.7080 -0.9202
   85CHL1    C4 8701   0.535   2.497   6.994  0.2841 -0.3297 -0.0852
   85CHL1   H4A 8702   0.481   2.416   6.942  0.9073 -0.1695 -0.9978
   85CHL1   H4B 8703   0.645   2.481   6.985  0.4280 -2.4111  3.4745
   85CHL1    C5 8704   0.490   2.490   7.138 -0.3303 -0.0463  0.3677
   85CHL1    C6 8705   0.585   2.491   7.238  0.4058 -1.1937 -0.2786
   85CHL1    H6 8706   0.693   2.488   7.216  0.8477 -1.3303  1.7292
   85CHL1    C7 8707   0.561   2.496   7.389  0.4721 -0.5316  0.2544
   85CHL1   H7A 8708   0.624   2.422   7.444 -0.9637 -1.1433  1.1545
   85CHL1   H7B 8709   0.591   2.598   7.420  2.7404 -1.4342  1.2571
   85CHL1    C8 8710   0.411   2.464   7.418 -0.2374 -0.4956 -0.3508
   85CHL1    H8 8711   0.405   2.353   7.417  1.0951 -0.5937 -2.3793
   85CHL1   C14 8712   0.379   2.521   7.553 -0.4485 -0.6146  0.7427
   85CHL1   H14 8713   0.386   2.632   7.541  2.0222 -0.7523  0.4270
   85CHL1   C15 8714   0.472   2.511   7.667  0.3483 -0.4890 -0.4708
   85CHL1  H15A 8715   0.507   2.405   7.671  1.2007 -0.2450 -1.2552
   85CHL1  H15B 8716   0.552   2.586   7.648 -0.4231  0.5527  0.2974
   85CHL1   C16 8717   0.389   2.548   7.792 -0.1715 -0.5890  0.3239
   85CHL1  H16A 8718   0.385   2.469   7.870 -0.7237 -1.2286 -0.3434
   85CHL1  H16B 8719   0.423   2.645   7.835 -1.5837  0.3205 -0.5386
   85CHL1   C17 8720   0.246   2.571   7.745 -1.0072 -1.0807  0.2171
   85CHL1   H17 8721   0.232   2.677   7.713 -1.3304 -1.1803  0.0200
   85CHL1   C13 8722   0.233   2.500   7.604  0.7130  0.1166  0.4960
   85CHL1   C18 8723   0.207   2.349   7.632  0.5811 -0.7840  0.7589
   85CHL1  H18A 8724   0.210   2.283   7.543  0.6120 -0.5106  0.5562
   85CHL1  H18B 8725   0.301   2.309   7.678  2.8365  0.7164 -2.2121
   85CHL1  H18C 8726   0.115   2.328   7.690 -1.5372  2.0354 -1.3447
   85CHL1   C12 8727   0.132   2.558   7.508  0.9626  0.2150 -0.5505
   85CHL1  H12A 8728   0.028   2.531   7.535  0.9338 -0.7064 -1.5291
   85CHL1  H12B 8729   0.114   2.668   7.515 -3.0265 -0.4005  1.8600
   85CHL1   C11 8730   0.162   2.504   7.364  0.1123 -0.0491 -0.4599
   85CHL1  H11A 8731   0.131   2.398   7.362 -3.1393  0.8118 -0.4808
   85CHL1  H11B 8732   0.084   2.549   7.300 -0.4266  0.6805  0.6747
   85CHL1    C9 8733   0.314   2.526   7.316  0.6253 -0.0707  0.8895
   85CHL1    H9 8734   0.330   2.636   7.326  1.0801  0.1820 -1.8602
   85CHL1   C10 8735   0.345   2.502   7.168 -0.2613  0.0138 -0.1734
   85CHL1   C19 8736   0.275   2.374   7.119  0.7651  0.1119  0.4555
   85CHL1  H19A 8737   0.304   2.333   7.020 -2.7446 -1.7141  0.0376
   85CHL1  H19B 8738   0.294   2.289   7.188  0.2033 -0.6756 -0.3434
   85CHL1  H19C 8739   0.168   2.401   7.112  0.5532 -0.5936  0.8392
   85CHL1    C1 8740   0.283   2.627   7.087  0.2109 -0.6440 -0.6351
   85CHL1   H1A 8741   0.173   2.623   7.104  0.0711  1.2054 -0.8977
   85CHL1   H1B 8742   0.323   2.721   7.129 -1.1414 -0.8148  1.1935
   85CHL1    C2 8743   0.330   2.639   6.938 -0.0489 -0.3265  0.7153
   85CHL1   H2A 8744   0.286   2.729   6.890  0.5488 -0.5664 -0.3052
   85CHL1   H2B 8745   0.293   2.554   6.877 -0.1082  0.3191 -0.1722
   85CHL1   C20 8746   0.141   2.557   7.859 -0.2029 -0.6079  0.3356
   85CHL1   H20 8747   0.130   2.447   7.871  0.3997 -0.7465 -0.3046
   85CHL1   C21 8748   0.009   2.612   7.807 -0.7629  0.1791  0.0348
   85CHL1  H21A 8749  -0.030   2.552   7.722 -1.2642  1.3676 -0.6110
   85CHL1  H21B 8750   0.021   2.713   7.761 -3.1676  0.6642  0.3347
   85CHL1  H21C 8751  -0.067   2.615   7.887  0.9468  0.9710  1.7033
   85CHL1   C22 8752   0.183   2.632   7.987 -0.7839  1.0801  0.5120
   85CHL1  H22A 8753   0.276   2.589   8.031 -1.6625  0.2283  1.6048
   85CHL1  H22B 8754   0.200   2.741   7.977  1.0278  0.9420  1.6778
   85CHL1   C23 8755   0.088   2.616   8.102  0.6264  0.6966  0.4756
   85CHL1  H23A 8756  -0.010   2.663   8.076  0.2391 -0.8149 -1.0196
   85CHL1  H23B 8757   0.083   2.508   8.124 -1.2165  0.6397 -0.0535
   85CHL1   C24 8758   0.135   2.696   8.221  0.1161 -0.4561  0.3679
   85CHL1  H24A 8759   0.233   2.658   8.255  0.3723 -0.4023 -0.2805
   85CHL1  H24B 8760   0.150   2.800   8.185  0.4470 -0.7212 -0.2865
   85CHL1   C25 8761   0.026   2.690   8.331  0.1550  0.2512 -0.9982
   85CHL1   H25 8762   0.002   2.584   8.354  2.7968 -0.0287  0.8645
   85CHL1   C26 8763   0.080   2.741   8.462  0.0685 -0.3080 -0.1147
   85CHL1  H26A 8764   0.113   2.846   8.448  0.4803 -0.6920 -2.4279
   85CHL1  H26B 8765   0.003   2.722   8.540 -0.9217  2.9884 -0.1447
   85CHL1  H26C 8766   0.176   2.689   8.484 -0.7169 -1.1238  1.5594
   85CHL1   C27 8767  -0.098   2.775   8.300 -0.0021 -0.6972  0.3362
   85CHL1  H27A 8768  -0.067   2.880   8.282  1.8820 -1.3732 -0.5647
   85CHL1  H27B 8769  -0.149   2.739   8.208  0.8987  1.2022 -0.9920
   85CHL1  H27C 8770  -0.174   2.778   8.381  1.1089 -0.9996  1.4041
   86CHL1    C3 8771   2.837   6.077   7.162 -0.4412  0.0625  0.1577
   86CHL1    H3 8772   2.927   6.020   7.196 -1.3298  0.3298  3.2517
   86CHL1    O3 8773   2.829   6.083   7.019  0.1156 -0.0603  0.4043
   86CHL1   H3' 8774   2.890   6.155   7.001 -0.4847  0.4362  0.3179
   86CHL1    C4 8775   2.727   5.993   7.224 -0.4403 -0.3894 -0.5443
   86CHL1   H4A 8776   2.631   6.039   7.192 -0.7983 -1.8547 -1.6925
   86CHL1   H4B 8777   2.739   5.890   7.184 -0.0455 -0.3121 -0.6289
   86CHL1    C5 8778   2.742   5.992   7.375 -0.4925  0.3676 -0.1933
   86CHL1    C6 8779   2.759   5.877   7.443  0.8381 -0.0077  0.3909
   86CHL1    H6 8780   2.772   5.780   7.392  4.2916 -0.5740  2.0716
   86CHL1    C7 8781   2.770   5.863   7.594 -0.3929 -0.5414  0.4390
   86CHL1   H7A 8782   2.702   5.783   7.629 -0.1187 -0.3673  1.4078
   86CHL1   H7B 8783   2.873   5.828   7.619 -1.0533 -1.3031  2.2426
   86CHL1    C8 8784   2.740   5.992   7.665 -0.2353 -0.7296 -0.2763
   86CHL1    H8 8785   2.632   5.990   7.691 -0.1347  0.6057  0.3523
   86CHL1   C14 8786   2.814   5.980   7.803 -0.6699  0.5294  0.4973
   86CHL1   H14 8787   2.925   5.977   7.789 -0.8022  0.2754 -0.5985
   86CHL1   C15 8788   2.793   5.851   7.883  1.1714 -0.8642 -0.8756
   86CHL1  H15A 8789   2.690   5.823   7.856  0.7349  1.7726 -2.3050
   86CHL1  H15B 8790   2.844   5.757   7.853 -1.3611 -2.8448  0.5819
   86CHL1   C16 8791   2.828   5.894   8.030  0.7341  0.2271  0.4827
   86CHL1  H16A 8792   2.748   5.867   8.102 -0.6782  0.3034 -1.0234
   86CHL1  H16B 8793   2.923   5.853   8.072 -0.1071 -0.3641  1.8852
   86CHL1   C17 8794   2.842   6.048   8.030  0.0115  0.6461 -0.3135
   86CHL1   H17 8795   2.950   6.068   8.013  0.2250  2.3577  2.4282
   86CHL1   C13 8796   2.779   6.098   7.896 -0.4976  0.7853  0.9728
   86CHL1   C18 8797   2.623   6.098   7.918 -0.7705  0.3701  0.3046
   86CHL1  H18A 8798   2.570   6.133   7.827  0.8723  1.3403 -0.3237
   86CHL1  H18B 8799   2.568   6.003   7.934 -3.6277  1.7001 -0.8484
   86CHL1  H18C 8800   2.598   6.169   7.999 -0.3381  0.1203  0.6620
   86CHL1   C12 8801   2.817   6.237   7.838 -0.4119  0.0638  0.2397
   86CHL1  H12A 8802   2.774   6.320   7.898 -1.6645 -1.2059  1.1646
   86CHL1  H12B 8803   2.927   6.248   7.837 -0.5642  1.7814 -0.8705
   86CHL1   C11 8804   2.768   6.250   7.688 -0.2428  0.2151 -0.0851
   86CHL1  H11A 8805   2.661   6.283   7.682 -0.2076  0.5577  1.0287
   86CHL1  H11B 8806   2.830   6.328   7.639  0.3640  0.1117  0.5094
   86CHL1    C9 8807   2.787   6.119   7.596  0.0119 -0.4162 -0.3504
   86CHL1    H9 8808   2.895   6.099   7.610 -0.0835 -0.3577  0.5306
   86CHL1   C10 8809   2.745   6.132   7.442  0.5038 -0.3972 -0.3536
   86CHL1   C19 8810   2.603   6.186   7.437  0.4927  0.8710  0.4607
   86CHL1  H19A 8811   2.537   6.114   7.489  2.5923 -0.8982  0.8108
   86CHL1  H19B 8812   2.593   6.287   7.481  1.7367  0.4152  1.8667
   86CHL1  H19C 8813   2.566   6.192   7.332 -3.9189 -2.1282  1.5486
   86CHL1    C1 8814   2.849   6.228   7.370  0.4018  1.1833  0.3273
   86CHL1   H1A 8815   2.819   6.332   7.393 -0.6036  0.6586  1.4827
   86CHL1   H1B 8816   2.949   6.196   7.406 -0.5754 -2.6466  0.1575
   86CHL1    C2 8817   2.840   6.222   7.220 -0.3448 -0.0511  0.3397
   86CHL1   H2A 8818   2.937   6.266   7.190  0.1706 -0.0713  1.9285
   86CHL1   H2B 8819   2.753   6.277   7.178 -0.1469  1.3931  1.7264
   86CHL1   C20 8820   2.816   6.117   8.164 -0.6214  0.0050  0.1713
   86CHL1   H20 8821   2.705   6.121   8.172 -0.5817  1.2560  0.3201
   86CHL1   C21 8822   2.871   6.264   8.164 -0.0392 -0.4597  0.1013
   86CHL1  H21A 8823   2.795   6.335   8.124 -0.8453 -0.9579  0.7233
   86CHL1  H21B 8824   2.962   6.263   8.100 -0.1585 -2.3570 -0.1007
   86CHL1  H21C 8825   2.901   6.298   8.265 -5.3483  0.1628  1.8004
   86CHL1   C22 8826   2.876   6.035   8.285  0.3034 -0.8562  0.2555
   86CHL1  H22A 8827   2.842   6.080   8.380  0.6102 -1.1162  0.4888
   86CHL1  H22B 8828   2.825   5.936   8.290 -0.4955 -0.4059  1.2722
   86CHL1   C23 8829   3.022   6.017   8.292  0.2924 -0.5148 -0.1257
   86CHL1  H23A 8830   3.059   5.964   8.202  1.3506 -0.0226 -0.0032
   86CHL1  H23B 8831   3.067   6.119   8.292  0.0773 -0.4140  0.7223
   86CHL1   C24 8832   3.074   5.922   8.405  0.4198 -0.2092  0.1180
   86CHL1  H24A 8833   3.039   5.819   8.383  0.7320 -0.7600  1.9763
   86CHL1  H24B 8834   3.185   5.925   8.406  0.4299  0.0613  1.7452
   86CHL1   C25 8835   3.017   5.959   8.545 -0.0428  0.6894 -0.2222
   86CHL1   H25 8836   2.906   5.959   8.547 -0.0856 -1.6488 -0.0616
   86CHL1   C26 8837   3.064   5.856   8.653 -0.6784  0.7164 -0.1070
   86CHL1  H26A 8838   3.168   5.880   8.684 -0.8516  1.8783 -0.3928
   86CHL1  H26B 8839   3.001   5.844   8.744  0.6881  0.2567  0.8306
   86CHL1  H26C 8840   3.082   5.760   8.600  2.4902  1.4232 -0.5480
   86CHL1   C27 8841   3.071   6.096   8.585  0.4228 -0.0108 -0.2716
   86CHL1  H27A 8842   3.032   6.118   8.686  1.6801 -0.9654  0.4484
   86CHL1  H27B 8843   3.181   6.102   8.597  0.4326 -1.4339  0.5339
   86CHL1  H27C 8844   3.027   6.161   8.507  0.6423 -0.9886 -1.2364
   87CHL1    C3 8845   3.813   4.998   7.251  0.1096  1.0928 -0.7395
   87CHL1    H3 8846   3.705   5.011   7.274  0.3487 -0.6447  1.7310
   87CHL1    O3 8847   3.845   4.937   7.127 -0.0667  0.0122 -0.7924
   87CHL1   H3' 8848   3.926   4.887   7.135  0.6319  0.4826 -3.7921
   87CHL1    C4 8849   3.864   5.147   7.261 -0.2570  0.4526  0.1905
   87CHL1   H4A 8850   3.969   5.149   7.225 -0.8626 -1.3125 -1.8746
   87CHL1   H4B 8851   3.812   5.203   7.180  0.4980  1.1299  0.1657
   87CHL1    C5 8852   3.845   5.216   7.398  0.1093  0.3597  0.1078
   87CHL1    C6 8853   3.766   5.324   7.415 -0.6284  0.2903 -0.6727
   87CHL1    H6 8854   3.725   5.371   7.324  1.2725 -1.6628 -2.6755
   87CHL1    C7 8855   3.739   5.391   7.546  0.0127  0.0181  0.1988
   87CHL1   H7A 8856   3.762   5.499   7.543  0.2863 -0.0250  0.5775
   87CHL1   H7B 8857   3.633   5.379   7.576  0.3163 -1.1240  0.8933
   87CHL1    C8 8858   3.848   5.339   7.650 -0.2186  0.2259 -0.7656
   87CHL1    H8 8859   3.941   5.384   7.609  0.4177 -1.7206 -1.6055
   87CHL1   C14 8860   3.808   5.383   7.792 -0.8937 -0.0668  0.7111
   87CHL1   H14 8861   3.707   5.347   7.820 -1.2586  0.4567  0.0915
   87CHL1   C15 8862   3.799   5.534   7.810  0.0475 -0.6300  0.4797
   87CHL1  H15A 8863   3.890   5.574   7.761  0.7222 -1.0886  1.3300
   87CHL1  H15B 8864   3.700   5.571   7.775 -1.0914 -2.4221  1.6511
   87CHL1   C16 8865   3.810   5.557   7.961  0.0462  0.6380  0.0202
   87CHL1  H16A 8866   3.905   5.612   7.981  1.1668 -0.6496 -1.4915
   87CHL1  H16B 8867   3.724   5.614   8.002 -0.5176 -0.2448  0.0902
   87CHL1   C17 8868   3.832   5.417   8.027 -0.0395  0.2274  0.1129
   87CHL1   H17 8869   3.729   5.375   8.031  0.8933 -2.1171  1.7560
   87CHL1   C13 8870   3.898   5.336   7.907  0.0548 -0.0936  0.1920
   87CHL1   C18 8871   4.046   5.373   7.889 -0.9381  0.3072 -0.3775
   87CHL1  H18A 8872   4.072   5.321   7.794 -1.6591  1.2830 -1.1228
   87CHL1  H18B 8873   4.061   5.483   7.884  0.7486  0.2745  2.0099
   87CHL1  H18C 8874   4.099   5.332   7.978 -2.8415 -0.4959  0.4480
   87CHL1   C12 8875   3.883   5.184   7.909  0.1855  0.1698  0.0628
   87CHL1  H12A 8876   3.943   5.142   7.992  0.2694  1.3069  0.5991
   87CHL1  H12B 8877   3.779   5.161   7.940  0.9703 -0.4253  2.3853
   87CHL1   C11 8878   3.905   5.119   7.766 -0.4847  0.2372  0.3694
   87CHL1  H11A 8879   4.014   5.123   7.743 -0.9400  0.6157 -2.0813
   87CHL1  H11B 8880   3.870   5.014   7.765  0.9258 -0.3066  2.5643
   87CHL1    C9 8881   3.849   5.187   7.643  0.9652 -0.8500 -0.0040
   87CHL1    H9 8882   3.742   5.162   7.652  0.0293  2.8646  1.0362
   87CHL1   C10 8883   3.897   5.133   7.507  0.3453 -1.4513 -0.6743
   87CHL1   C19 8884   4.054   5.144   7.495  0.2085  0.0507  0.5526
   87CHL1  H19A 8885   4.078   5.252   7.496 -2.9763  0.8377  0.0948
   87CHL1  H19B 8886   4.113   5.093   7.575  1.1501 -2.0495 -1.3474
   87CHL1  H19C 8887   4.093   5.108   7.397 -1.4412 -0.6049  0.1095
   87CHL1    C1 8888   3.850   4.981   7.493  0.0253 -0.1025  0.2193
   87CHL1   H1A 8889   3.907   4.920   7.567 -1.7911 -1.2224  0.7575
   87CHL1   H1B 8890   3.741   4.964   7.508 -0.0990  0.7757  0.3448
   87CHL1    C2 8891   3.877   4.913   7.361  0.1221 -0.1271  0.7936
   87CHL1   H2A 8892   3.844   4.807   7.365 -2.0714  0.5377  1.3401
   87CHL1   H2B 8893   3.987   4.915   7.344 -0.1937 -0.6528 -1.7962
   87CHL1   C20 8894   3.899   5.427   8.164  0.1273 -0.1281  0.0939
   87CHL1   H20 8895   4.005   5.455   8.146  1.2650 -1.6314  3.6045
   87CHL1   C21 8896   3.907   5.290   8.236 -0.2565  0.2265 -0.6062
   87CHL1  H21A 8897   3.975   5.298   8.323  1.3411  1.8142 -1.9113
   87CHL1  H21B 8898   3.959   5.212   8.176 -3.5825 -2.4232 -0.3548
   87CHL1  H21C 8899   3.807   5.258   8.271 -0.0521  0.7697  0.5191
   87CHL1   C22 8900   3.832   5.524   8.253 -0.0146  0.1507  0.0237
   87CHL1  H22A 8901   3.809   5.617   8.196 -1.0569  0.1816  0.4777
   87CHL1  H22B 8902   3.731   5.497   8.290  0.4257 -2.1110 -0.3210
   87CHL1   C23 8903   3.919   5.572   8.367 -0.4237 -0.6199 -0.9028
   87CHL1  H23A 8904   3.941   5.492   8.441 -1.0593  1.3574  1.5478
   87CHL1  H23B 8905   4.009   5.614   8.317 -0.5128  3.2716  1.7882
   87CHL1   C24 8906   3.852   5.671   8.463 -0.4966  0.2494  0.4616
   87CHL1  H24A 8907   3.825   5.762   8.406 -2.3903  0.1610  1.1454
   87CHL1  H24B 8908   3.762   5.630   8.512 -0.8291  3.5924  2.9748
   87CHL1   C25 8909   3.946   5.719   8.582  0.2273 -0.2104  0.5472
   87CHL1   H25 8910   3.966   5.627   8.641  1.4580  0.5910  1.4246
   87CHL1   C26 8911   4.081   5.774   8.542 -0.3484  0.2077 -0.0626
   87CHL1  H26A 8912   4.088   5.857   8.468  0.3010  1.3090  1.1815
   87CHL1  H26B 8913   4.129   5.809   8.636  0.2748 -1.0969  0.1217
   87CHL1  H26C 8914   4.143   5.688   8.507 -1.3037 -0.6197  0.2454
   87CHL1   C27 8915   3.861   5.809   8.675  0.4003 -0.0394 -1.0333
   87CHL1  H27A 8916   3.755   5.776   8.690 -0.5543  2.4382 -1.8246
   87CHL1  H27B 8917   3.914   5.819   8.772  1.5026  0.5011 -1.6749
   87CHL1  H27C 8918   3.845   5.903   8.619  0.3898 -0.4785 -1.7793
   88CHL1    C3 8919   6.546   3.529   7.049  0.3593 -0.8427 -0.8038
   88CHL1    H3 8920   6.656   3.544   7.055  0.3395 -0.9766  3.4288
   88CHL1    O3 8921   6.498   3.487   6.923  0.2022 -0.2002 -0.2700
   88CHL1   H3' 8922   6.404   3.489   6.942  0.2322  0.0071 -0.1487
   88CHL1    C4 8923   6.501   3.424   7.144 -0.4877  0.3831  0.6638
   88CHL1   H4A 8924   6.394   3.396   7.133 -0.3139  0.0980 -0.3891
   88CHL1   H4B 8925   6.558   3.331   7.124  0.9437  1.1413  1.0557
   88CHL1    C5 8926   6.540   3.459   7.287 -0.4781  0.4656 -0.2779
   88CHL1    C6 8927   6.616   3.381   7.365 -0.1093  0.5908  0.3131
   88CHL1    H6 8928   6.656   3.285   7.331  0.6593  1.0870 -0.2080
   88CHL1    C7 8929   6.659   3.421   7.501 -1.1281  0.0629  0.1333
   88CHL1   H7A 8930   6.666   3.337   7.574 -0.9388  1.5382  1.8968
   88CHL1   H7B 8931   6.761   3.465   7.510 -0.8057 -0.4684 -0.7820
   88CHL1    C8 8932   6.570   3.532   7.562 -0.0499  0.3881  1.3592
   88CHL1    H8 8933   6.473   3.482   7.583 -1.7677  1.8919 -2.2651
   88CHL1   C14 8934   6.648   3.599   7.676 -0.3188 -0.1808  1.1443
   88CHL1   H14 8935   6.731   3.647   7.620 -1.1753 -0.6261 -0.5637
   88CHL1   C15 8936   6.732   3.515   7.782  0.0804 -0.2979 -0.1636
   88CHL1  H15A 8937   6.665   3.432   7.812 -1.5864 -0.0001 -2.8167
   88CHL1  H15B 8938   6.822   3.470   7.735  0.5991  2.6195 -2.2354
   88CHL1   C16 8939   6.755   3.612   7.894 -0.4643 -0.1734  0.5686
   88CHL1  H16A 8940   6.714   3.583   7.993  1.3205 -0.9814  1.1130
   88CHL1  H16B 8941   6.863   3.626   7.913 -0.0273 -2.9189  0.6004
   88CHL1   C17 8942   6.680   3.746   7.853  0.0517  0.0153  0.2747
   88CHL1   H17 8943   6.754   3.811   7.802  0.2249  1.8543  2.6825
   88CHL1   C13 8944   6.568   3.704   7.753  0.0107  0.0563  0.4992
   88CHL1   C18 8945   6.452   3.640   7.836 -0.0798  0.0115  0.4641
   88CHL1  H18A 8946   6.407   3.720   7.897  1.9998  0.6166  1.3103
   88CHL1  H18B 8947   6.382   3.591   7.765 -0.2711  1.4209 -0.3713
   88CHL1  H18C 8948   6.486   3.553   7.897  1.7457 -0.3984 -1.0235
   88CHL1   C12 8949   6.526   3.822   7.664 -0.2762  0.1815  0.5934
   88CHL1  H12A 8950   6.453   3.892   7.710 -1.2909 -0.1254 -0.4913
   88CHL1  H12B 8951   6.611   3.875   7.618 -1.6655  1.2358 -0.8647
   88CHL1   C11 8952   6.458   3.760   7.534 -0.3346 -0.3482  0.0947
   88CHL1  H11A 8953   6.368   3.712   7.580  0.2390 -1.3902  0.1518
   88CHL1  H11B 8954   6.425   3.841   7.466 -1.1675  0.8818  1.8877
   88CHL1    C9 8955   6.541   3.650   7.465  0.2447  0.0063 -0.4265
   88CHL1    H9 8956   6.638   3.695   7.437  0.8228 -0.6525  0.4489
   88CHL1   C10 8957   6.480   3.601   7.332  0.2028 -0.2052  0.2651
   88CHL1   C19 8958   6.325   3.578   7.348  0.4704  0.2639 -0.0133
   88CHL1  H19A 8959   6.281   3.679   7.364 -1.3317 -0.5160  0.1299
   88CHL1  H19B 8960   6.287   3.542   7.250  0.6653 -1.2859  0.4504
   88CHL1  H19C 8961   6.292   3.508   7.427  0.7758 -1.5396 -1.4195
   88CHL1    C1 8962   6.499   3.709   7.230 -0.1254 -0.4587  0.9173
   88CHL1   H1A 8963   6.430   3.793   7.253  0.6579  0.1344  1.0971
   88CHL1   H1B 8964   6.606   3.736   7.236 -0.1474 -0.2175  0.2907
   88CHL1    C2 8965   6.482   3.662   7.085  0.1153 -0.8403  0.4038
   88CHL1   H2A 8966   6.530   3.732   7.013  0.8509 -2.2091 -0.4876
   88CHL1   H2B 8967   6.373   3.657   7.061  0.3147  0.3595 -0.8853
   88CHL1   C20 8968   6.644   3.827   7.975  0.1987 -0.2686 -0.3317
   88CHL1   H20 8969   6.575   3.761   8.030 -0.4998 -0.3381 -1.2776
   88CHL1   C21 8970   6.566   3.958   7.940  0.9354 -0.6866 -0.1924
   88CHL1  H21A 8971   6.465   3.935   7.901  0.1159 -2.6512  2.7702
   88CHL1  H21B 8972   6.626   4.018   7.867 -0.6420  0.9870 -0.1855
   88CHL1  H21C 8973   6.558   4.025   8.028  1.3731 -1.0122  0.0965
   88CHL1   C22 8974   6.766   3.873   8.052 -0.6324 -0.3316 -0.3673
   88CHL1  H22A 8975   6.855   3.808   8.034  1.1511  1.2156  2.1272
   88CHL1  H22B 8976   6.794   3.969   8.004  0.6402 -1.3145 -1.6884
   88CHL1   C23 8977   6.759   3.872   8.202  0.6333  0.3890 -0.2578
   88CHL1  H23A 8978   6.673   3.927   8.247  2.8499  3.7136  0.2781
   88CHL1  H23B 8979   6.753   3.764   8.228  2.0256  0.6540  1.2950
   88CHL1   C24 8980   6.884   3.939   8.271  0.2951 -0.0568  0.3110
   88CHL1  H24A 8981   6.960   3.952   8.191  1.0864 -2.0678  0.6608
   88CHL1  H24B 8982   6.851   4.037   8.311 -1.2891 -0.5168  0.1651
   88CHL1   C25 8983   6.950   3.878   8.392 -0.1063  0.2881 -0.2595
   88CHL1   H25 8984   7.011   3.791   8.362  0.0651  0.7406 -1.2760
   88CHL1   C26 8985   7.045   3.989   8.454  0.0638  0.2019  0.6109
   88CHL1  H26A 8986   6.992   4.086   8.458 -1.9357 -0.8252  0.5687
   88CHL1  H26B 8987   7.069   3.954   8.557 -5.4686 -1.8250  1.5795
   88CHL1  H26C 8988   7.135   4.003   8.390 -0.6809  0.5590 -0.3969
   88CHL1   C27 8989   6.855   3.832   8.509 -0.4619 -0.1655  0.1229
   88CHL1  H27A 8990   6.920   3.804   8.595 -0.2714  3.3090  1.2525
   88CHL1  H27B 8991   6.802   3.925   8.538  1.3486  0.5844  1.2662
   88CHL1  H27C 8992   6.792   3.751   8.467 -1.1189  1.3129 -1.9218
   89CHL1    C3 8993   3.463   0.177   6.885  0.3610 -0.3674 -0.3558
   89CHL1    H3 8994   3.391   0.100   6.920  1.7852 -2.1129 -1.1343
   89CHL1    O3 8995   3.502   0.148   6.753  0.7469 -0.2939  0.0513
   89CHL1   H3' 8996   3.579   0.203   6.736  1.3791 -1.0771  0.3271
   89CHL1    C4 8997   3.411   0.323   6.910 -0.1338  0.3604  0.0762
   89CHL1   H4A 8998   3.484   0.391   6.861  1.3343 -2.3430 -1.7572
   89CHL1   H4B 8999   3.307   0.338   6.874 -0.7920  3.1696  2.7189
   89CHL1    C5 9000   3.397   0.355   7.061  0.4428 -0.5367  0.4659
   89CHL1    C6 9001   3.272   0.387   7.107  0.2642  0.3404 -0.9248
   89CHL1    H6 9002   3.199   0.421   7.032 -1.7537 -1.1929  0.2563
   89CHL1    C7 9003   3.238   0.402   7.251 -0.2584 -0.8097  0.7771
   89CHL1   H7A 9004   3.163   0.484   7.260  0.8425  0.4423 -0.8427
   89CHL1   H7B 9005   3.199   0.305   7.287 -0.9304 -1.5608 -1.7871
   89CHL1    C8 9006   3.362   0.440   7.332  0.7250  0.4503 -0.1075
   89CHL1    H8 9007   3.405   0.538   7.302  1.8637 -0.2919 -0.9688
   89CHL1   C14 9008   3.327   0.433   7.479 -0.0044  0.4366  0.7685
   89CHL1   H14 9009   3.297   0.327   7.493  0.5643  0.0342 -0.9125
   89CHL1   C15 9010   3.200   0.509   7.526 -0.2067  0.4357 -1.0757
   89CHL1  H15A 9011   3.188   0.604   7.470 -0.2546 -0.8508 -3.3515
   89CHL1  H15B 9012   3.114   0.441   7.513 -0.0298 -0.4140  1.5692
   89CHL1   C16 9013   3.228   0.533   7.678  0.2179 -1.1641  0.5395
   89CHL1  H16A 9014   3.223   0.642   7.698  2.8937 -0.6987 -0.8651
   89CHL1  H16B 9015   3.157   0.485   7.749  0.5430 -0.1479  1.5902
   89CHL1   C17 9016   3.371   0.481   7.708 -0.0536  0.6914  0.4841
   89CHL1   H17 9017   3.353   0.377   7.744 -0.3056  0.5958  0.0902
   89CHL1   C13 9018   3.439   0.473   7.570 -0.3168 -0.2916  0.6660
   89CHL1   C18 9019   3.481   0.621   7.548 -0.5047  0.3090  1.2982
   89CHL1  H18A 9020   3.523   0.620   7.445 -2.5962  1.9118  0.3508
   89CHL1  H18B 9021   3.390   0.684   7.558  0.0082  1.2573  0.2045
   89CHL1  H18C 9022   3.562   0.664   7.611 -1.4000  1.0885  1.9441
   89CHL1   C12 9023   3.548   0.374   7.550 -0.2864  0.1746 -0.2245
   89CHL1  H12A 9024   3.637   0.392   7.614 -0.0951  1.5303 -0.8167
   89CHL1  H12B 9025   3.513   0.274   7.581  0.3073  0.3984  1.2335
   89CHL1   C11 9026   3.594   0.367   7.400 -0.5579 -0.0755  0.1266
   89CHL1  H11A 9027   3.642   0.464   7.374  0.7674 -0.7627 -0.0900
   89CHL1  H11B 9028   3.660   0.277   7.400 -1.0839 -0.4704  0.5371
   89CHL1    C9 9029   3.475   0.336   7.307 -0.3608  0.1829  0.4150
   89CHL1    H9 9030   3.440   0.235   7.338 -1.6895  0.8041  1.0360
   89CHL1   C10 9031   3.518   0.333   7.158 -0.2288  0.4644  0.6448
   89CHL1   C19 9032   3.612   0.454   7.115 -0.2648  0.5301  0.4604
   89CHL1  H19A 9033   3.552   0.546   7.130 -1.2856 -0.0438 -0.0559
   89CHL1  H19B 9034   3.707   0.460   7.173  0.5219 -2.4150 -0.3527
   89CHL1  H19C 9035   3.637   0.436   7.009 -1.6131  1.3272 -0.0067
   89CHL1    C1 9036   3.579   0.195   7.119 -0.0926  1.0929  0.3830
   89CHL1   H1A 9037   3.676   0.187   7.172 -0.1273 -2.8743  0.1423
   89CHL1   H1B 9038   3.513   0.119   7.165  1.2881  0.7229  1.8360
   89CHL1    C2 9039   3.594   0.155   6.971 -0.5545  0.3360  0.1948
   89CHL1   H2A 9040   3.634   0.053   6.953  1.0498  0.7056  1.4745
   89CHL1   H2B 9041   3.672   0.222   6.928  2.1024 -3.2309 -1.0472
   89CHL1   C20 9042   3.442   0.555   7.819  0.2811 -0.2472  0.1726
   89CHL1   H20 9043   3.439   0.662   7.789 -0.5572 -0.5821 -1.0340
   89CHL1   C21 9044   3.588   0.511   7.839  0.6329 -0.4885 -0.7659
   89CHL1  H21A 9045   3.655   0.567   7.770  0.9859 -2.0865 -1.7845
   89CHL1  H21B 9046   3.599   0.400   7.836  3.0851 -0.3928  1.1728
   89CHL1  H21C 9047   3.633   0.554   7.931 -0.4439  1.0332 -0.9100
   89CHL1   C22 9048   3.354   0.544   7.943 -0.3456  0.1582 -0.7429
   89CHL1  H22A 9049   3.253   0.583   7.918 -1.1872  1.2593  3.6636
   89CHL1  H22B 9050   3.329   0.442   7.980 -2.9164  1.0033  0.0398
   89CHL1   C23 9051   3.410   0.618   8.071 -0.2506  0.0802  0.2112
   89CHL1  H23A 9052   3.502   0.572   8.113 -0.4509 -2.4554 -1.9009
   89CHL1  H23B 9053   3.436   0.721   8.039  1.1961 -1.2343 -3.3688
   89CHL1   C24 9054   3.302   0.642   8.178 -0.1545  0.4955 -0.0540
   89CHL1  H24A 9055   3.224   0.695   8.119 -1.7951  1.6397  2.9549
   89CHL1  H24B 9056   3.262   0.540   8.201  1.0544  0.1753  0.6770
   89CHL1   C25 9057   3.340   0.723   8.307  1.7192  0.4069 -0.0150
   89CHL1   H25 9058   3.407   0.808   8.280  1.7344 -0.3235 -2.4906
   89CHL1   C26 9059   3.209   0.764   8.381 -0.1945  0.5196  0.3168
   89CHL1  H26A 9060   3.215   0.838   8.464 -2.4047  1.0832  0.0665
   89CHL1  H26B 9061   3.132   0.793   8.306 -1.7586 -1.9971  0.8057
   89CHL1  H26C 9062   3.178   0.669   8.429 -0.5742  0.2358 -0.4794
   89CHL1   C27 9063   3.420   0.626   8.394 -0.0109 -0.8662  0.4757
   89CHL1  H27A 9064   3.512   0.586   8.345 -0.2351  1.1430 -1.7181
   89CHL1  H27B 9065   3.449   0.678   8.488 -0.9542  1.2811 -0.3725
   89CHL1  H27C 9066   3.358   0.538   8.421 -1.3103  0.2182  1.1655
   90CHL1    C3 9067   4.414   1.499   6.966 -0.5999 -0.4814 -0.3023
   90CHL1    H3 9068   4.316   1.549   6.984  0.1792  1.1729 -0.4024
   90CHL1    O3 9069   4.431   1.493   6.822  0.2412  0.2370  0.3003
   90CHL1   H3' 9070   4.379   1.417   6.794  0.5576 -0.3457  1.2628
   90CHL1    C4 9071   4.524   1.586   7.030  0.1564  0.0821  0.2853
   90CHL1   H4A 9072   4.618   1.534   7.001 -0.2028 -1.4517  1.6865
   90CHL1   H4B 9073   4.507   1.684   6.981 -0.8669 -0.6240 -0.8171
   90CHL1    C5 9074   4.511   1.595   7.183  0.0098 -0.4693 -0.2067
   90CHL1    C6 9075   4.497   1.714   7.249  0.1625 -0.0900  0.2660
   90CHL1    H6 9076   4.499   1.803   7.185  1.5460 -1.1758 -1.3119
   90CHL1    C7 9077   4.482   1.720   7.394 -0.4109  0.0523  0.5197
   90CHL1   H7A 9078   4.552   1.794   7.439 -1.6028  0.8191  1.1629
   90CHL1   H7B 9079   4.379   1.751   7.420  1.1866  3.0298  4.1720
   90CHL1    C8 9080   4.523   1.589   7.464 -0.4667  0.8423 -1.1036
   90CHL1    H8 9081   4.634   1.585   7.477 -0.7266  0.1285  1.5355
   90CHL1   C14 9082   4.475   1.580   7.607  0.6671 -0.2379  0.1277
   90CHL1   H14 9083   4.364   1.583   7.602  0.7214 -0.0775 -1.4040
   90CHL1   C15 9084   4.501   1.698   7.699  0.6183  0.3850 -0.0735
   90CHL1  H15A 9085   4.610   1.716   7.692  0.3828  1.9693 -0.1507
   90CHL1  H15B 9086   4.437   1.784   7.669  0.6740  0.6569  0.5571
   90CHL1   C16 9087   4.479   1.648   7.848 -0.2752  0.2121  0.0233
   90CHL1  H16A 9088   4.570   1.674   7.906  0.7583 -1.1454 -0.9544
   90CHL1  H16B 9089   4.389   1.693   7.897 -1.7599 -0.8943 -1.5734
   90CHL1   C17 9090   4.461   1.491   7.835 -0.8863  0.0259 -0.1133
   90CHL1   H17 9091   4.350   1.486   7.832 -1.0769  2.8385 -0.4126
   90CHL1   C13 9092   4.513   1.453   7.695  0.0824  0.6561 -0.2261
   90CHL1   C18 9093   4.663   1.433   7.698 -0.5340 -0.0388 -0.1050
   90CHL1  H18A 9094   4.693   1.424   7.591 -0.6486 -1.8053 -0.0055
   90CHL1  H18B 9095   4.715   1.519   7.746 -0.3564 -0.3413  0.2418
   90CHL1  H18C 9096   4.695   1.339   7.747 -1.1766  0.1099  0.5949
   90CHL1   C12 9097   4.450   1.334   7.632 -1.0787  0.6914  0.8334
   90CHL1  H12A 9098   4.474   1.227   7.647 -1.0950  0.0739 -2.7284
   90CHL1  H12B 9099   4.339   1.332   7.642 -1.0613  0.3599  0.9949
   90CHL1   C11 9100   4.476   1.333   7.472 -0.6413  0.3756 -0.3820
   90CHL1  H11A 9101   4.577   1.288   7.477  0.1552  2.2025  1.4566
   90CHL1  H11B 9102   4.420   1.249   7.426 -0.7466  1.5945 -2.6315
   90CHL1    C9 9103   4.462   1.467   7.394 -0.3500  0.4249  0.2916
   90CHL1    H9 9104   4.357   1.503   7.390 -0.7050 -0.6667 -2.2068
   90CHL1   C10 9105   4.508   1.453   7.244  0.2906  0.1401 -0.4051
   90CHL1   C19 9106   4.646   1.386   7.228  0.1931  0.0847 -0.1953
   90CHL1  H19A 9107   4.646   1.281   7.265 -2.0491  0.4032  0.8875
   90CHL1  H19B 9108   4.680   1.382   7.123 -1.1655 -1.6612 -0.6217
   90CHL1  H19C 9109   4.729   1.436   7.283  1.1220  0.6979 -2.0961
   90CHL1    C1 9110   4.397   1.372   7.168 -0.1956  0.4319 -0.2134
   90CHL1   H1A 9111   4.408   1.270   7.210  2.8339  0.4851 -0.6502
   90CHL1   H1B 9112   4.295   1.412   7.187 -0.3254  0.6362 -1.2855
   90CHL1    C2 9113   4.415   1.363   7.014 -0.1249  0.2546  0.4397
   90CHL1   H2A 9114   4.337   1.302   6.962  2.4974 -1.0566 -2.2265
   90CHL1   H2B 9115   4.508   1.314   6.977 -0.3368  1.2408 -1.5437
   90CHL1   C20 9116   4.504   1.403   7.956 -0.2407  0.6464  0.2630
   90CHL1   H20 9117   4.615   1.404   7.961 -0.1158 -0.7570 -1.4443
   90CHL1   C21 9118   4.445   1.259   7.951  0.7624  0.6291 -0.2642
   90CHL1  H21A 9119   4.465   1.218   8.053 -2.3960  0.7270  0.4851
   90CHL1  H21B 9120   4.470   1.184   7.873 -0.9369 -0.0761 -0.1775
   90CHL1  H21C 9121   4.336   1.278   7.960  0.6009  0.0509 -0.8487
   90CHL1   C22 9122   4.464   1.474   8.081 -0.1261  0.0917 -0.3255
   90CHL1  H22A 9123   4.523   1.568   8.081 -1.0936  0.7583 -2.0000
   90CHL1  H22B 9124   4.357   1.504   8.071 -0.3384 -0.8329 -1.0267
   90CHL1   C23 9125   4.487   1.408   8.222 -0.2037 -0.6779 -0.5093
   90CHL1  H23A 9126   4.407   1.333   8.239 -2.1202  1.0913 -1.4051
   90CHL1  H23B 9127   4.586   1.357   8.225  0.7135  1.0815  0.6069
   90CHL1   C24 9128   4.472   1.516   8.331  0.5257  0.0843  0.3769
   90CHL1  H24A 9129   4.546   1.596   8.306 -0.3077  0.1893 -2.0354
   90CHL1  H24B 9130   4.371   1.562   8.321  1.2188  1.6723  0.3713
   90CHL1   C25 9131   4.485   1.457   8.475  0.7297  1.7449  0.6338
   90CHL1   H25 9132   4.591   1.428   8.492  0.0476 -0.8986  0.8362
   90CHL1   C26 9133   4.442   1.558   8.580  0.2420 -0.4580 -0.2921
   90CHL1  H26A 9134   4.475   1.519   8.679  1.9684  2.6133  0.4690
   90CHL1  H26B 9135   4.501   1.650   8.560 -0.1978 -0.2984 -0.9085
   90CHL1  H26C 9136   4.331   1.565   8.582  0.2012 -1.0931  1.8355
   90CHL1   C27 9137   4.406   1.329   8.489 -0.5598 -0.1664 -0.4498
   90CHL1  H27A 9138   4.300   1.356   8.471 -0.0663  1.8892 -0.4297
   90CHL1  H27B 9139   4.443   1.249   8.421  0.1232 -0.1986 -0.0416
   90CHL1  H27C 9140   4.425   1.296   8.593  2.8098 -0.5021 -1.0736
   91CHL1    C3 9141   4.707   2.582   7.312 -0.1342 -0.3006 -0.5062
   91CHL1    H3 9142   4.686   2.474   7.314 -0.0425 -0.3094  0.4789
   91CHL1    O3 9143   4.701   2.634   7.183 -0.0237 -0.0595  0.0982
   91CHL1   H3' 9144   4.753   2.570   7.133  0.1309 -1.8544  2.3527
   91CHL1    C4 9145   4.606   2.649   7.401 -0.1964 -0.2876  0.0330
   91CHL1   H4A 9146   4.621   2.759   7.400 -2.4977  0.1004  1.0325
   91CHL1   H4B 9147   4.505   2.633   7.357 -0.4470 -2.0572  1.1613
   91CHL1    C5 9148   4.613   2.602   7.547 -0.6693 -0.1499 -0.1432
   91CHL1    C6 9149   4.509   2.544   7.604  0.2655 -0.1995  0.4686
   91CHL1    H6 9150   4.413   2.539   7.551 -1.2679 -0.6215  3.1148
   91CHL1    C7 9151   4.508   2.494   7.745 -0.0357  0.8455 -0.2511
   91CHL1   H7A 9152   4.416   2.515   7.803  0.6815  1.2333  0.7700
   91CHL1   H7B 9153   4.529   2.385   7.751  0.7299  1.0614  2.4638
   91CHL1    C8 9154   4.628   2.555   7.831 -0.4708 -0.1506 -0.1966
   91CHL1    H8 9155   4.596   2.660   7.846 -0.5833 -0.1732 -0.2764
   91CHL1   C14 9156   4.642   2.482   7.959 -0.4138  0.7476  0.2489
   91CHL1   H14 9157   4.670   2.376   7.943  1.8906  1.2698  0.5274
   91CHL1   C15 9158   4.513   2.470   8.043  0.0967 -1.1748 -0.3129
   91CHL1  H15A 9159   4.453   2.563   8.045  1.2713 -0.3471  3.2897
   91CHL1  H15B 9160   4.451   2.381   8.018  0.4826 -0.7687 -3.0300
   91CHL1   C16 9161   4.562   2.462   8.188  0.3124 -0.2434  0.4445
   91CHL1  H16A 9162   4.524   2.545   8.252 -0.1143 -0.3879  0.3840
   91CHL1  H16B 9163   4.523   2.375   8.245  1.5923 -1.1655 -0.0601
   91CHL1   C17 9164   4.718   2.472   8.178 -0.0859  0.2622 -0.5704
   91CHL1   H17 9165   4.753   2.368   8.161  2.4885  1.4282 -3.4428
   91CHL1   C13 9166   4.748   2.546   8.048 -0.0965 -0.3224 -0.1179
   91CHL1   C18 9167   4.713   2.695   8.075 -0.8852 -0.7566  1.2835
   91CHL1  H18A 9168   4.775   2.745   8.153 -0.1625 -0.9358  0.8383
   91CHL1  H18B 9169   4.728   2.749   7.979 -1.5251  0.1449  1.6720
   91CHL1  H18C 9170   4.610   2.722   8.107 -2.0159 -0.3788 -2.2347
   91CHL1   C12 9171   4.884   2.528   7.980 -0.1573 -0.3084  0.7009
   91CHL1  H12A 9172   4.970   2.580   8.028  2.1814 -1.7250 -1.7137
   91CHL1  H12B 9173   4.907   2.421   7.963  1.7940  0.3957 -1.6292
   91CHL1   C11 9174   4.889   2.573   7.830  0.3633  0.0485 -0.0967
   91CHL1  H11A 9175   4.886   2.684   7.835  1.8123  0.2065 -1.6999
   91CHL1  H11B 9176   4.981   2.538   7.779 -0.5834 -0.9300 -1.2039
   91CHL1    C9 9177   4.757   2.539   7.748  0.2265 -0.1047  0.2639
   91CHL1    H9 9178   4.773   2.431   7.731 -0.9320 -0.4761  1.4475
   91CHL1   C10 9179   4.755   2.609   7.610 -0.5951  0.0317 -0.7679
   91CHL1   C19 9180   4.775   2.765   7.629 -0.0964 -0.1369 -0.8115
   91CHL1  H19A 9181   4.708   2.804   7.708  1.7066 -0.3829  0.9472
   91CHL1  H19B 9182   4.881   2.779   7.660 -0.3077  1.9710 -0.8775
   91CHL1  H19C 9183   4.765   2.835   7.543  0.8520  1.4457  0.3193
   91CHL1    C1 9184   4.862   2.546   7.513 -0.0689  0.6973 -0.7103
   91CHL1   H1A 9185   4.958   2.567   7.564 -0.3360  2.2833 -0.7990
   91CHL1   H1B 9186   4.848   2.436   7.516 -0.7661  0.8008  1.1617
   91CHL1    C2 9187   4.855   2.599   7.365 -0.0099  0.4341 -0.4664
   91CHL1   H2A 9188   4.919   2.542   7.294 -1.6343 -0.5038 -1.2481
   91CHL1   H2B 9189   4.897   2.702   7.364 -0.3708  0.5892  0.1634
   91CHL1   C20 9190   4.783   2.508   8.314  0.1611  0.4832 -0.1615
   91CHL1   H20 9191   4.751   2.611   8.341  0.9877  0.8715 -0.6501
   91CHL1   C21 9192   4.935   2.522   8.300  0.0775 -0.0527 -0.2440
   91CHL1  H21A 9193   4.964   2.597   8.223  0.8666  0.6543  0.7278
   91CHL1  H21B 9194   4.977   2.425   8.265 -0.7947 -0.2201 -0.8653
   91CHL1  H21C 9195   4.992   2.539   8.393 -0.7146 -4.0562  1.1736
   91CHL1   C22 9196   4.746   2.404   8.427  0.6994 -0.2270  0.3673
   91CHL1  H22A 9197   4.638   2.378   8.424  0.0802  2.1616 -0.0738
   91CHL1  H22B 9198   4.803   2.310   8.413 -1.0241 -1.1717 -0.5604
   91CHL1   C23 9199   4.764   2.447   8.573  0.2863 -0.0041  0.0310
   91CHL1  H23A 9200   4.872   2.469   8.586  0.0585  2.3754 -1.5085
   91CHL1  H23B 9201   4.697   2.534   8.588 -0.6892 -0.5724 -0.9344
   91CHL1   C24 9202   4.719   2.338   8.681 -0.5586 -0.3821  0.4319
   91CHL1  H24A 9203   4.608   2.331   8.681 -0.5713 -0.4094  2.0098
   91CHL1  H24B 9204   4.752   2.245   8.629  0.4636 -0.0982  0.5460
   91CHL1   C25 9205   4.775   2.355   8.819 -1.0403 -0.0343  0.1370
   91CHL1   H25 9206   4.885   2.363   8.813 -1.1502  0.6715 -2.3115
   91CHL1   C26 9207   4.735   2.492   8.875 -0.3737 -0.0555  0.1837
   91CHL1  H26A 9208   4.769   2.506   8.980 -0.4939 -0.2764  0.2533
   91CHL1  H26B 9209   4.787   2.572   8.819  0.9569  0.7291  2.4036
   91CHL1  H26C 9210   4.626   2.513   8.868 -0.2808  0.2725 -0.2554
   91CHL1   C27 9211   4.741   2.234   8.904  0.3207  1.0894  0.0156
   91CHL1  H27A 9212   4.635   2.245   8.937  0.7987 -0.9299  2.4958
   91CHL1  H27B 9213   4.751   2.138   8.848 -0.2759  1.0304  0.0074
   91CHL1  H27C 9214   4.810   2.215   8.989  2.3970 -0.6320 -1.9263
   92CHL1    C3 9215   0.603   3.976   6.998  0.6528 -1.0617 -0.0658
   92CHL1    H3 9216   0.586   3.871   7.030 -1.0415 -0.3091  1.6634
   92CHL1    O3 9217   0.559   3.995   6.863 -0.3932  0.3077 -0.3523
   92CHL1   H3' 9218   0.638   3.985   6.810  0.9308 -3.4510  1.9065
   92CHL1    C4 9219   0.530   4.075   7.091 -0.2193 -0.0958 -1.1428
   92CHL1   H4A 9220   0.540   4.180   7.058  0.1874 -0.6061 -2.7136
   92CHL1   H4B 9221   0.423   4.044   7.097  0.2203 -1.5198  3.2278
   92CHL1    C5 9222   0.586   4.071   7.231 -0.1253 -0.0134 -0.8253
   92CHL1    C6 9223   0.510   4.040   7.337  0.0882 -0.1244 -0.3054
   92CHL1    H6 9224   0.403   4.032   7.312 -0.3002 -0.9438  1.4792
   92CHL1    C7 9225   0.554   4.042   7.478 -0.0571  0.3851 -1.2983
   92CHL1   H7A 9226   0.474   4.084   7.542  1.5266 -3.3034  3.6888
   92CHL1   H7B 9227   0.575   3.937   7.506  1.5184  1.1492  0.5472
   92CHL1    C8 9228   0.685   4.114   7.502  0.9245  0.2413 -0.2381
   92CHL1    H8 9229   0.674   4.224   7.493  1.1416  0.1247 -2.4841
   92CHL1   C14 9230   0.741   4.085   7.639  0.0908  0.2407  0.5766
   92CHL1   H14 9231   0.759   3.975   7.637 -1.2857 -0.0244  0.9897
   92CHL1   C15 9232   0.642   4.107   7.757 -0.5264  0.1399  0.1819
   92CHL1  H15A 9233   0.604   4.211   7.752  0.2420  0.8933  5.1140
   92CHL1  H15B 9234   0.566   4.028   7.769  1.1311 -1.8766 -1.6688
   92CHL1   C16 9235   0.740   4.093   7.880  0.9808 -0.1165  0.3599
   92CHL1  H16A 9236   0.732   4.186   7.941 -0.9434  0.0075 -0.0182
   92CHL1  H16B 9237   0.731   3.997   7.937  3.4432  0.1689  1.3443
   92CHL1   C17 9238   0.889   4.098   7.821  1.3559 -0.5714  0.3433
   92CHL1   H17 9239   0.917   3.991   7.811  1.7746 -0.3926 -0.5251
   92CHL1   C13 9240   0.875   4.148   7.676  0.0550  0.0352 -0.2061
   92CHL1   C18 9241   0.874   4.307   7.687  0.5086  0.3068  0.8372
   92CHL1  H18A 9242   0.810   4.352   7.765  0.4730 -0.2654  1.1489
   92CHL1  H18B 9243   0.979   4.339   7.707  1.7654 -2.9708  0.2255
   92CHL1  H18C 9244   0.854   4.348   7.586 -1.4159  2.4841  2.0119
   92CHL1   C12 9245   0.974   4.091   7.569 -0.0118  0.5566 -0.3391
   92CHL1  H12A 9246   1.082   4.119   7.579  0.4335 -1.2565  0.2096
   92CHL1  H12B 9247   0.981   3.981   7.576  0.8318  0.3413 -3.0334
   92CHL1   C11 9248   0.933   4.122   7.420  0.1309 -0.0055  0.1444
   92CHL1  H11A 9249   0.939   4.232   7.407  1.1968  0.0751  1.1611
   92CHL1  H11B 9250   1.001   4.074   7.348  1.3580 -0.2685  1.4361
   92CHL1    C9 9251   0.786   4.073   7.389  0.1458 -0.0175  0.9151
   92CHL1    H9 9252   0.798   3.962   7.395 -1.0721 -0.3115 -0.9147
   92CHL1   C10 9253   0.734   4.101   7.249 -0.1951 -0.1833 -0.4550
   92CHL1   C19 9254   0.754   4.250   7.217  0.2460  0.0657 -0.2017
   92CHL1  H19A 9255   0.727   4.321   7.298  3.4785  0.5078  0.6071
   92CHL1  H19B 9256   0.861   4.277   7.208  0.1426  0.3532 -0.5580
   92CHL1  H19C 9257   0.703   4.295   7.129  0.1447  2.2669  0.8944
   92CHL1    C1 9258   0.811   4.018   7.141 -0.1857 -0.0756  0.0598
   92CHL1   H1A 9259   0.917   4.053   7.143 -0.2274  0.0216  1.4441
   92CHL1   H1B 9260   0.815   3.913   7.179  3.4152  0.2845  1.0647
   92CHL1    C2 9261   0.749   4.017   6.999 -0.0659  0.3722  0.1773
   92CHL1   H2A 9262   0.800   3.938   6.940 -0.0312  1.5798 -1.4665
   92CHL1   H2B 9263   0.780   4.102   6.935 -0.2686 -1.4946 -2.5630
   92CHL1   C20 9264   0.996   4.161   7.918 -0.5364  0.3260 -0.3501
   92CHL1   H20 9265   0.981   4.271   7.923 -1.5578  0.1547  0.9980
   92CHL1   C21 9266   1.140   4.120   7.870  0.4934 -0.5550  0.2032
   92CHL1  H21A 9267   1.217   4.128   7.950  1.2590  3.2354 -0.6928
   92CHL1  H21B 9268   1.171   4.181   7.782 -0.6198 -0.6852 -0.2919
   92CHL1  H21C 9269   1.141   4.011   7.849  3.0844 -0.9335  1.8187
   92CHL1   C22 9270   0.982   4.121   8.069 -0.2464 -0.0583  0.7545
   92CHL1  H22A 9271   1.072   4.164   8.118  0.4165 -0.2544 -0.2612
   92CHL1  H22B 9272   0.895   4.170   8.119 -0.0328 -1.3127  2.4226
   92CHL1   C23 9273   0.984   3.965   8.093  0.4245  0.6458 -0.2167
   92CHL1  H23A 9274   0.891   3.925   8.047  0.7669  0.2644 -0.5927
   92CHL1  H23B 9275   1.073   3.909   8.058  1.2574  0.7048  1.7141
   92CHL1   C24 9276   0.998   3.917   8.243  0.2241  0.1874 -0.1872
   92CHL1  H24A 9277   0.908   3.938   8.304 -0.1039  1.3731 -1.0475
   92CHL1  H24B 9278   1.013   3.807   8.243  0.0933  0.0586  3.2583
   92CHL1   C25 9279   1.117   3.966   8.323  0.4350  0.3547  0.2338
   92CHL1   H25 9280   1.099   4.074   8.343 -1.1830 -0.0829  1.3771
   92CHL1   C26 9281   1.137   3.889   8.448  0.3106  0.1727  0.2093
   92CHL1  H26A 9282   1.042   3.893   8.505  0.7374  1.4973  0.8546
   92CHL1  H26B 9283   1.160   3.781   8.430  1.0299  0.7384 -2.7536
   92CHL1  H26C 9284   1.220   3.940   8.502  0.5838  1.2793 -1.2186
   92CHL1   C27 9285   1.256   3.968   8.247  0.1224  0.3543 -0.1438
   92CHL1  H27A 9286   1.289   3.865   8.220 -2.2781 -0.3182 -0.7023
   92CHL1  H27B 9287   1.257   4.035   8.159 -2.1635  0.1581 -0.3844
   92CHL1  H27C 9288   1.331   4.009   8.319 -0.7985  2.4110 -0.3109
   93CHL1    C3 9289   6.265   1.220   6.970 -0.0181  0.1616  0.1285
   93CHL1    H3 9290   6.338   1.300   6.946 -2.2046  1.6445 -2.0901
   93CHL1    O3 9291   6.226   1.180   6.842  0.7310 -0.0821  0.0254
   93CHL1   H3' 9292   6.199   1.265   6.808  0.7083  0.0185  0.2928
   93CHL1    C4 9293   6.330   1.100   7.045 -0.1794  0.3993  0.3774
   93CHL1   H4A 9294   6.270   1.006   7.041  1.0296 -0.3595 -0.8166
   93CHL1   H4B 9295   6.424   1.076   6.990  0.1948  1.2512  0.6440
   93CHL1    C5 9296   6.358   1.132   7.191  1.2096 -0.5014 -0.7822
   93CHL1    C6 9297   6.482   1.128   7.247 -0.1167  0.8650 -0.3404
   93CHL1    H6 9298   6.557   1.082   7.181 -1.9914 -0.2202 -1.8200
   93CHL1    C7 9299   6.517   1.158   7.386 -0.2398  0.0237 -0.4029
   93CHL1   H7A 9300   6.570   1.069   7.425  0.4992  1.2162  1.4624
   93CHL1   H7B 9301   6.591   1.240   7.398  0.8077 -1.0471  0.7605
   93CHL1    C8 9302   6.395   1.167   7.474 -0.3638 -0.1526 -0.5859
   93CHL1    H8 9303   6.348   1.070   7.496 -0.1075 -0.1573 -0.0450
   93CHL1   C14 9304   6.432   1.230   7.609  0.2943 -0.2450  0.2983
   93CHL1   H14 9305   6.448   1.336   7.580 -3.5557  0.0335 -1.4752
   93CHL1   C15 9306   6.552   1.170   7.679  0.0526 -0.0383 -0.3008
   93CHL1  H15A 9307   6.540   1.060   7.687  0.9421 -0.0618  1.1763
   93CHL1  H15B 9308   6.639   1.213   7.625 -0.7676  2.7400  0.4032
   93CHL1   C16 9309   6.541   1.218   7.827 -1.0699  0.2038  0.0264
   93CHL1  H16A 9310   6.559   1.126   7.887 -0.8700  0.4730  0.3789
   93CHL1  H16B 9311   6.622   1.286   7.860 -0.6727 -1.0052  1.6593
   93CHL1   C17 9312   6.404   1.291   7.835  0.3148 -0.0276 -0.0654
   93CHL1   H17 9313   6.427   1.397   7.808 -1.9852  0.1469 -1.6070
   93CHL1   C13 9314   6.321   1.237   7.716 -0.0287  0.4897  0.0781
   93CHL1   C18 9315   6.268   1.096   7.769 -0.5756 -0.1148 -0.0305
   93CHL1  H18A 9316   6.171   1.106   7.822 -0.2414 -0.5568  0.6886
   93CHL1  H18B 9317   6.254   1.030   7.681 -0.2379 -2.3187  1.4927
   93CHL1  H18C 9318   6.333   1.045   7.843 -0.9776 -1.0539 -0.3085
   93CHL1   C12 9319   6.205   1.322   7.656 -0.3440  0.4225  0.2733
   93CHL1  H12A 9320   6.109   1.325   7.712 -1.3306 -1.0803 -1.2297
   93CHL1  H12B 9321   6.233   1.424   7.622  0.7179 -0.1546 -0.6413
   93CHL1   C11 9322   6.165   1.269   7.519  0.1253 -0.5303  0.3891
   93CHL1  H11A 9323   6.118   1.171   7.541  0.2297 -0.6353  0.1497
   93CHL1  H11B 9324   6.079   1.326   7.478  1.0306  2.1961  2.0384
   93CHL1    C9 9325   6.282   1.248   7.413  0.8699 -0.6469 -0.7317
   93CHL1    H9 9326   6.324   1.348   7.392  2.1242 -0.6911  1.3278
   93CHL1   C10 9327   6.242   1.190   7.268 -0.0414 -0.1283 -0.9359
   93CHL1   C19 9328   6.140   1.062   7.299  0.2884 -0.6939  0.1533
   93CHL1  H19A 9329   6.084   1.026   7.210 -1.2263  1.5572  0.1080
   93CHL1  H19B 9330   6.201   0.978   7.340 -0.2246 -0.9787  0.3335
   93CHL1  H19C 9331   6.066   1.090   7.376  0.3619  0.8854 -0.3025
   93CHL1    C1 9332   6.172   1.302   7.193  0.3960 -0.3529 -0.2679
   93CHL1   H1A 9333   6.077   1.329   7.244 -1.0922 -3.0266 -1.4421
   93CHL1   H1B 9334   6.236   1.393   7.184  1.0042 -0.8183 -0.6907
   93CHL1    C2 9335   6.138   1.276   7.044 -0.2789  0.2686 -0.0645
   93CHL1   H2A 9336   6.088   1.360   6.992 -3.1985 -0.7291  0.9409
   93CHL1   H2B 9337   6.067   1.190   7.039  0.9667 -0.7628 -1.0649
   93CHL1   C20 9338   6.347   1.290   7.981 -0.4910  0.7387  0.0189
   93CHL1   H20 9339   6.270   1.210   7.992  0.4930 -0.3297 -0.6120
   93CHL1   C21 9340   6.273   1.421   8.018  0.2447 -0.1364  0.3237
   93CHL1  H21A 9341   6.230   1.451   7.920  0.5263  1.1747  0.5828
   93CHL1  H21B 9342   6.337   1.510   8.034 -1.6483  1.6175 -1.2983
   93CHL1  H21C 9343   6.200   1.405   8.100  2.1560 -1.4148  1.8506
   93CHL1   C22 9344   6.453   1.251   8.099 -0.6819 -0.0378  0.2980
   93CHL1  H22A 9345   6.489   1.146   8.087 -0.8418 -0.3265  2.1642
   93CHL1  H22B 9346   6.535   1.326   8.090 -2.2334  1.8527  1.1584
   93CHL1   C23 9347   6.404   1.240   8.248 -1.2313  0.2285  0.0198
   93CHL1  H23A 9348   6.367   1.340   8.277  1.8682  1.4013  0.2645
   93CHL1  H23B 9349   6.323   1.164   8.248  0.2148 -1.3925  0.1752
   93CHL1   C24 9350   6.516   1.199   8.344 -0.5204  0.2607  0.7573
   93CHL1  H24A 9351   6.578   1.124   8.290 -2.5993 -0.6684 -0.4285
   93CHL1  H24B 9352   6.570   1.291   8.376 -1.0464  0.7641  0.2004
   93CHL1   C25 9353   6.475   1.121   8.473 -0.0598 -0.5685 -0.4830
   93CHL1   H25 9354   6.399   1.044   8.448  0.5436 -0.8992 -1.3218
   93CHL1   C26 9355   6.600   1.057   8.540  0.3812  0.4875  0.0705
   93CHL1  H26A 9356   6.564   0.977   8.608 -0.3329  0.4048 -0.3903
   93CHL1  H26B 9357   6.668   1.003   8.472 -2.8502 -1.5841 -1.7978
   93CHL1  H26C 9358   6.649   1.129   8.610  2.6224  2.2906 -3.0980
   93CHL1   C27 9359   6.389   1.212   8.571 -0.4053 -0.1189  0.1687
   93CHL1  H27A 9360   6.379   1.150   8.663  0.8000  0.8260  0.9710
   93CHL1  H27B 9361   6.449   1.298   8.606 -0.7982  0.3254 -0.2447
   93CHL1  H27C 9362   6.292   1.236   8.524 -0.1387  0.6237 -0.0085
   94CHL1    C3 9363   0.529   3.465   7.101 -0.0418 -0.1081  0.1240
   94CHL1    H3 9364   0.435   3.502   7.147 -0.0187 -1.4678  1.3501
   94CHL1    O3 9365   0.512   3.460   6.962 -0.3680  0.6537 -0.1288
   94CHL1   H3' 9366   0.463   3.378   6.952 -0.4585  0.1192  3.2650
   94CHL1    C4 9367   0.657   3.555   7.117 -0.5463  0.4395 -0.2307
   94CHL1   H4A 9368   0.736   3.501   7.062  0.5068  0.9960  0.6948
   94CHL1   H4B 9369   0.634   3.659   7.083 -2.1484  0.3319  0.3989
   94CHL1    C5 9370   0.684   3.564   7.272  0.0263  0.2144 -0.1978
   94CHL1    C6 9371   0.685   3.682   7.340  0.4454  0.2359  0.3244
   94CHL1    H6 9372   0.676   3.771   7.277  1.4387  0.3778  0.3736
   94CHL1    C7 9373   0.724   3.686   7.483  0.0511 -0.6134 -0.7441
   94CHL1   H7A 9374   0.796   3.771   7.493  1.2895 -1.5526 -1.3989
   94CHL1   H7B 9375   0.639   3.703   7.552 -0.4126 -2.2931 -0.8538
   94CHL1    C8 9376   0.783   3.556   7.539 -0.1453 -0.0037 -0.2416
   94CHL1    H8 9377   0.884   3.541   7.495 -0.6934  1.3442 -2.0924
   94CHL1   C14 9378   0.793   3.566   7.689 -0.6338  0.1514 -0.3617
   94CHL1   H14 9379   0.689   3.557   7.729 -0.8444  0.2403 -0.8807
   94CHL1   C15 9380   0.864   3.693   7.749  0.5700  0.3208 -0.0242
   94CHL1  H15A 9381   0.954   3.726   7.692  2.4462 -1.5851  1.6584
   94CHL1  H15B 9382   0.792   3.778   7.754  0.3984  0.1481  0.4628
   94CHL1   C16 9383   0.919   3.636   7.885  0.3794 -0.2216 -0.4003
   94CHL1  H16A 9384   1.028   3.644   7.864  0.6411 -1.7298  0.2455
   94CHL1  H16B 9385   0.885   3.703   7.966 -2.0144 -0.0095 -1.5167
   94CHL1   C17 9386   0.873   3.490   7.898 -0.4266  0.7168 -0.2052
   94CHL1   H17 9387   0.768   3.487   7.936  0.0573 -3.1085  1.2935
   94CHL1   C13 9388   0.867   3.440   7.750 -0.0639  0.3447  0.6005
   94CHL1   C18 9389   1.013   3.419   7.685 -0.4014  0.1393 -0.4717
   94CHL1  H18A 9390   1.059   3.329   7.732 -1.8068  0.2756  1.3043
   94CHL1  H18B 9391   1.012   3.410   7.575  0.3570 -0.6697 -0.4213
   94CHL1  H18C 9392   1.079   3.507   7.701 -1.4511  0.6456  1.5446
   94CHL1   C12 9393   0.780   3.318   7.722  0.9348 -0.3815  0.3966
   94CHL1  H12A 9394   0.827   3.222   7.753 -1.0443 -1.1234  1.2561
   94CHL1  H12B 9395   0.679   3.330   7.768  0.3833  1.1547 -1.1256
   94CHL1   C11 9396   0.753   3.301   7.574 -0.1490 -0.5061  0.4932
   94CHL1  H11A 9397   0.849   3.271   7.527 -0.0738 -1.0848  1.0124
   94CHL1  H11B 9398   0.686   3.213   7.559  1.5654 -2.0387  1.4273
   94CHL1    C9 9399   0.704   3.435   7.497  0.6488 -0.1641 -0.3295
   94CHL1    H9 9400   0.599   3.457   7.528  0.5039  0.1227 -1.0180
   94CHL1   C10 9401   0.700   3.429   7.339  0.1613 -0.3662  0.4388
   94CHL1   C19 9402   0.845   3.375   7.297  1.1065  0.4238 -0.0911
   94CHL1  H19A 9403   0.858   3.380   7.186  0.9927 -0.6734 -0.1638
   94CHL1  H19B 9404   0.934   3.432   7.330  3.5739 -2.3645 -1.4462
   94CHL1  H19C 9405   0.855   3.269   7.326 -0.2823  0.2530 -0.1620
   94CHL1    C1 9406   0.588   3.335   7.307  0.2529  0.1503  0.3447
   94CHL1   H1A 9407   0.597   3.228   7.336 -2.3399  0.0050  0.8215
   94CHL1   H1B 9408   0.493   3.367   7.354  0.4858  0.6339  0.5016
   94CHL1    C2 9409   0.559   3.329   7.156  0.1988 -0.2397  0.1516
   94CHL1   H2A 9410   0.472   3.263   7.138  0.0291 -0.2831  1.1028
   94CHL1   H2B 9411   0.643   3.283   7.099 -0.9711 -1.2227 -0.8139
   94CHL1   C20 9412   0.962   3.415   7.998 -0.2531 -0.4046  0.1924
   94CHL1   H20 9413   1.066   3.402   7.960  0.0864  0.6412  0.7154
   94CHL1   C21 9414   0.915   3.271   8.017 -0.1209  0.1329  1.1939
   94CHL1  H21A 9415   0.955   3.222   8.108 -0.9364  0.2646  1.6311
   94CHL1  H21B 9416   0.945   3.222   7.922  0.2197  0.4045  1.1615
   94CHL1  H21C 9417   0.804   3.262   8.016 -0.0768 -1.2560 -1.7185
   94CHL1   C22 9418   0.977   3.481   8.137 -0.5707 -0.2797  0.7970
   94CHL1  H22A 9419   0.927   3.580   8.139 -1.2445 -0.6074  0.5601
   94CHL1  H22B 9420   0.950   3.407   8.215  0.6577 -1.1374  0.4463
   94CHL1   C23 9421   1.123   3.523   8.169 -0.2827 -0.0218 -0.3589
   94CHL1  H23A 9422   1.167   3.571   8.079  1.0781 -0.1703  0.1984
   94CHL1  H23B 9423   1.101   3.598   8.248 -2.3054 -1.1757  0.2574
   94CHL1   C24 9424   1.223   3.413   8.203  0.2955 -0.3862 -0.2166
   94CHL1  H24A 9425   1.205   3.378   8.307  1.5366 -0.7560 -0.1161
   94CHL1  H24B 9426   1.202   3.330   8.132 -2.1122 -0.3464  0.3423
   94CHL1   C25 9427   1.373   3.451   8.181  0.2726  0.0115  0.0285
   94CHL1   H25 9428   1.398   3.474   8.075  1.2040 -1.2937 -0.0634
   94CHL1   C26 9429   1.405   3.572   8.267  0.2456 -0.3605 -0.6292
   94CHL1  H26A 9430   1.343   3.652   8.221  1.6297 -0.9961 -3.8448
   94CHL1  H26B 9431   1.380   3.562   8.375  1.7317  2.8708  0.1273
   94CHL1  H26C 9432   1.513   3.590   8.256  0.5021 -0.2558  1.5891
   94CHL1   C27 9433   1.460   3.334   8.220 -0.3500  0.2688 -0.3440
   94CHL1  H27A 9434   1.450   3.321   8.330  1.9126  1.8601  0.1204
   94CHL1  H27B 9435   1.430   3.243   8.164 -0.8628 -0.3433  0.8818
   94CHL1  H27C 9436   1.568   3.349   8.201 -0.5355  1.0707 -0.8285
   95CHL1    C3 9437   2.420   3.862   6.726  0.9269  0.7254  0.2575
   95CHL1    H3 9438   2.314   3.852   6.756  0.2588 -0.8737 -2.3330
   95CHL1    O3 9439   2.437   3.907   6.591 -0.1086 -0.0587  0.1929
   95CHL1   H3' 9440   2.412   4.000   6.598  1.0845  0.2053  1.5680
   95CHL1    C4 9441   2.498   3.955   6.820  0.1704 -0.6508  0.2607
   95CHL1   H4A 9442   2.591   3.982   6.765 -0.8042  0.6912 -0.7804
   95CHL1   H4B 9443   2.436   4.047   6.819  1.7188  0.4442  0.4274
   95CHL1    C5 9444   2.512   3.887   6.951 -0.0845 -0.2821  0.2087
   95CHL1    C6 9445   2.463   3.955   7.056 -0.3859  0.4059  0.2086
   95CHL1    H6 9446   2.425   4.056   7.037  1.0594  0.7031 -1.3502
   95CHL1    C7 9447   2.473   3.919   7.197 -0.1450 -0.2397  0.5748
   95CHL1   H7A 9448   2.501   4.009   7.256  0.5279  1.5093 -2.2211
   95CHL1   H7B 9449   2.373   3.882   7.229 -0.1769 -2.0169 -1.3498
   95CHL1    C8 9450   2.579   3.802   7.210  0.1703 -0.2953 -0.2850
   95CHL1    H8 9451   2.679   3.849   7.214  0.6043 -0.8122 -2.9683
   95CHL1   C14 9452   2.556   3.741   7.345  0.4176 -0.7317  0.6263
   95CHL1   H14 9453   2.454   3.699   7.355  0.0949  0.1297  0.9813
   95CHL1   C15 9454   2.554   3.843   7.458 -0.9261  0.3024  0.9755
   95CHL1  H15A 9455   2.641   3.908   7.433 -0.3494 -0.3501  1.2325
   95CHL1  H15B 9456   2.466   3.910   7.469 -1.7088 -0.8430  1.9216
   95CHL1   C16 9457   2.576   3.759   7.581  0.5814 -0.2315 -0.5555
   95CHL1  H16A 9458   2.656   3.800   7.647  1.5611  1.7163 -2.8506
   95CHL1  H16B 9459   2.475   3.752   7.627  0.4229 -0.4523 -0.9308
   95CHL1   C17 9460   2.611   3.618   7.535 -0.4485 -0.2583  0.0772
   95CHL1   H17 9461   2.527   3.546   7.537 -0.2000 -0.6563 -1.7220
   95CHL1   C13 9462   2.659   3.631   7.383 -0.4442 -0.1871 -1.0759
   95CHL1   C18 9463   2.805   3.683   7.377 -0.3230 -0.7560  0.2508
   95CHL1  H18A 9464   2.826   3.721   7.274 -2.2960  0.1737  0.1466
   95CHL1  H18B 9465   2.815   3.777   7.435  0.2350 -0.9141  0.4152
   95CHL1  H18C 9466   2.881   3.610   7.413  1.1512  0.8597  0.5290
   95CHL1   C12 9467   2.651   3.517   7.293 -0.9949  0.5295  0.4187
   95CHL1  H12A 9468   2.735   3.449   7.320 -0.0625  1.9362  1.1702
   95CHL1  H12B 9469   2.560   3.458   7.315  0.5374 -1.6868  1.2540
   95CHL1   C11 9470   2.658   3.568   7.142  0.1384  0.8343 -0.2472
   95CHL1  H11A 9471   2.766   3.592   7.136  0.1781  1.3156  1.7847
   95CHL1  H11B 9472   2.650   3.486   7.066  1.4675  0.2672  0.2033
   95CHL1    C9 9473   2.573   3.692   7.106 -1.0133  0.4200 -0.0269
   95CHL1    H9 9474   2.467   3.658   7.101 -0.8748 -0.0315  0.1083
   95CHL1   C10 9475   2.590   3.749   6.958  0.2272 -0.0397 -0.3278
   95CHL1   C19 9476   2.736   3.759   6.911  0.2038  0.1336  0.0916
   95CHL1  H19A 9477   2.798   3.826   6.974  2.0186 -0.0396 -1.4361
   95CHL1  H19B 9478   2.780   3.659   6.930  0.6211  0.3311  0.1893
   95CHL1  H19C 9479   2.734   3.794   6.805 -0.2207  3.4211  1.0783
   95CHL1    C1 9480   2.507   3.655   6.858 -0.1228  0.1709 -0.1312
   95CHL1   H1A 9481   2.566   3.561   6.849 -2.2436 -1.0676 -2.3394
   95CHL1   H1B 9482   2.406   3.631   6.900 -0.6427  1.1125 -0.8119
   95CHL1    C2 9483   2.480   3.712   6.719  0.5888  0.1623 -0.2739
   95CHL1   H2A 9484   2.399   3.659   6.665  0.2902  0.3900 -0.0552
   95CHL1   H2B 9485   2.573   3.712   6.658  0.9570 -0.6929  0.2718
   95CHL1   C20 9486   2.709   3.560   7.635  0.4178  1.1260  0.7522
   95CHL1   H20 9487   2.797   3.625   7.657  2.3953 -1.2302  0.2549
   95CHL1   C21 9488   2.769   3.425   7.593  1.1427  0.0163 -0.9295
   95CHL1  H21A 9489   2.840   3.382   7.667  0.3292  0.9570  0.4291
   95CHL1  H21B 9490   2.830   3.442   7.502 -0.9161 -2.0365 -2.8144
   95CHL1  H21C 9491   2.692   3.350   7.564  2.6227 -1.2616 -1.7428
   95CHL1   C22 9492   2.645   3.545   7.772  0.3277 -0.3366  0.1959
   95CHL1  H22A 9493   2.613   3.647   7.801  1.9447  0.1604  0.3498
   95CHL1  H22B 9494   2.568   3.466   7.759  1.9321 -1.8321 -0.7126
   95CHL1   C23 9495   2.735   3.490   7.881 -0.2395 -0.4382  0.0487
   95CHL1  H23A 9496   2.769   3.386   7.864 -0.1931 -0.4250  0.0628
   95CHL1  H23B 9497   2.808   3.569   7.910 -1.7786  1.2181 -0.3911
   95CHL1   C24 9498   2.664   3.475   8.018  0.1458 -0.9812 -0.3564
   95CHL1  H24A 9499   2.619   3.574   8.041  2.9001  0.5353 -1.1356
   95CHL1  H24B 9500   2.580   3.405   8.000  0.2154 -0.9805 -0.6870
   95CHL1   C25 9501   2.760   3.438   8.129  0.1115 -0.2474 -1.1992
   95CHL1   H25 9502   2.816   3.344   8.114  2.7736  1.2947 -1.4449
   95CHL1   C26 9503   2.867   3.558   8.149 -0.0106 -0.0579  0.9083
   95CHL1  H26A 9504   2.927   3.569   8.242 -0.8514  3.6395  1.1446
   95CHL1  H26B 9505   2.941   3.540   8.069  2.6489 -0.3605  3.2751
   95CHL1  H26C 9506   2.811   3.653   8.134 -0.1477 -0.0742  1.2967
   95CHL1   C27 9507   2.696   3.397   8.255  0.1179 -0.0950 -0.8739
   95CHL1  H27A 9508   2.655   3.481   8.316  1.2431 -0.2259  0.1038
   95CHL1  H27B 9509   2.609   3.329   8.246 -2.3179  2.9758 -3.0308
   95CHL1  H27C 9510   2.762   3.343   8.326 -0.5676  1.4503  1.0351
   96CHL1    C3 9511   1.946   2.575   6.681  0.4925  1.0739 -0.1242
   96CHL1    H3 9512   1.842   2.539   6.690  0.7610 -0.3216 -1.9804
   96CHL1    O3 9513   1.999   2.553   6.552 -0.1186  0.3724  0.0619
   96CHL1   H3' 9514   1.983   2.461   6.531  0.0074  0.0361  1.3484
   96CHL1    C4 9515   1.942   2.717   6.722  0.3638 -1.0044  0.5479
   96CHL1   H4A 9516   2.046   2.757   6.721  0.7702 -2.0304 -1.0327
   96CHL1   H4B 9517   1.871   2.772   6.657  0.0663 -0.5209  1.2640
   96CHL1    C5 9518   1.892   2.725   6.865  0.2039 -0.5987  0.5237
   96CHL1    C6 9519   1.784   2.802   6.890 -0.0606  0.2249  0.3372
   96CHL1    H6 9520   1.738   2.863   6.811  1.6457  0.3523 -0.5849
   96CHL1    C7 9521   1.736   2.824   7.033 -0.0125 -0.5305 -1.0862
   96CHL1   H7A 9522   1.715   2.930   7.057  1.2821 -0.7669  1.4032
   96CHL1   H7B 9523   1.634   2.781   7.050 -0.6555  1.2938 -0.1079
   96CHL1    C8 9524   1.828   2.783   7.150  0.0156  0.0052 -0.4782
   96CHL1    H8 9525   1.905   2.863   7.148  0.4547 -0.3925  0.0365
   96CHL1   C14 9526   1.755   2.775   7.286 -0.4241 -0.1074  0.5539
   96CHL1   H14 9527   1.682   2.691   7.281  0.5149 -0.8968 -0.1227
   96CHL1   C15 9528   1.674   2.899   7.330  0.7417  0.4011 -0.5848
   96CHL1  H15A 9529   1.724   2.990   7.290  1.1841  1.1041  1.4404
   96CHL1  H15B 9530   1.568   2.899   7.296 -0.8910 -1.2857  3.8462
   96CHL1   C16 9531   1.677   2.894   7.484  0.6412 -0.1091 -0.1276
   96CHL1  H16A 9532   1.714   2.988   7.531  0.4550  1.4294 -2.8670
   96CHL1  H16B 9533   1.572   2.888   7.520  0.5031  1.7468 -0.1222
   96CHL1   C17 9534   1.758   2.765   7.525 -0.3537 -0.1115 -0.3627
   96CHL1   H17 9535   1.685   2.681   7.523 -1.1090  0.5286 -0.1271
   96CHL1   C13 9536   1.854   2.738   7.403  0.3839 -0.5646  0.5870
   96CHL1   C18 9537   1.963   2.847   7.419  0.1750 -0.4503  0.0887
   96CHL1  H18A 9538   2.035   2.818   7.498  0.9788 -3.8694 -1.6728
   96CHL1  H18B 9539   2.023   2.848   7.325  0.8921  1.7364  0.5149
   96CHL1  H18C 9540   1.916   2.945   7.436 -2.4296 -1.8256  1.4138
   96CHL1   C12 9541   1.903   2.595   7.373  0.2160  0.1194 -0.2828
   96CHL1  H12A 9542   1.980   2.566   7.448  1.0031  0.1181 -1.0689
   96CHL1  H12B 9543   1.815   2.528   7.366  0.8740 -0.7636 -0.1958
   96CHL1   C11 9544   1.969   2.585   7.239  0.6590  0.1173 -0.1369
   96CHL1  H11A 9545   2.062   2.644   7.248  0.6506  0.1863 -0.4813
   96CHL1  H11B 9546   2.002   2.481   7.221 -0.7583 -0.6870  1.5960
   96CHL1    C9 9547   1.891   2.640   7.115 -0.3799  0.0153  0.6657
   96CHL1    H9 9548   1.801   2.579   7.092  0.0381 -0.0677 -0.8798
   96CHL1   C10 9549   1.964   2.640   6.976 -0.1223 -0.2721 -0.2270
   96CHL1   C19 9550   2.106   2.710   7.003 -0.5348  0.0006  0.4916
   96CHL1  H19A 9551   2.175   2.653   7.068 -0.9502 -1.1486 -0.0485
   96CHL1  H19B 9552   2.154   2.732   6.905  1.0541 -0.1381  1.1971
   96CHL1  H19C 9553   2.093   2.806   7.056 -2.1032 -0.8157  1.6688
   96CHL1    C1 9554   1.986   2.501   6.924  0.2425  0.4036 -0.4308
   96CHL1   H1A 9555   2.062   2.455   6.990  0.5274  1.5970  0.0859
   96CHL1   H1B 9556   1.895   2.438   6.934 -0.5921  1.8265  1.4679
   96CHL1    C2 9557   2.038   2.493   6.781 -0.5152  0.1656  0.7755
   96CHL1   H2A 9558   2.036   2.390   6.740 -0.3196  0.5590 -0.2487
   96CHL1   H2B 9559   2.141   2.532   6.767 -0.3370 -0.6176 -0.1900
   96CHL1   C20 9560   1.820   2.778   7.663 -0.1756  0.0699 -0.4190
   96CHL1   H20 9561   1.877   2.873   7.658 -3.4933  2.3957  1.7729
   96CHL1   C21 9562   1.902   2.652   7.699 -0.3238  0.7645  0.2804
   96CHL1  H21A 9563   1.847   2.557   7.686 -2.0822  1.7690  0.0530
   96CHL1  H21B 9564   1.926   2.667   7.806  0.0110 -2.3858  0.7221
   96CHL1  H21C 9565   2.001   2.648   7.648  0.3916 -2.5457  1.6677
   96CHL1   C22 9566   1.714   2.803   7.775  0.3055  1.0379  0.1595
   96CHL1  H22A 9567   1.643   2.882   7.744  0.4965  0.6776 -1.2643
   96CHL1  H22B 9568   1.657   2.709   7.788  1.0343  0.4682 -0.6127
   96CHL1   C23 9569   1.779   2.836   7.907  0.4938  0.1354 -0.0943
   96CHL1  H23A 9570   1.839   2.749   7.941  1.4018 -0.0713 -2.0761
   96CHL1  H23B 9571   1.846   2.924   7.896  2.8105 -1.8457 -3.4908
   96CHL1   C24 9572   1.665   2.861   8.008 -0.1865 -0.1256  0.2284
   96CHL1  H24A 9573   1.601   2.945   7.974 -0.7159 -0.4907  0.3082
   96CHL1  H24B 9574   1.608   2.767   7.992  0.1546 -0.4380  0.7844
   96CHL1   C25 9575   1.717   2.876   8.153  0.1409  0.4892  0.2027
   96CHL1   H25 9576   1.786   2.790   8.168 -0.8267 -0.1053  1.4035
   96CHL1   C26 9577   1.803   3.006   8.173  0.5016  0.2083  0.0681
   96CHL1  H26A 9578   1.890   3.013   8.105  1.1169  1.7029  0.9518
   96CHL1  H26B 9579   1.746   3.102   8.165 -0.0045  0.1872  2.6284
   96CHL1  H26C 9580   1.850   3.005   8.274  0.5405 -0.5541  0.0466
   96CHL1   C27 9581   1.610   2.867   8.267  0.6237 -0.2210  0.1100
   96CHL1  H27A 9582   1.662   2.862   8.365  1.1838 -0.7066 -0.2005
   96CHL1  H27B 9583   1.540   2.953   8.259 -0.7218 -1.2060  0.8422
   96CHL1  H27C 9584   1.555   2.771   8.253 -0.3750  0.4921 -1.0596
   97OSM      N 9585   5.157   5.899  11.158 -0.3711  0.2252 -0.8852
   97OSM    C15 9586   5.253   5.934  11.263 -0.8564  0.4516  0.7179
   97OSM   H15A 9587   5.241   6.034  11.302 -1.0520  0.1144  1.5391
   97OSM   H15B 9588   5.347   5.923  11.212 -2.4295 -2.0276 -2.0059
   97OSM   H15C 9589   5.246   5.866  11.347  0.5863  1.3128  1.5730
   97OSM    C14 9590   5.015   5.892  11.214 -0.2475 -0.4821 -0.7559
   97OSM   H14A 9591   4.939   5.870  11.140 -0.6604 -0.7292 -0.2553
   97OSM   H14B 9592   5.000   5.990  11.257  0.9216  1.5156 -4.4616
   97OSM   H14C 9593   5.007   5.811  11.285 -0.1156 -0.4693 -0.7275
   97OSM    C13 9594   5.155   6.002  11.051 -0.2587  0.0863 -0.5763
   97OSM   H13A 9595   5.099   6.092  11.075 -1.9165 -1.2371  0.7065
   97OSM   H13B 9596   5.100   5.961  10.967  1.2599 -0.5919 -1.2690
   97OSM   H13C 9597   5.252   6.026  11.010 -0.9080  1.7143 -1.2878
   97OSM    C12 9598   5.195   5.760  11.107  0.0177 -0.3501 -0.0989
   97OSM   H12A 9599   5.108   5.725  11.053 -0.6327 -2.8812  2.3225
   97OSM   H12B 9600   5.207   5.695  11.193  0.5698  0.2038  0.2499
   97OSM    C11 9601   5.315   5.756  11.013 -0.2895 -1.0033  0.1255
   97OSM   H11A 9602   5.305   5.817  10.920  0.0143 -0.9562  0.1229
   97OSM   H11B 9603   5.328   5.654  10.971 -1.5516 -0.6390 -1.2271
   97OSM      P 9604   5.512   5.705  11.179  0.0518 -0.0563  0.0644
   97OSM    O13 9605   5.597   5.800  11.255  0.3359 -0.1961 -0.1286
   97OSM    O14 9606   5.415   5.620  11.251  0.8682  0.7664 -0.6427
   97OSM    O11 9607   5.619   5.626  11.095  0.0259 -0.1315 -0.0592
   97OSM    O12 9608   5.433   5.796  11.079  1.0847  0.3591  0.1853
   97OSM    C1S 9609   5.650   5.661  10.958  0.0222  0.4826 -0.3872
   97OSM    H1S 9610   5.594   5.751  10.926 -1.5168  0.0655  0.9955
   97OSM    H1T 9611   5.626   5.578  10.889  0.2202 -0.3895  0.5790
   97OSM     NF 9612   5.818   5.709  10.786  0.4898 -0.3447 -0.2146
   97OSM    HNF 9613   5.876   5.645  10.736  0.4134  0.1698 -0.9641
   97OSM    C2S 9614   5.802   5.695  10.934  0.4334 -0.4610  0.2698
   97OSM    H2S 9615   5.825   5.792  10.983  4.6679  0.8355 -3.5656
   97OSM    C3S 9616   5.900   5.594  10.991 -0.1942  0.0588 -0.5720
   97OSM    H3S 9617   5.876   5.491  10.956  0.0351  0.2455 -1.3009
   97OSM     O3 9618   5.898   5.596  11.133 -0.0699  0.0866 -0.4140
   97OSM    HO3 9619   5.822   5.652  11.152 -0.8296 -1.3653  1.0568
   97OSM    C4S 9620   6.044   5.635  10.961  0.2822  0.2413  0.2661
   97OSM    H4S 9621   6.076   5.734  10.996 -0.9340  0.5707  0.4866
   97OSM    C5S 9622   6.135   5.561  10.899  0.0567  0.4859 -0.3035
   97OSM    H5S 9623   6.116   5.453  10.888  1.1348  0.0664  1.4113
   97OSM    C6S 9624   6.282   5.615  10.886 -0.2428  0.8302  0.5255
   97OSM    H6S 9625   6.359   5.554  10.937 -1.2549  0.2032  1.3572
   97OSM    H6T 9626   6.296   5.716  10.929  0.8073  0.7038  0.5046
   97OSM    C7S 9627   6.318   5.632  10.737  0.3892  0.4051  0.6865
   97OSM    H7S 9628   6.320   5.532  10.690  1.6467  0.6755  0.1218
   97OSM    H7T 9629   6.421   5.675  10.736  0.0178  1.3287 -0.8746
   97OSM    C8S 9630   6.232   5.719  10.644  0.6709 -0.0446 -0.2289
   97OSM    H8S 9631   6.198   5.803  10.709  0.8604  0.8369 -1.2446
   97OSM    H8T 9632   6.137   5.671  10.613  0.8339 -1.5513  1.4218
   97OSM    C9S 9633   6.301   5.769  10.509  1.0046  1.0999 -0.0660
   97OSM    H9S 9634   6.383   5.832  10.549  0.2956  0.0706  3.3385
   97OSM    H9T 9635   6.224   5.829  10.456 -1.6172 -0.0516  2.1383
   97OSM   C10S 9636   6.324   5.644  10.427  0.1205  0.0204  1.0010
   97OSM   H10S 9637   6.231   5.584  10.434 -0.0337 -0.1469 -1.6164
   97OSM   H10T 9638   6.395   5.568  10.465 -0.8404 -1.2473  0.3491
   97OSM   C11S 9639   6.349   5.659  10.271 -0.2316 -0.0636  0.1355
   97OSM   H11S 9640   6.439   5.722  10.257 -1.0357  0.7969 -1.4029
   97OSM   H11T 9641   6.256   5.703  10.228 -0.3627 -1.2889 -0.8962
   97OSM   C12S 9642   6.361   5.523  10.207  0.2500  0.7433  0.0281
   97OSM   H12S 9643   6.435   5.459  10.259 -0.3965  1.1109  1.4455
   97OSM   H12T 9644   6.397   5.531  10.102  0.8303  1.4007  0.2727
   97OSM   C13S 9645   6.235   5.443  10.174  0.0815  0.2217 -0.4061
   97OSM   H13S 9646   6.144   5.507  10.174  1.0207  1.6287 -1.9042
   97OSM   H13T 9647   6.227   5.363  10.250  1.1245 -1.2555 -1.7810
   97OSM   C14S 9648   6.231   5.360  10.042 -0.3065  0.1253 -0.0649
   97OSM   H14S 9649   6.143   5.293  10.046  0.0434 -0.2918  3.4386
   97OSM   H14T 9650   6.321   5.296  10.035  0.1007  0.6619  0.1876
   97OSM   C15S 9651   6.215   5.451   9.920  0.2021  0.7120  0.0633
   97OSM   H15S 9652   6.296   5.526   9.925  1.8424 -0.7226 -2.7204
   97OSM   H15T 9653   6.117   5.503   9.930  0.4177  1.3078 -0.8230
   97OSM   C16S 9654   6.224   5.383   9.783  0.0126 -0.7531  0.3802
   97OSM   H16S 9655   6.148   5.304   9.766 -0.7784  0.5256 -2.7297
   97OSM   H16T 9656   6.324   5.334   9.779  1.1084  1.3543  0.2335
   97OSM   C17S 9657   6.219   5.500   9.676 -0.0254  0.4948  0.1099
   97OSM   H17S 9658   6.303   5.571   9.687 -0.3249  0.8385  0.1816
   97OSM   H17T 9659   6.126   5.558   9.691 -0.7668 -0.4716 -0.6354
   97OSM   C18S 9660   6.224   5.456   9.535 -0.8242  0.8561 -0.4091
   97OSM   H18S 9661   6.125   5.424   9.495 -0.2640 -2.2159  0.3802
   97OSM   H18T 9662   6.287   5.366   9.518 -1.6428 -0.0866  1.2544
   97OSM   H18U 9663   6.265   5.537   9.471  3.0351 -0.1813  0.5239
   97OSM    C1F 9664   5.765   5.802  10.712 -0.8427  0.2393  0.7549
   97OSM     OF 9665   5.713   5.903  10.764 -0.0695  0.7310 -0.0205
   97OSM    C2F 9666   5.764   5.779  10.564  0.5563 -0.4491 -0.2357
   97OSM    H2F 9667   5.815   5.862  10.510  0.0035 -0.5350 -0.9131
   97OSM    H2G 9668   5.658   5.769  10.532  1.3111 -1.5995 -2.6677
   97OSM    C3F 9669   5.807   5.650  10.498 -0.4740  0.7065  0.3106
   97OSM    H3F 9670   5.755   5.574  10.559  1.8653  1.7475  3.9088
   97OSM    H3G 9671   5.915   5.629  10.513 -0.0137  2.0054 -0.9255
   97OSM    C4F 9672   5.769   5.651  10.355 -0.4428  0.2672 -0.8512
   97OSM    H4F 9673   5.663   5.684  10.352 -0.0547  1.8733  1.0276
   97OSM    H4G 9674   5.777   5.551  10.307 -2.3980 -1.0699  1.3845
   97OSM    C5F 9675   5.872   5.735  10.271  0.3913 -0.8433 -0.4635
   97OSM    H5F 9676   5.964   5.675  10.249 -0.0182 -1.9907  0.8011
   97OSM    H5G 9677   5.913   5.824  10.323 -0.8193 -0.1945 -0.5789
   97OSM    C6F 9678   5.822   5.787  10.137 -0.4967  0.4897 -0.1290
   97OSM    H6F 9679   5.731   5.845  10.162  0.0622  1.2410  0.1900
   97OSM    H6G 9680   5.775   5.709  10.072 -0.4967  0.0172  0.4293
   97OSM    C7F 9681   5.920   5.872  10.055 -0.2645 -0.3529 -0.0875
   97OSM    H7F 9682   6.024   5.863  10.094 -0.7049 -0.7136  1.0661
   97OSM    H7G 9683   5.886   5.978  10.058 -2.1189 -0.9346  1.8796
   97OSM    C8F 9684   5.935   5.830   9.905 -0.0203  0.4988  0.5107
   97OSM    H8F 9685   5.955   5.720   9.913  1.6570  0.3770 -3.2216
   97OSM    H8G 9686   6.025   5.885   9.868 -0.9203  1.5289 -0.1903
   97OSM    C9F 9687   5.813   5.848   9.816  0.2665  0.6248 -0.0156
   97OSM    H9F 9688   5.724   5.876   9.874  1.3060 -0.1903  2.1038
   97OSM   C10F 9689   5.807   5.825   9.685  0.2533 -0.0710  0.3714
   97OSM   H10F 9690   5.716   5.818   9.623  1.6067 -2.1066 -1.5317
   97OSM   C11F 9691   5.920   5.769   9.607  0.0465 -0.0462  0.5355
   97OSM   H11F 9692   5.970   5.696   9.674  1.0314 -2.3348 -2.5057
   97OSM   H11G 9693   5.990   5.854   9.590  1.7065 -0.9910  2.2335
   97OSM   C12F 9694   5.868   5.699   9.477  0.3715 -0.2971 -0.3299
   97OSM   H12F 9695   5.821   5.605   9.511 -0.7332  0.2566 -0.2831
   97OSM   H12G 9696   5.965   5.669   9.431 -0.5339 -2.5344 -0.8825
   97OSM   C13F 9697   5.792   5.785   9.374 -0.9870 -0.3051 -0.1674
   97OSM   H13F 9698   5.850   5.879   9.385 -1.1748 -0.2944  0.8040
   97OSM   H13G 9699   5.685   5.804   9.399 -1.0213 -0.1597 -0.4216
   97OSM   C14F 9700   5.821   5.736   9.225 -0.1555 -0.4952 -0.4413
   97OSM   H14F 9701   5.925   5.726   9.188 -0.6816  2.1691 -3.0702
   97OSM   H14G 9702   5.774   5.814   9.162  0.8817  3.9706  3.7672
   97OSM   C15F 9703   5.752   5.605   9.191 -0.0492 -0.2004  0.0867
   97OSM   H15F 9704   5.653   5.619   9.143  1.3403  0.8859 -2.6980
   97OSM   H15G 9705   5.741   5.555   9.290 -1.8920  1.8876  1.0121
   97OSM   C16F 9706   5.834   5.506   9.104  0.2608 -0.1986 -0.0053
   97OSM   H16F 9707   5.875   5.559   9.015 -0.5246 -1.1891 -0.9883
   97OSM   H16G 9708   5.768   5.428   9.059 -0.1400  0.4923 -0.6429
   97OSM   C17F 9709   5.946   5.428   9.176 -0.7516 -0.0710  0.0290
   97OSM   H17F 9710   5.906   5.368   9.261 -0.6412 -0.9033 -0.5000
   97OSM   H17G 9711   6.022   5.499   9.215  1.2552 -1.2609 -1.4655
   97OSM   C18F 9712   6.015   5.323   9.084  0.4352 -0.1168 -0.3796
   97OSM   H18F 9713   5.943   5.253   9.037  1.8322 -2.9221  1.3540
   97OSM   H18G 9714   6.089   5.260   9.139 -0.3279  0.1503  0.9801
   97OSM   H18H 9715   6.060   5.381   9.000 -1.7561  0.3348 -1.3091
   98OSM      N 9716   5.353   4.007  11.430 -0.2092 -0.0779  0.1670
   98OSM    C15 9717   5.274   3.953  11.310  0.3111 -0.0753 -0.5267
   98OSM   H15A 9718   5.314   3.860  11.272  0.0826 -0.7964  0.9018
   98OSM   H15B 9719   5.266   4.016  11.224 -2.6734 -0.0149 -0.3133
   98OSM   H15C 9720   5.175   3.919  11.338  0.0231 -1.5234 -3.0585
   98OSM    C14 9721   5.291   4.121  11.493 -0.7938 -0.6852  0.1884
   98OSM   H14A 9722   5.186   4.103  11.504 -0.9713  0.0406 -0.1959
   98OSM   H14B 9723   5.315   4.208  11.432 -0.1958 -0.2048  1.0806
   98OSM   H14C 9724   5.324   4.149  11.592 -0.2480  0.0263 -0.1837
   98OSM    C13 9725   5.357   3.896  11.538  0.5417 -0.3322  0.1026
   98OSM   H13A 9726   5.433   3.822  11.518 -0.2232 -1.8226  2.3276
   98OSM   H13B 9727   5.259   3.853  11.550 -0.1333  1.1322  0.0686
   98OSM   H13C 9728   5.387   3.932  11.635 -0.2586 -0.2766  0.3358
   98OSM    C12 9729   5.498   4.033  11.384 -0.0707  0.3978  0.8471
   98OSM   H12A 9730   5.530   3.937  11.347 -1.6692 -0.0850  0.6313
   98OSM   H12B 9731   5.559   4.052  11.471  1.3218  0.2882 -0.0771
   98OSM    C11 9732   5.531   4.145  11.279 -0.3284  0.5468 -0.6756
   98OSM   H11A 9733   5.642   4.144  11.284 -0.2553 -0.9561 -1.7287
   98OSM   H11B 9734   5.501   4.245  11.316 -1.6110 -0.3111  0.7093
   98OSM      P 9735   5.541   3.990  11.074  0.1999  0.2988  0.4887
   98OSM    O13 9736   5.663   4.039  11.004  0.0220 -0.5582 -0.2747
   98OSM    O14 9737   5.550   3.871  11.161 -0.0744  0.4150 -0.5719
   98OSM    O11 9738   5.443   3.959  10.962  0.1588 -0.2233 -0.3555
   98OSM    O12 9739   5.477   4.109  11.154 -0.1210 -0.3989  0.5321
   98OSM    C1S 9740   5.418   4.046  10.852  0.1052 -0.0368  0.0653
   98OSM    H1S 9741   5.449   4.151  10.868  0.7047  0.0200 -1.2785
   98OSM    H1T 9742   5.313   4.043  10.814  0.5275  0.9963 -1.2539
   98OSM     NF 9743   5.467   4.072  10.604 -0.0924 -1.2766  0.3715
   98OSM    HNF 9744   5.390   4.040  10.549 -1.2111 -0.5764  1.4785
   98OSM    C2S 9745   5.500   3.995  10.721 -0.2165 -0.1441  0.6787
   98OSM    H2S 9746   5.607   4.000  10.750 -0.8214  1.0302  2.9853
   98OSM    C3S 9747   5.478   3.840  10.699 -0.4412  0.2333 -1.0433
   98OSM    H3S 9748   5.369   3.825  10.682 -0.4830  1.7799 -2.2999
   98OSM     O3 9749   5.519   3.751  10.806  0.2788 -0.0076 -0.5554
   98OSM    HO3 9750   5.534   3.806  10.883 -1.8849 -0.0753 -0.0320
   98OSM    C4S 9751   5.556   3.793  10.580  0.4525 -0.4659  0.1971
   98OSM    H4S 9752   5.650   3.849  10.570  0.5869 -0.5990  0.6658
   98OSM    C5S 9753   5.508   3.714  10.486 -0.4268 -0.8039 -0.4552
   98OSM    H5S 9754   5.404   3.683  10.499 -0.8771  0.9333  0.3029
   98OSM    C6S 9755   5.574   3.665  10.358 -0.4143  0.6606  0.1555
   98OSM    H6S 9756   5.544   3.561  10.335  0.7484  0.4941 -0.6998
   98OSM    H6T 9757   5.683   3.666  10.378 -0.4995  0.4334  0.6460
   98OSM    C7S 9758   5.553   3.756  10.230 -0.8444  0.4804  0.1767
   98OSM    H7S 9759   5.550   3.862  10.263 -0.1310  0.3920  0.5465
   98OSM    H7T 9760   5.451   3.735  10.191 -1.6516  0.1451  2.3471
   98OSM    C8S 9761   5.660   3.731  10.123 -0.0500 -1.0091 -0.7967
   98OSM    H8S 9762   5.640   3.627  10.089 -0.7846 -1.4034  0.7771
   98OSM    H8T 9763   5.759   3.741  10.173 -0.0877  2.2095 -1.1568
   98OSM    C9S 9764   5.648   3.817   9.999  0.0647 -0.1477 -0.1174
   98OSM    H9S 9765   5.653   3.921  10.036 -1.3928 -0.0963 -0.0132
   98OSM    H9T 9766   5.544   3.803   9.964  0.6211 -0.8023 -1.6314
   98OSM   C10S 9767   5.746   3.792   9.881  0.5736 -0.3955 -0.5394
   98OSM   H10S 9768   5.748   3.682   9.861  0.8621 -0.0493 -2.6328
   98OSM   H10T 9769   5.849   3.827   9.900  1.6055 -0.8844 -4.4149
   98OSM   C11S 9770   5.711   3.858   9.745  0.9809 -0.3252 -0.1798
   98OSM   H11S 9771   5.729   3.967   9.745  1.1483 -0.3056  1.9846
   98OSM   H11T 9772   5.607   3.838   9.712  0.6642 -0.0537  0.6248
   98OSM   C12S 9773   5.793   3.798   9.633 -0.1455  0.3056  0.4881
   98OSM   H12S 9774   5.773   3.689   9.620 -0.4032 -0.0369  3.1322
   98OSM   H12T 9775   5.903   3.810   9.641 -0.1229  0.0424  0.6096
   98OSM   C13S 9776   5.762   3.858   9.497  0.2545  0.0485 -0.4832
   98OSM   H13S 9777   5.764   3.969   9.495  1.0818  0.0348 -1.7961
   98OSM   H13T 9778   5.659   3.822   9.478  0.4371 -1.9630  1.8926
   98OSM   C14S 9779   5.863   3.810   9.392  0.7734 -0.6101  0.6831
   98OSM   H14S 9780   5.838   3.707   9.356 -0.3944  0.0000 -0.3398
   98OSM   H14T 9781   5.967   3.797   9.429  1.3121 -0.0575 -0.6042
   98OSM   C15S 9782   5.865   3.893   9.268 -0.9232  0.1327 -0.0634
   98OSM   H15S 9783   5.902   3.994   9.297  0.5966 -0.7096  1.1146
   98OSM   H15T 9784   5.764   3.902   9.223 -0.4154  0.4996 -1.1464
   98OSM   C16S 9785   5.965   3.842   9.154 -0.5010 -0.2473 -0.5769
   98OSM   H16S 9786   5.943   3.736   9.126 -0.0153  0.0760 -2.2937
   98OSM   H16T 9787   6.061   3.843   9.209 -0.8062  1.2522 -0.0323
   98OSM   C17S 9788   5.970   3.931   9.032  0.1446 -0.4544 -0.1004
   98OSM   H17S 9789   6.019   4.025   9.063 -0.5955  0.2090 -0.8872
   98OSM   H17T 9790   5.871   3.967   8.997 -1.2761 -3.1284  0.8606
   98OSM   C18S 9791   6.053   3.878   8.914  0.8086 -0.6074  0.4454
   98OSM   H18S 9792   6.160   3.885   8.939  0.1545  1.5390  3.0565
   98OSM   H18T 9793   6.022   3.928   8.819 -1.8192 -1.5746  0.7031
   98OSM   H18U 9794   6.023   3.773   8.891  2.0999 -0.8766 -0.0756
   98OSM    C1F 9795   5.531   4.184  10.580 -0.9184  0.1687  0.1154
   98OSM     OF 9796   5.615   4.218  10.662  0.4938 -0.4174  0.5879
   98OSM    C2F 9797   5.508   4.261  10.456 -0.1633 -0.5220 -0.7602
   98OSM    H2F 9798   5.423   4.330  10.469  0.1530 -0.5956  2.3877
   98OSM    H2G 9799   5.480   4.183  10.382 -0.1363 -1.7822  0.5053
   98OSM    C3F 9800   5.644   4.321  10.409 -0.2850 -0.0059 -0.0888
   98OSM    H3F 9801   5.719   4.242  10.390  0.6968  1.0915 -0.8365
   98OSM    H3G 9802   5.682   4.382  10.494 -1.5752 -0.6885  1.0205
   98OSM    C4F 9803   5.636   4.417  10.293  0.1685 -0.6577 -0.3742
   98OSM    H4F 9804   5.584   4.361  10.212 -0.2552 -1.4225  0.4096
   98OSM    H4G 9805   5.736   4.450  10.258  0.5027  0.6024  1.6529
   98OSM    C5F 9806   5.544   4.542  10.323 -0.0369 -0.4433 -0.3074
   98OSM    H5F 9807   5.563   4.566  10.430 -0.4982 -2.0337  0.1484
   98OSM    H5G 9808   5.440   4.507  10.306  0.4922 -1.6162 -1.2533
   98OSM    C6F 9809   5.562   4.665  10.232 -0.2416  0.3899 -0.5671
   98OSM    H6F 9810   5.672   4.672  10.221  0.3750 -2.1559  2.4616
   98OSM    H6G 9811   5.518   4.748  10.291  0.3011  0.8818 -0.8496
   98OSM    C7F 9812   5.486   4.635  10.101  0.0057  0.1600  0.1134
   98OSM    H7F 9813   5.379   4.657  10.121 -0.9024 -1.2752 -2.5970
   98OSM    H7G 9814   5.491   4.529  10.067  0.4480  0.6882 -1.5749
   98OSM    C8F 9815   5.521   4.731   9.981 -0.2906  0.4338 -0.3580
   98OSM    H8F 9816   5.525   4.836  10.018 -2.7712  0.6296 -0.4617
   98OSM    H8G 9817   5.434   4.734   9.912  0.2264  1.0612 -0.9830
   98OSM    C9F 9818   5.644   4.705   9.912 -0.4489 -0.2526  0.4796
   98OSM    H9F 9819   5.731   4.696   9.979  0.3706 -1.2717 -0.6675
   98OSM   C10F 9820   5.661   4.677   9.781  0.2800  0.1560  0.9144
   98OSM   H10F 9821   5.762   4.649   9.751 -0.8550 -1.7470 -1.5097
   98OSM   C11F 9822   5.548   4.682   9.675 -0.4721  0.6900  0.1162
   98OSM   H11F 9823   5.473   4.763   9.691 -1.1303  0.2226 -0.5325
   98OSM   H11G 9824   5.484   4.593   9.692  0.2489  0.2571  0.6154
   98OSM   C12F 9825   5.596   4.695   9.531 -1.3177  0.2422  0.1246
   98OSM   H12F 9826   5.666   4.610   9.522 -0.3620  0.8748  1.2530
   98OSM   H12G 9827   5.659   4.786   9.529  0.9594 -1.1051  2.9676
   98OSM   C13F 9828   5.491   4.677   9.423 -0.8436  0.5820 -0.6146
   98OSM   H13F 9829   5.424   4.765   9.427 -1.8257 -0.0740 -1.8826
   98OSM   H13G 9830   5.432   4.586   9.445 -1.1415  0.5571 -1.4709
   98OSM   C14F 9831   5.562   4.667   9.283 -0.5465  0.0107 -0.0274
   98OSM   H14F 9832   5.612   4.568   9.288 -1.5056 -0.5199 -0.6153
   98OSM   H14G 9833   5.638   4.747   9.273 -0.9232  0.4548  0.5762
   98OSM   C15F 9834   5.469   4.666   9.162 -0.0059  0.4298  0.3383
   98OSM   H15F 9835   5.417   4.764   9.165  0.6495  0.7673  0.8274
   98OSM   H15G 9836   5.406   4.575   9.177  1.2081 -0.5803 -0.4382
   98OSM   C16F 9837   5.535   4.651   9.018 -0.1036  0.0885 -0.0012
   98OSM   H16F 9838   5.610   4.569   9.016 -0.6028 -0.3852  0.0924
   98OSM   H16G 9839   5.586   4.744   8.985  1.3586 -0.7644 -0.2449
   98OSM   C17F 9840   5.423   4.635   8.920  0.1892 -0.7057 -0.3691
   98OSM   H17F 9841   5.353   4.720   8.934 -0.7122 -1.4947 -0.0117
   98OSM   H17G 9842   5.356   4.553   8.952 -0.3091  0.0019  0.4609
   98OSM   C18F 9843   5.483   4.617   8.781 -0.6467 -0.1840 -0.1730
   98OSM   H18F 9844   5.398   4.611   8.708 -1.2244 -2.0773  0.5885
   98OSM   H18G 9845   5.538   4.521   8.782 -1.2920 -0.5601 -0.0971
   98OSM   H18H 9846   5.553   4.699   8.755 -0.7352 -0.6211 -1.9237
   99OSM      N 9847   0.488   3.412  10.954 -0.1258 -0.2215  0.0949
   99OSM    C15 9848   0.399   3.294  10.957  0.1375 -0.6947 -0.4025
   99OSM   H15A 9849   0.414   3.232  11.044  1.0689 -1.2696 -0.9529
   99OSM   H15B 9850   0.418   3.217  10.884  1.1241 -1.6071  0.7714
   99OSM   H15C 9851   0.299   3.330  10.944  1.0966  1.9136 -1.2279
   99OSM    C14 9852   0.624   3.357  10.976 -0.2871 -0.0244 -0.1333
   99OSM   H14A 9853   0.623   3.331  11.081  0.1707  1.2710  0.2153
   99OSM   H14B 9854   0.698   3.433  10.958 -0.3728  0.4613  1.3998
   99OSM   H14C 9855   0.648   3.271  10.916  0.1649  0.2324 -0.3230
   99OSM    C13 9856   0.482   3.472  10.820 -0.1295 -0.5044  0.6966
   99OSM   H13A 9857   0.556   3.550  10.806  0.5443 -1.3492 -0.6665
   99OSM   H13B 9858   0.389   3.523  10.800  1.1290  1.5264 -0.2373
   99OSM   H13C 9859   0.499   3.405  10.737 -1.3732  2.1194 -1.8216
   99OSM    C12 9860   0.459   3.509  11.073 -0.3685 -0.9603  0.4620
   99OSM   H12A 9861   0.529   3.591  11.076 -0.8562 -0.3209 -2.5141
   99OSM   H12B 9862   0.476   3.459  11.168 -0.3591  2.2462  2.2930
   99OSM    C11 9863   0.314   3.563  11.084  0.0705  0.6669  0.2112
   99OSM   H11A 9864   0.296   3.624  11.175 -2.0513  1.1555 -0.4752
   99OSM   H11B 9865   0.251   3.473  11.099 -0.4826  1.0503  0.2332
   99OSM      P 9866   0.307   3.775  10.944  0.0498  0.1879 -0.0034
   99OSM    O13 9867   0.209   3.860  11.013  0.1747  0.4041  0.4453
   99OSM    O14 9868   0.451   3.796  10.971  0.0082 -0.7747 -0.1276
   99OSM    O11 9869   0.298   3.787  10.785 -0.1460 -0.6037 -0.4196
   99OSM    O12 9870   0.265   3.630  10.972  0.7686  0.0095 -0.2361
   99OSM    C1S 9871   0.173   3.789  10.720  0.7029  0.1816 -0.4552
   99OSM    H1S 9872   0.127   3.887  10.745 -2.7723 -1.4555  0.0591
   99OSM    H1T 9873   0.105   3.706  10.748  1.2804 -0.7554 -1.6935
   99OSM     NF 9874   0.058   3.796  10.495  0.2036 -0.4936  0.1474
   99OSM    HNF 9875   0.020   3.713  10.456  0.1002 -0.4808  0.2209
   99OSM    C2S 9876   0.185   3.785  10.562  0.3163  0.5347  0.3362
   99OSM    H2S 9877   0.246   3.874  10.536  0.7348  0.1156 -0.1472
   99OSM    C3S 9878   0.268   3.660  10.519  0.3022  0.1122  0.1274
   99OSM    H3S 9879   0.220   3.562  10.541  2.1281 -0.5124  1.6355
   99OSM     O3 9880   0.397   3.651  10.583  0.9491 -0.3836 -0.6703
   99OSM    HO3 9881   0.382   3.712  10.656 -0.0106 -0.6018 -0.6812
   99OSM    C4S 9882   0.294   3.668  10.367  0.0988 -0.4385  0.4344
   99OSM    H4S 9883   0.382   3.726  10.335 -1.3078  1.4391 -0.2162
   99OSM    C5S 9884   0.231   3.602  10.270  1.1484 -0.3502 -0.0170
   99OSM    H5S 9885   0.139   3.544  10.288  0.0116  0.8626 -1.6633
   99OSM    C6S 9886   0.259   3.610  10.121 -0.0279 -0.3588 -0.0876
   99OSM    H6S 9887   0.179   3.673  10.077  0.8944  1.4166  0.7181
   99OSM    H6T 9888   0.230   3.508  10.087 -2.3453 -0.5179  2.1033
   99OSM    C7S 9889   0.400   3.643  10.074  0.8554 -0.6798  0.0377
   99OSM    H7S 9890   0.472   3.558  10.080  1.6156 -0.2588 -2.1269
   99OSM    H7T 9891   0.451   3.713  10.143  1.7137 -1.3218  0.0716
   99OSM    C8S 9892   0.413   3.707   9.924  0.0443  0.2414 -0.1638
   99OSM    H8S 9893   0.519   3.734   9.906  0.2382 -1.0680 -1.1506
   99OSM    H8T 9894   0.357   3.803   9.930 -2.0430 -0.9843  2.1081
   99OSM    C9S 9895   0.356   3.626   9.807  0.4725  1.3435  0.2894
   99OSM    H9S 9896   0.248   3.606   9.824  0.6207 -0.4677 -0.7199
   99OSM    H9T 9897   0.417   3.533   9.800  0.8862  1.6620 -0.6171
   99OSM   C10S 9898   0.367   3.690   9.673  0.0996  0.3758  0.4433
   99OSM   H10S 9899   0.464   3.738   9.650 -0.6004  1.4594 -0.3681
   99OSM   H10T 9900   0.286   3.765   9.658 -0.8626 -0.7231  0.0092
   99OSM   C11S 9901   0.336   3.597   9.557 -0.8178  0.6311  0.4658
   99OSM   H11S 9902   0.240   3.545   9.573  0.5145 -2.3882 -0.6091
   99OSM   H11T 9903   0.413   3.517   9.564 -0.2131  0.8226 -2.3535
   99OSM   C12S 9904   0.348   3.683   9.428  0.3248  0.0913  0.2402
   99OSM   H12S 9905   0.286   3.769   9.459  0.4395 -0.8393  3.4186
   99OSM   H12T 9906   0.454   3.712   9.412  0.2108  1.6978  2.0983
   99OSM   C13S 9907   0.300   3.605   9.306 -0.0973  0.2872 -0.5966
   99OSM   H13S 9908   0.191   3.592   9.325 -0.5860  3.1552 -1.0279
   99OSM   H13T 9909   0.347   3.504   9.302  0.7265  0.6627 -0.5680
   99OSM   C14S 9910   0.325   3.688   9.181  0.5904 -0.1991 -0.3139
   99OSM   H14S 9911   0.430   3.725   9.179  0.9065 -1.1039 -1.2222
   99OSM   H14T 9912   0.261   3.779   9.185 -1.6940 -1.7550  1.3453
   99OSM   C15S 9913   0.304   3.605   9.061 -0.0801  0.3994  0.0513
   99OSM   H15S 9914   0.370   3.516   9.063 -1.8847 -1.0231 -0.3311
   99OSM   H15T 9915   0.314   3.666   8.970  3.3308 -2.5065 -1.7395
   99OSM   C16S 9916   0.157   3.554   9.055  0.0002 -0.1121  0.3600
   99OSM   H16S 9917   0.082   3.634   9.072  0.3039  0.6209 -1.4380
   99OSM   H16T 9918   0.136   3.469   9.123 -0.5835 -0.2433  0.0175
   99OSM   C17S 9919   0.111   3.500   8.921 -0.2023  0.2108 -0.1113
   99OSM   H17S 9920   0.132   3.572   8.838 -0.5495  1.0489  0.5155
   99OSM   H17T 9921   0.002   3.482   8.932 -0.1734  0.4956  0.6634
   99OSM   C18S 9922   0.162   3.359   8.889  0.1584 -0.8981 -0.5001
   99OSM   H18S 9923   0.119   3.317   8.796 -0.8977  0.3058 -0.5794
   99OSM   H18T 9924   0.147   3.295   8.979 -0.3208 -0.7681 -0.4832
   99OSM   H18U 9925   0.271   3.362   8.870  0.1943  1.8764 -0.1908
   99OSM    C1F 9926  -0.017   3.907  10.495  0.6831  0.5154  0.5125
   99OSM     OF 9927   0.014   4.005  10.555  0.1582 -0.4826  0.5232
   99OSM    C2F 9928  -0.150   3.893  10.421  0.5897 -0.5684 -1.1602
   99OSM    H2F 9929  -0.221   3.860  10.500  0.7953  0.5876 -0.4589
   99OSM    H2G 9930  -0.130   3.820  10.340  2.4548  1.6602 -2.8338
   99OSM    C3F 9931  -0.211   4.021  10.368 -0.6114  0.1941 -0.0818
   99OSM    H3F 9932  -0.227   4.078  10.462 -1.0558 -1.4493  0.8926
   99OSM    H3G 9933  -0.143   4.081  10.304 -2.3549  1.1235 -1.1567
   99OSM    C4F 9934  -0.345   3.996  10.302  0.2808 -0.0411  0.3173
   99OSM    H4F 9935  -0.384   4.094  10.267  0.1264 -0.6792 -1.4088
   99OSM    H4G 9936  -0.420   3.958  10.374  1.1714 -1.3102  0.6092
   99OSM    C5F 9937  -0.357   3.897  10.184 -0.4613  0.1769 -0.2371
   99OSM    H5F 9938  -0.394   3.798  10.219 -1.0270  0.6169  0.4553
   99OSM    H5G 9939  -0.254   3.877  10.150  0.1464  2.2579  0.2324
   99OSM    C6F 9940  -0.436   3.959  10.066 -0.1570 -0.1470  0.0237
   99OSM    H6F 9941  -0.363   4.026  10.017 -0.4272 -0.9009 -1.4595
   99OSM    H6G 9942  -0.519   4.023  10.102 -0.2273 -0.3503  0.2251
   99OSM    C7F 9943  -0.482   3.864   9.961  0.0287  0.9481  0.7111
   99OSM    H7F 9944  -0.545   3.785  10.006  1.2283  0.5167  1.6724
   99OSM    H7G 9945  -0.391   3.807   9.930 -0.0038  0.8132  0.8660
   99OSM    C8F 9946  -0.549   3.943   9.839  1.0107 -0.1386  0.1307
   99OSM    H8F 9947  -0.489   4.030   9.806 -0.0183  0.1099 -1.1704
   99OSM    H8G 9948  -0.647   3.988   9.867 -0.1023 -2.1920 -0.2122
   99OSM    C9F 9949  -0.582   3.858   9.719  0.6563  0.4529 -0.2562
   99OSM    H9F 9950  -0.600   3.754   9.751  2.3338  0.9197  2.4978
   99OSM   C10F 9951  -0.574   3.896   9.587 -0.7227 -0.3869  0.0292
   99OSM   H10F 9952  -0.598   3.822   9.509 -0.1088  0.5870 -1.1095
   99OSM   C11F 9953  -0.552   4.035   9.527  0.2387  0.0845 -0.0216
   99OSM   H11F 9954  -0.455   4.038   9.473  0.3880 -0.4183  0.2053
   99OSM   H11G 9955  -0.535   4.117   9.599  0.5886 -0.1196  0.1321
   99OSM   C12F 9956  -0.655   4.069   9.411  0.1363 -0.4182 -0.4524
   99OSM   H12F 9957  -0.753   4.033   9.450 -0.0691 -0.5204 -1.0548
   99OSM   H12G 9958  -0.639   3.991   9.334  1.4334  0.6779 -1.3457
   99OSM   C13F 9959  -0.651   4.207   9.348 -0.3639  0.8649 -0.1772
   99OSM   H13F 9960  -0.679   4.274   9.432 -3.4923 -1.8608  1.2065
   99OSM   H13G 9961  -0.734   4.208   9.273 -2.3808 -0.8292  1.8831
   99OSM   C14F 9962  -0.515   4.248   9.290 -0.0973 -0.1548  0.3665
   99OSM   H14F 9963  -0.438   4.248   9.370  0.4553  3.7988  0.0407
   99OSM   H14G 9964  -0.506   4.354   9.258  1.9107 -0.2382  0.5065
   99OSM   C15F 9965  -0.474   4.150   9.181  0.1996  0.3166  0.0605
   99OSM   H15F 9966  -0.542   4.158   9.093  0.2464 -3.1742 -0.4371
   99OSM   H15G 9967  -0.484   4.044   9.211 -0.2180  0.7381  1.5008
   99OSM   C16F 9968  -0.319   4.158   9.149  0.6688 -0.1983 -0.6839
   99OSM   H16F 9969  -0.285   4.062   9.105  1.4949 -0.7491  1.0745
   99OSM   H16G 9970  -0.268   4.177   9.246  0.7145  2.8252 -1.2216
   99OSM   C17F 9971  -0.284   4.275   9.050  0.4442  0.0360 -0.5117
   99OSM   H17F 9972  -0.175   4.293   9.062  0.2822  0.2876  0.7725
   99OSM   H17G 9973  -0.346   4.365   9.070 -1.1465 -1.5111  2.3120
   99OSM   C18F 9974  -0.315   4.232   8.905  0.7377  0.6635 -0.9874
   99OSM   H18F 9975  -0.419   4.265   8.883  0.1362 -0.1835  0.4808
   99OSM   H18G 9976  -0.313   4.121   8.900  1.7813  0.6420 -0.2883
   99OSM   H18H 9977  -0.242   4.275   8.832 -0.9995  3.4134 -1.2550
  100OSM      N 9978   2.886   6.530  10.965 -0.2768 -0.3776 -0.1200
  100OSM    C15 9979   2.893   6.634  11.078  0.3462 -0.3789 -0.0662
  100OSM   H15A 9980   2.794   6.656  11.114  0.4286  0.0068 -0.0731
  100OSM   H15B 9981   2.937   6.725  11.042 -0.9452  0.1433 -0.3860
  100OSM   H15C 9982   2.942   6.595  11.166  0.7734 -2.3150 -1.0887
  100OSM    C14 9983   2.798   6.419  11.008 -0.3639  0.2584  0.3061
  100OSM   H14A 9984   2.789   6.345  10.930 -0.6630 -0.5613  1.1085
  100OSM   H14B 9985   2.697   6.455  11.025 -0.6484  0.3588 -1.4040
  100OSM   H14C 9986   2.836   6.363  11.092 -1.9502  0.9982  1.5693
  100OSM    C13 9987   2.824   6.605  10.849 -0.1592  0.8174 -0.3714
  100OSM   H13A 9988   2.730   6.653  10.871 -1.1424 -0.9134 -0.5478
  100OSM   H13B 9989   2.809   6.531  10.771  2.4624 -0.2998  0.0610
  100OSM   H13C 9990   2.879   6.685  10.804 -0.0806  0.0563 -1.6890
  100OSM    C12 9991   3.025   6.471  10.930  0.7003 -0.1445 -0.3320
  100OSM   H12A 9992   3.047   6.396  11.004  1.3188  0.9734  0.6676
  100OSM   H12B 9993   3.102   6.546  10.942  2.3436 -1.6335 -1.1319
  100OSM    C11 9994   3.036   6.397  10.795  0.8329 -0.0482  0.0560
  100OSM   H11A 9995   3.142   6.366  10.789  1.4420  2.0604 -0.9254
  100OSM   H11B 9996   3.013   6.455  10.703  2.5529 -0.5741 -0.7493
  100OSM      P 9997   2.991   6.137  10.789 -0.2346 -0.4892 -0.0568
  100OSM    O13 9998   3.119   6.127  10.861 -0.1597 -0.2490  0.4654
  100OSM    O14 9999   2.893   6.036  10.830  0.3759  0.2168  0.8777
  100OSM    O1110000   3.018   6.123  10.634  0.1904  0.3401 -0.2694
  100OSM    O1210001   2.940   6.286  10.794  1.0673 -0.2648 -0.5526
  100OSM    C1S10002   2.950   6.206  10.539  0.0896 -0.2955  0.1233
  100OSM    H1S10003   2.983   6.312  10.553 -1.3047 -0.0680  2.1564
  100OSM    H1T10004   2.842   6.208  10.561 -0.0082  0.9278 -0.3728
  100OSM     NF10005   2.954   6.243  10.284  0.6936  0.1090 -0.0868
  100OSM    HNF10006   2.884   6.205  10.224  0.4587 -1.3535  1.0735
  100OSM    C2S10007   2.994   6.160  10.398 -0.1377  1.4233 -0.2913
  100OSM    H2S10008   3.104   6.169  10.407 -0.1095  0.3941  0.7548
  100OSM    C3S10009   2.956   6.013  10.365  0.1002 -0.6385  0.0110
  100OSM    H3S10010   2.846   6.019  10.354  0.1399  0.3267  0.0289
  100OSM     O310011   2.977   5.925  10.473 -0.1133  0.5540 -0.0774
  100OSM    HO310012   2.997   5.986  10.544 -1.4819  0.2312  0.6345
  100OSM    C4S10013   3.022   5.961  10.242 -0.4937  0.5660  0.2702
  100OSM    H4S10014   3.130   5.945  10.256 -1.0030 -2.3328  1.6460
  100OSM    C5S10015   2.963   5.926  10.130 -0.1344 -0.1914 -0.8466
  100OSM    H5S10016   2.854   5.941  10.136 -0.0008  0.2503  1.2725
  100OSM    C6S10017   3.017   5.866  10.006 -0.4182  0.5120 -0.4072
  100OSM    H6S10018   2.950   5.780   9.985 -1.6317  0.6900  2.2946
  100OSM    H6T10019   3.118   5.828  10.031 -0.7555  0.6688  1.3540
  100OSM    C7S10020   3.018   5.961   9.888  0.4129 -0.5198  0.2583
  100OSM    H7S10021   3.087   6.045   9.914 -2.2886  1.0710  2.9991
  100OSM    H7T10022   2.919   6.010   9.877  2.0384  3.2315  0.5939
  100OSM    C8S10023   3.065   5.900   9.750  0.4637  0.7088  0.0988
  100OSM    H8S10024   2.988   5.826   9.717  1.3797  0.2831 -1.1669
  100OSM    H8T10025   3.166   5.858   9.764  0.1065 -0.3501 -0.3517
  100OSM    C9S10026   3.077   6.008   9.646 -0.3079 -0.0361  0.3556
  100OSM    H9S10027   3.151   6.082   9.683  2.5885 -2.1444 -0.8358
  100OSM    H9T10028   2.977   6.055   9.634 -0.4775 -0.9257 -2.4734
  100OSM   C10S10029   3.130   5.944   9.514 -0.0614  0.3188 -0.3314
  100OSM   H10S10030   3.238   5.922   9.528 -0.0021  1.5298  1.3139
  100OSM   H10T10031   3.112   6.017   9.432 -3.9852  0.0288  0.0518
  100OSM   C11S10032   3.051   5.817   9.472  0.7357 -0.5181  0.2635
  100OSM   H11S10033   2.945   5.841   9.490  0.8564  0.3923 -0.2144
  100OSM   H11T10034   3.068   5.726   9.534  0.1699 -0.4866  0.4700
  100OSM   C12S10035   3.056   5.789   9.316  0.0361  0.0391 -0.3724
  100OSM   H12S10036   3.158   5.752   9.291  1.2964  4.5128 -3.1136
  100OSM   H12T10037   3.041   5.885   9.260  1.6086  1.0855  0.9022
  100OSM   C13S10038   2.951   5.689   9.265  0.0750  0.5662  0.2594
  100OSM   H13S10039   2.848   5.724   9.291 -0.2510  0.4114 -0.7708
  100OSM   H13T10040   2.975   5.589   9.306  3.0500  1.2712  0.4385
  100OSM   C14S10041   2.946   5.680   9.115  0.2739  0.4421 -0.6873
  100OSM   H14S10042   2.932   5.783   9.076  0.5446  0.6575 -0.2284
  100OSM   H14T10043   2.857   5.616   9.094  1.4047 -1.7653  0.7643
  100OSM   C15S10044   3.080   5.620   9.065  0.2814 -0.0202  0.1390
  100OSM   H15S10045   3.100   5.527   9.122  1.5240  0.3352  0.3087
  100OSM   H15T10046   3.153   5.701   9.087 -0.5377  1.1415 -1.2669
  100OSM   C16S10047   3.074   5.573   8.910 -0.1510 -0.7384  0.0105
  100OSM   H16S10048   2.991   5.631   8.863  0.7217  0.1275 -0.4868
  100OSM   H16T10049   3.049   5.466   8.898 -0.3232 -0.6499 -0.4293
  100OSM   C17S10050   3.203   5.600   8.834  0.1628 -0.7504  0.1080
  100OSM   H17S10051   3.211   5.708   8.810  0.4518 -1.0550 -1.2959
  100OSM   H17T10052   3.201   5.560   8.730 -0.8832  2.4860 -1.2398
  100OSM   C18S10053   3.331   5.548   8.901 -0.1178 -0.3168  0.4967
  100OSM   H18S10054   3.333   5.586   9.005 -2.8703  1.0889  0.1476
  100OSM   H18T10055   3.422   5.583   8.850 -0.5359 -0.4018 -0.3255
  100OSM   H18U10056   3.333   5.437   8.904 -1.6472 -0.3686  0.7969
  100OSM    C1F10057   3.017   6.361  10.270  0.6952  0.4800 -1.1419
  100OSM     OF10058   3.088   6.414  10.359 -0.0853  0.3867 -0.0792
  100OSM    C2F10059   3.004   6.431  10.148  0.8990  0.2164 -0.0460
  100OSM    H2F10060   2.952   6.528  10.165  2.5314  1.2205 -0.5497
  100OSM    H2G10061   2.936   6.379  10.078 -0.1511  0.7519  0.5545
  100OSM    C3F10062   3.131   6.442  10.072 -0.0225  0.1573 -0.7608
  100OSM    H3F10063   3.181   6.344  10.061 -0.4268  0.1272 -2.6861
  100OSM    H3G10064   3.205   6.500  10.132  0.9393 -1.0482 -0.7433
  100OSM    C4F10065   3.124   6.501   9.923  0.0598 -0.0806 -0.6456
  100OSM    H4F10066   3.230   6.523   9.901  0.1046  0.9256  0.4645
  100OSM    H4G10067   3.071   6.599   9.924 -0.8374 -0.5509 -0.3563
  100OSM    C5F10068   3.074   6.403   9.819 -0.4557  0.0239 -0.1004
  100OSM    H5F10069   2.963   6.397   9.815 -0.6284  2.8509 -2.5097
  100OSM    H5G10070   3.115   6.301   9.835  1.2678  0.6870 -0.0824
  100OSM    C6F10071   3.128   6.439   9.682 -0.4620  0.4453 -0.0655
  100OSM    H6F10072   3.104   6.354   9.615  1.9229  0.1795 -0.6592
  100OSM    H6G10073   3.238   6.453   9.687 -0.5576  1.1173  0.3386
  100OSM    C7F10074   3.055   6.564   9.631  0.0945 -0.0532  0.6540
  100OSM    H7F10075   3.093   6.655   9.682  1.2253 -0.0702 -0.1141
  100OSM    H7G10076   2.949   6.555   9.662  0.5780 -2.0146  1.9003
  100OSM    C8F10077   3.060   6.580   9.476  0.0949  0.5721 -0.4174
  100OSM    H8F10078   2.983   6.514   9.429  0.8405 -1.1936  0.7112
  100OSM    H8G10079   3.158   6.541   9.441  0.9032  0.7175  1.5629
  100OSM    C9F10080   3.041   6.726   9.423 -0.2435 -0.1675 -0.0805
  100OSM    H9F10081   2.942   6.770   9.440  1.4203  4.2740 -0.3608
  100OSM   C10F10082   3.123   6.810   9.365 -0.8402 -0.0722  0.8250
  100OSM   H10F10083   3.092   6.910   9.333  2.5447  0.2719 -2.0675
  100OSM   C11F10084   3.266   6.785   9.331 -0.0400  0.3277  0.5922
  100OSM   H11F10085   3.299   6.698   9.393 -0.9133 -0.3670  0.1065
  100OSM   H11G10086   3.328   6.873   9.357  0.3617  0.0839  0.4765
  100OSM   C12F10087   3.288   6.755   9.184  0.2756  0.2852 -0.3522
  100OSM   H12F10088   3.219   6.671   9.162 -0.5332  1.1900 -1.3743
  100OSM   H12G10089   3.391   6.716   9.165 -0.1041 -2.0269  1.7909
  100OSM   C13F10090   3.261   6.865   9.079  0.0116 -0.5595 -0.4742
  100OSM   H13F10091   3.325   6.950   9.109  0.6948 -0.6193 -1.6756
  100OSM   H13G10092   3.153   6.889   9.080  0.0357 -0.4461  0.6132
  100OSM   C14F10093   3.304   6.825   8.933  0.5565 -0.1127  0.6053
  100OSM   H14F10094   3.270   6.719   8.924  1.7986 -0.5677  1.0830
  100OSM   H14G10095   3.414   6.819   8.916  0.3308  0.5031 -1.3300
  100OSM   C15F10096   3.247   6.920   8.828  0.2174  0.0986  0.0111
  100OSM   H15F10097   3.224   7.017   8.877 -0.5537 -0.1828  0.2274
  100OSM   H15G10098   3.143   6.890   8.803  0.7551 -0.9183 -1.1226
  100OSM   C16F10099   3.321   6.920   8.697 -0.5121  0.2134 -0.3575
  100OSM   H16F10100   3.252   6.953   8.616 -0.7349  2.9842  0.8649
  100OSM   H16G10101   3.347   6.814   8.676 -1.6556 -0.3147  0.8018
  100OSM   C17F10102   3.438   7.024   8.694  0.9159 -0.1279  0.2753
  100OSM   H17F10103   3.490   7.012   8.597 -0.8488 -1.9202 -0.5429
  100OSM   H17G10104   3.514   7.015   8.774  0.1385  0.3273  1.0868
  100OSM   C18F10105   3.374   7.160   8.699 -0.1750  0.0335  0.6222
  100OSM   H18F10106   3.295   7.179   8.623  1.0667  3.0295 -0.0592
  100OSM   H18G10107   3.443   7.246   8.681 -0.6150 -0.0597 -1.9597
  100OSM   H18H10108   3.336   7.173   8.802  0.3367  1.0052  0.7015
  101OSM      N10109   5.643   6.197  10.970 -0.0036  0.1230  0.0010
  101OSM    C1510110   5.572   6.075  11.014  0.4628  0.6382 -0.0320
  101OSM   H15A10111   5.485   6.095  11.075  0.6476 -0.0633  0.4665
  101OSM   H15B10112   5.631   6.008  11.074  3.3104  1.3216 -1.8822
  101OSM   H15C10113   5.542   6.007  10.935  0.3528  0.9147 -0.2319
  101OSM    C1410114   5.543   6.270  10.881 -0.2523 -0.0368  0.3370
  101OSM   H14A10115   5.457   6.285  10.945  0.6246  0.9824  1.3179
  101OSM   H14B10116   5.508   6.216  10.795  1.5972 -1.1816  0.2531
  101OSM   H14C10117   5.578   6.369  10.854 -2.4323  0.4308 -0.9860
  101OSM    C1310118   5.666   6.286  11.092 -0.2997  0.2730 -0.0421
  101OSM   H13A10119   5.570   6.297  11.141 -0.4947  0.4967 -0.4697
  101OSM   H13B10120   5.689   6.390  11.072 -0.1757  0.4236  0.8413
  101OSM   H13C10121   5.743   6.230  11.143 -1.5093 -1.6869 -0.2810
  101OSM    C1210122   5.759   6.160  10.886  0.1497  0.7638 -0.6446
  101OSM   H12A10123   5.796   6.253  10.846 -0.1647  1.8126  1.4074
  101OSM   H12B10124   5.738   6.090  10.806  2.8454 -1.3398  0.3365
  101OSM    C1110125   5.872   6.101  10.969  0.7797  0.0889  0.3097
  101OSM   H11A10126   5.946   6.062  10.896 -0.5850  1.1634 -1.7335
  101OSM   H11B10127   5.839   6.022  11.040  0.5187  0.1584  0.2677
  101OSM      P10128   6.045   6.313  10.999  0.2364 -0.0514 -0.6117
  101OSM    O1310129   5.979   6.438  10.948  0.6173  0.2167  0.1305
  101OSM    O1410130   6.151   6.329  11.100  0.1198  0.2532  0.2515
  101OSM    O1110131   6.119   6.248  10.874 -0.2510  0.2416 -0.1353
  101OSM    O1210132   5.938   6.203  11.049 -0.6304  0.3805 -0.3720
  101OSM    C1S10133   6.219   6.326  10.809 -0.2913  0.5514  0.3702
  101OSM    H1S10134   6.312   6.315  10.867 -0.5802 -0.1823  0.7055
  101OSM    H1T10135   6.195   6.434  10.801 -0.3125  0.5290  0.1019
  101OSM     NF10136   6.350   6.340  10.591  0.2830  0.3206 -0.5316
  101OSM    HNF10137   6.325   6.408  10.522 -1.3444  0.6643  0.3645
  101OSM    C2S10138   6.236   6.274  10.667 -0.3834 -0.1492  0.6627
  101OSM    H2S10139   6.254   6.165  10.676  0.0741 -0.1429 -0.1223
  101OSM    C3S10140   6.097   6.289  10.588  0.4836  0.3715 -0.0257
  101OSM    H3S10141   6.082   6.394  10.557  2.2264  1.0231  1.1684
  101OSM     O310142   5.981   6.242  10.658 -0.0111 -0.5084 -0.1702
  101OSM    HO310143   6.009   6.242  10.750 -0.1832 -0.4949 -0.1186
  101OSM    C4S10144   6.124   6.226  10.444 -0.1217 -0.2726 -0.4901
  101OSM    H4S10145   6.183   6.297  10.385  0.8650 -1.5118 -1.0321
  101OSM    C5S10146   6.089   6.106  10.400 -0.5226  0.3280  0.4445
  101OSM    H5S10147   6.052   6.033  10.473 -0.9983 -0.4642 -0.5617
  101OSM    C6S10148   6.147   6.054  10.272 -0.4856  0.4831 -0.1385
  101OSM    H6S10149   6.074   6.071  10.191  0.5691  2.4043 -0.7516
  101OSM    H6T10150   6.173   5.946  10.273 -1.2083  0.3027  0.4224
  101OSM    C7S10151   6.286   6.106  10.233 -0.2956  0.1544  0.3377
  101OSM    H7S10152   6.360   6.091  10.315  0.0674  1.6687  0.3194
  101OSM    H7T10153   6.274   6.215  10.213  1.9535  0.5819  0.9982
  101OSM    C8S10154   6.354   6.031  10.114 -0.1407 -0.3373 -0.6233
  101OSM    H8S10155   6.333   5.922  10.127 -1.5479 -0.1456 -1.1899
  101OSM    H8T10156   6.462   6.058  10.113  0.0979 -1.2439 -1.6213
  101OSM    C9S10157   6.291   6.070   9.975  0.9215  0.3165 -0.2081
  101OSM    H9S10158   6.314   6.177   9.954 -0.6295  0.4668 -1.3043
  101OSM    H9T10159   6.181   6.057   9.988  1.1021 -3.9626 -1.2925
  101OSM   C10S10160   6.329   5.970   9.866  0.2391 -0.2393  0.3930
  101OSM   H10S10161   6.295   5.865   9.881  0.6128 -0.7156 -1.8454
  101OSM   H10T10162   6.440   5.975   9.865  0.2658 -0.7709  0.4997
  101OSM   C11S10163   6.272   6.018   9.730 -0.1412 -0.6258  0.3404
  101OSM   H11S10164   6.296   6.126   9.720  1.6009 -0.9257  0.8517
  101OSM   H11T10165   6.161   6.014   9.728 -0.1797 -0.0369  1.2307
  101OSM   C12S10166   6.322   5.943   9.600  0.5872  0.2042 -0.6056
  101OSM   H12S10167   6.297   5.836   9.615 -1.3472  0.9311  2.2503
  101OSM   H12T10168   6.432   5.947   9.590  0.7650 -2.1020 -0.1499
  101OSM   C13S10169   6.256   5.999   9.482 -0.2525  0.1202 -0.0453
  101OSM   H13S10170   6.259   6.110   9.485 -0.6459  0.1199  1.6492
  101OSM   H13T10171   6.148   5.971   9.490  0.0568 -1.5742 -1.2937
  101OSM   C14S10172   6.304   5.943   9.351 -0.1754 -0.6285 -0.4776
  101OSM   H14S10173   6.366   5.852   9.365  2.4798  1.2831  0.9323
  101OSM   H14T10174   6.357   6.027   9.301  0.4113  0.0084  1.1572
  101OSM   C15S10175   6.192   5.911   9.255  0.8054 -0.5604 -0.8160
  101OSM   H15S10176   6.116   5.992   9.245  1.3325 -0.1401 -1.5176
  101OSM   H15T10177   6.139   5.838   9.320 -0.6248  0.5577 -0.6873
  101OSM   C16S10178   6.253   5.868   9.120  0.8490 -0.6365  0.3592
  101OSM   H16S10179   6.354   5.827   9.140  1.0179  0.2724  1.4683
  101OSM   H16T10180   6.269   5.967   9.073  0.1481  1.4458  4.0730
  101OSM   C17S10181   6.164   5.771   9.038  0.1734 -0.2715 -0.8146
  101OSM   H17S10182   6.062   5.808   9.059  1.0871  1.1056  1.5934
  101OSM   H17T10183   6.168   5.667   9.077 -1.2766  0.2075  0.6874
  101OSM   C18S10184   6.209   5.765   8.893  0.5149 -0.2073 -0.5288
  101OSM   H18S10185   6.132   5.709   8.835  0.4391  1.1161 -1.7391
  101OSM   H18T10186   6.306   5.711   8.900  0.0812 -0.9934 -0.4553
  101OSM   H18U10187   6.216   5.870   8.860 -3.3920  1.3379  2.6159
  101OSM    C1F10188   6.474   6.329  10.637 -0.6744  0.1290 -0.0547
  101OSM     OF10189   6.508   6.261  10.736 -0.6782 -0.5474 -0.1284
  101OSM    C2F10190   6.576   6.413  10.567  0.0033 -0.4781  0.0460
  101OSM    H2F10191   6.547   6.519  10.576 -0.3185 -0.4037 -1.6203
  101OSM    H2G10192   6.572   6.391  10.458 -1.3180 -0.0703 -0.0027
  101OSM    C3F10193   6.715   6.380  10.612 -0.4699  0.5498  0.0193
  101OSM    H3F10194   6.732   6.270  10.621 -0.8071  0.6535  2.5794
  101OSM    H3G10195   6.727   6.410  10.718  2.0409 -0.5747  0.1301
  101OSM    C4F10196   6.835   6.458  10.547  0.0455  0.6003  0.0925
  101OSM    H4F10197   6.911   6.497  10.619 -0.3015  2.8414 -0.6815
  101OSM    H4G10198   6.804   6.554  10.500 -0.1769  0.4269 -0.1092
  101OSM    C5F10199   6.911   6.383  10.438  0.3378 -0.3160  0.3677
  101OSM    H5F10200   6.924   6.277  10.468 -1.1549 -0.4064  0.7616
  101OSM    H5G10201   7.013   6.427  10.435 -0.1937  0.8975 -1.4438
  101OSM    C6F10202   6.840   6.395  10.305 -0.0611  0.7144 -0.1929
  101OSM    H6F10203   6.753   6.326  10.303  0.0609  0.3625  2.8539
  101OSM    H6G10204   6.808   6.502  10.301 -0.1790  0.7819  1.7859
  101OSM    C7F10205   6.942   6.361  10.195  0.5345  0.1884 -0.3304
  101OSM    H7F10206   6.970   6.256  10.217 -2.5535 -0.7977 -0.5584
  101OSM    H7G10207   7.028   6.431  10.200 -1.1865  2.4838 -1.2746
  101OSM    C8F10208   6.890   6.381  10.047 -0.1610 -0.1300  0.3475
  101OSM    H8F10209   6.783   6.351  10.049  0.1738 -1.5948 -1.3038
  101OSM    H8G10210   6.950   6.302   9.997  0.9353  0.4916  0.6393
  101OSM    C9F10211   6.909   6.512   9.966  0.2596  0.2085 -0.0054
  101OSM    H9F10212   6.867   6.601  10.015 -0.6248 -0.1465 -0.0906
  101OSM   C10F10213   6.964   6.530   9.842 -0.6151 -0.1175 -0.4126
  101OSM   H10F10214   6.964   6.632   9.801  0.6488 -0.4862 -1.3838
  101OSM   C11F10215   7.034   6.426   9.756  0.1133  0.1932 -0.1489
  101OSM   H11F10216   7.030   6.327   9.807  3.1637 -0.8132 -1.6241
  101OSM   H11G10217   7.140   6.460   9.752 -0.0861  0.9021  0.4233
  101OSM   C12F10218   6.998   6.411   9.600 -0.3335  0.0669 -0.6207
  101OSM   H12F10219   7.036   6.502   9.548 -1.0632 -0.6966 -2.5573
  101OSM   H12G10220   6.889   6.397   9.588 -0.0825 -0.4311 -2.5863
  101OSM   C13F10221   7.069   6.289   9.547 -1.0699 -0.7090 -0.2263
  101OSM   H13F10222   7.029   6.204   9.605 -0.8384 -0.3182  0.5227
  101OSM   H13G10223   7.175   6.304   9.578 -1.5347 -1.4117  1.8111
  101OSM   C14F10224   7.064   6.261   9.400 -0.1767 -0.4049  0.6559
  101OSM   H14F10225   7.120   6.339   9.343 -0.3869 -1.8238 -1.6244
  101OSM   H14G10226   6.956   6.265   9.377 -0.2521  3.5072  1.1315
  101OSM   C15F10227   7.132   6.131   9.363  0.2015  0.3112  0.0695
  101OSM   H15F10228   7.136   6.054   9.443 -1.7892 -0.0195 -0.1040
  101OSM   H15G10229   7.242   6.140   9.348 -0.0888  2.2038 -1.2748
  101OSM   C16F10230   7.078   6.067   9.240  0.3188  0.0378  0.4139
  101OSM   H16F10231   6.969   6.058   9.261  0.3492  1.1992  1.1321
  101OSM   H16G10232   7.127   5.970   9.215  1.6081  0.5195  0.9730
  101OSM   C17F10233   7.084   6.153   9.114  0.8760 -0.4067  0.0004
  101OSM   H17F10234   7.186   6.162   9.071  0.9882 -0.4032  0.2688
  101OSM   H17G10235   7.072   6.260   9.140  1.2894 -0.7193  1.5815
  101OSM   C18F10236   6.980   6.121   9.007  0.2477 -0.0998  0.1067
  101OSM   H18F10237   6.995   6.018   8.968  0.1056 -0.3847  0.7965
  101OSM   H18G10238   6.990   6.198   8.927 -3.0061 -0.6294 -0.9701
  101OSM   H18H10239   6.875   6.137   9.038  0.0666  0.1920 -0.6234
  102OSM      N10240   1.220   1.067  11.155 -0.1227  0.1808  0.4107
  102OSM    C1510241   1.242   0.931  11.104 -0.2829 -0.1471  0.6387
  102OSM   H15A10242   1.151   0.875  11.086  0.3747 -1.0580  0.0692
  102OSM   H15B10243   1.306   0.875  11.172 -1.5019 -4.4550 -1.4051
  102OSM   H15C10244   1.295   0.932  11.010  0.5759 -3.4969  0.9478
  102OSM    C1410245   1.180   1.058  11.302 -0.8906 -0.4186 -0.1675
  102OSM   H14A10246   1.266   1.026  11.360 -1.0920 -2.1952 -0.7874
  102OSM   H14B10247   1.109   0.978  11.314 -1.7029  0.3083 -0.0592
  102OSM   H14C10248   1.142   1.149  11.346  2.0268  0.1504  1.4593
  102OSM    C1310249   1.347   1.151  11.156  0.0198  0.6259  0.5583
  102OSM   H13A10250   1.332   1.258  11.166  0.4556  0.8201 -0.7063
  102OSM   H13B10251   1.386   1.150  11.056 -1.7596 -1.5512 -0.1991
  102OSM   H13C10252   1.416   1.119  11.232 -1.6485 -0.7466  1.5876
  102OSM    C1210253   1.121   1.144  11.074  0.3674 -0.7340  0.7557
  102OSM   H12A10254   1.031   1.085  11.064  0.6920 -0.8161 -3.8707
  102OSM   H12B10255   1.169   1.157  10.978 -1.6086  0.0230 -0.1955
  102OSM    C1110256   1.076   1.287  11.122 -0.0325  1.0404  0.3551
  102OSM   H11A10257   1.168   1.346  11.141  2.4399 -2.0199 -1.1762
  102OSM   H11B10258   1.023   1.278  11.220 -0.1330 -0.2088  0.2087
  102OSM      P10259   1.038   1.378  10.883  0.6948 -0.1435 -0.2566
  102OSM    O1310260   0.910   1.361  10.807  0.3916 -0.1362  0.3362
  102OSM    O1410261   1.093   1.518  10.886 -0.1672 -0.3406 -0.3531
  102OSM    O1110262   1.148   1.272  10.829 -0.2625  0.0223  0.5795
  102OSM    O1210263   0.988   1.344  11.031 -0.7328 -0.4975  0.0688
  102OSM    C1S10264   1.116   1.212  10.694  0.6863 -0.2538 -0.4399
  102OSM    H1S10265   1.011   1.180  10.675  0.8600  0.0803 -2.1377
  102OSM    H1T10266   1.172   1.117  10.680  0.5234 -0.9115  2.5414
  102OSM     NF10267   1.139   1.235  10.446  0.4714 -0.1179 -0.3325
  102OSM    HNF10268   1.218   1.184  10.413  0.3249 -2.3569  2.3473
  102OSM    C2S10269   1.170   1.293  10.572 -0.1295 -0.4221  0.5604
  102OSM    H2S10270   1.107   1.385  10.574 -1.4434 -1.2829  0.1131
  102OSM    C3S10271   1.320   1.341  10.588 -0.0673  0.3227 -1.0990
  102OSM    H3S10272   1.385   1.251  10.589  1.9777  1.6757 -2.8747
  102OSM     O310273   1.337   1.409  10.713 -0.1797  0.8305 -0.1295
  102OSM    HO310274   1.259   1.374  10.757  1.6046 -2.8517  0.4982
  102OSM    C4S10275   1.365   1.428  10.469  0.5769  0.5137 -0.6881
  102OSM    H4S10276   1.348   1.389  10.367  0.4392  2.6072 -1.5294
  102OSM    C5S10277   1.405   1.556  10.478  0.0967  0.1106  0.2833
  102OSM    H5S10278   1.380   1.609  10.571 -1.2203  2.1353 -1.1486
  102OSM    C6S10279   1.432   1.654  10.365  0.4777  0.1441 -0.3808
  102OSM    H6S10280   1.527   1.710  10.376 -0.8464  2.2368  1.2748
  102OSM    H6T10281   1.361   1.739  10.377 -0.2360 -0.4197 -0.5094
  102OSM    C7S10282   1.421   1.598  10.219 -0.3855  0.1346  0.6749
  102OSM    H7S10283   1.330   1.534  10.216  0.8604 -1.7592  1.4686
  102OSM    H7T10284   1.510   1.536  10.194  0.8730  1.9225  0.5351
  102OSM    C8S10285   1.418   1.701  10.105 -0.7063  0.1754  0.0609
  102OSM    H8S10286   1.519   1.748  10.099  0.0412 -1.0379  1.9680
  102OSM    H8T10287   1.346   1.779  10.137  0.1597  0.8887  0.3112
  102OSM    C9S10288   1.390   1.643   9.971  0.3506 -0.1158  0.0004
  102OSM    H9S10289   1.288   1.601   9.976 -1.6399  4.2192  0.2424
  102OSM    H9T10290   1.460   1.560   9.945 -0.4697 -0.8089 -0.0168
  102OSM   C10S10291   1.384   1.742   9.853  0.8185  0.1536  0.3621
  102OSM   H10S10292   1.472   1.809   9.862  1.8368 -1.3318  1.9428
  102OSM   H10T10293   1.294   1.807   9.855  3.3087  3.8988  0.3605
  102OSM   C11S10294   1.380   1.676   9.709 -0.2628  0.0854 -0.3624
  102OSM   H11S10295   1.292   1.609   9.714 -1.5309  1.7357  1.0778
  102OSM   H11T10296   1.478   1.625   9.699  0.4083  1.0553  0.9763
  102OSM   C12S10297   1.373   1.779   9.595 -0.3523  0.2616  0.6757
  102OSM   H12S10298   1.465   1.840   9.604 -0.4270  0.4494  0.1860
  102OSM   H12T10299   1.285   1.844   9.609 -0.0294  1.2414 -1.4074
  102OSM   C13S10300   1.362   1.710   9.460  0.0055  0.0182  0.7843
  102OSM   H13S10301   1.270   1.648   9.454  0.5499 -0.7083 -0.5747
  102OSM   H13T10302   1.436   1.630   9.438  0.1368  1.0243 -3.4505
  102OSM   C14S10303   1.357   1.816   9.342 -1.0934 -1.1026 -0.0015
  102OSM   H14S10304   1.451   1.871   9.325 -0.8444 -1.2876  0.7163
  102OSM   H14T10305   1.290   1.899   9.374 -1.7530 -1.7324  0.2932
  102OSM   C15S10306   1.315   1.769   9.205  0.0693  0.3844  0.2662
  102OSM   H15S10307   1.279   1.858   9.149  0.7457 -0.5677 -1.7626
  102OSM   H15T10308   1.224   1.705   9.214  0.4118 -0.2336 -0.5112
  102OSM   C16S10309   1.418   1.708   9.108  0.1331 -0.2660 -0.2999
  102OSM   H16S10310   1.436   1.603   9.142  1.4633 -0.0735 -0.3844
  102OSM   H16T10311   1.512   1.766   9.117 -1.3856  2.0410  2.0295
  102OSM   C17S10312   1.372   1.696   8.959 -0.5285  0.1133  0.0206
  102OSM   H17S10313   1.279   1.636   8.946 -0.6508  0.0811  0.9402
  102OSM   H17T10314   1.448   1.635   8.907  1.2971  0.6293  1.9601
  102OSM   C18S10315   1.368   1.828   8.886  0.3538 -0.3192 -0.3220
  102OSM   H18S10316   1.325   1.822   8.784  0.3661  0.6071 -0.3932
  102OSM   H18T10317   1.467   1.879   8.892  0.4281 -0.5296  0.3520
  102OSM   H18U10318   1.284   1.888   8.928  3.0545  2.0736  2.1564
  102OSM    C1F10319   1.017   1.206  10.397  0.3556  0.7523  0.4222
  102OSM     OF10320   0.918   1.261  10.448  0.0753 -0.3075 -0.2572
  102OSM    C2F10321   1.010   1.095  10.296 -0.0914  0.5834 -0.0047
  102OSM    H2F10322   0.989   1.001  10.350 -0.2035 -0.1555 -1.3007
  102OSM    H2G10323   1.108   1.086  10.243  0.0602  1.4798  0.1013
  102OSM    C3F10324   0.893   1.119  10.193 -0.2946  0.0286  0.3266
  102OSM    H3F10325   0.802   1.132  10.255 -1.3805 -1.4934 -0.8560
  102OSM    H3G10326   0.890   1.013  10.157 -0.2648  0.4786 -1.0616
  102OSM    C4F10327   0.930   1.230  10.098  0.4753 -0.1803  0.5275
  102OSM    H4F10328   1.019   1.198  10.041  0.1703  0.4927 -0.3459
  102OSM    H4G10329   0.951   1.319  10.160 -0.3852 -0.1502  0.7940
  102OSM    C5F10330   0.809   1.257  10.002  0.0862  0.1481  0.3582
  102OSM    H5F10331   0.820   1.362   9.967  1.9684  0.2969  1.2581
  102OSM    H5G10332   0.706   1.246  10.042 -0.0793  0.5530  0.0529
  102OSM    C6F10333   0.820   1.159   9.884 -0.0570 -0.5818  0.4312
  102OSM    H6F10334   0.825   1.056   9.926 -1.9777 -0.7531  0.3152
  102OSM    H6G10335   0.922   1.174   9.843 -1.0837  1.2439 -1.6160
  102OSM    C7F10336   0.718   1.191   9.778 -0.2124  0.3396 -0.1957
  102OSM    H7F10337   0.717   1.299   9.753 -0.3890  0.5466  0.6686
  102OSM    H7G10338   0.620   1.189   9.831  1.0074 -0.0292  2.1881
  102OSM    C8F10339   0.712   1.109   9.648 -0.4442 -0.7377  0.1325
  102OSM    H8F10340   0.607   1.106   9.613 -0.3142 -1.7542 -0.2037
  102OSM    H8G10341   0.745   1.009   9.684  1.2596 -0.0973  0.4581
  102OSM    C9F10342   0.809   1.147   9.536 -0.1800  1.4637 -0.7366
  102OSM    H9F10343   0.914   1.145   9.568 -0.7752 -0.1484  1.3336
  102OSM   C10F10344   0.775   1.183   9.412 -0.3156  0.1305 -0.4955
  102OSM   H10F10345   0.856   1.189   9.338  0.4060 -1.2197  0.1358
  102OSM   C11F10346   0.636   1.199   9.352 -0.2266  0.2859  0.1196
  102OSM   H11F10347   0.591   1.288   9.402  2.7457  2.9273 -1.5389
  102OSM   H11G10348   0.575   1.110   9.380 -1.0583 -0.0848 -2.5969
  102OSM   C12F10349   0.643   1.201   9.202 -0.1135  0.0753 -0.1760
  102OSM   H12F10350   0.713   1.127   9.157  0.9069  0.1228  1.2562
  102OSM   H12G10351   0.691   1.295   9.168  3.5159 -0.8350  1.8765
  102OSM   C13F10352   0.502   1.161   9.135 -0.3865 -0.1612  0.3681
  102OSM   H13F10353   0.428   1.239   9.159  0.0500  0.7859 -1.2094
  102OSM   H13G10354   0.476   1.067   9.189 -0.4875  1.5137  3.4568
  102OSM   C14F10355   0.505   1.129   8.982  0.4571  0.2765  0.4468
  102OSM   H14F10356   0.591   1.061   8.963  0.6006  0.9776 -1.6945
  102OSM   H14G10357   0.531   1.223   8.930 -2.2831  1.2548  0.6936
  102OSM   C15F10358   0.376   1.057   8.938 -0.3596  0.0581  0.3211
  102OSM   H15F10359   0.303   1.138   8.917 -1.9874 -1.1066  1.3069
  102OSM   H15G10360   0.338   1.000   9.025  0.1456  0.0400  0.5355
  102OSM   C16F10361   0.383   0.953   8.821 -0.7955  0.4101  0.7617
  102OSM   H16F10362   0.357   0.857   8.870 -0.3585  1.0624  2.3430
  102OSM   H16G10363   0.488   0.941   8.790 -0.6223  0.8065  1.1727
  102OSM   C17F10364   0.300   1.000   8.699 -0.0287 -0.7076 -0.3432
  102OSM   H17F10365   0.341   0.942   8.612  4.2273  3.7123 -1.7473
  102OSM   H17G10366   0.312   1.108   8.679  0.4633 -0.5915  0.5517
  102OSM   C18F10367   0.155   0.978   8.704 -0.1532  0.5223  0.0831
  102OSM   H18F10368   0.114   0.991   8.602 -0.0851  0.7103  0.0789
  102OSM   H18G10369   0.097   1.030   8.784  1.0662  0.2959  1.1498
  102OSM   H18H10370   0.132   0.872   8.729 -2.3514  0.2913 -2.4745
  103OSM      N10371   0.094   4.279  10.934  0.1861  0.3287  0.4160
  103OSM    C1510372   0.027   4.170  10.997 -0.3846  0.5074  0.2371
  103OSM   H15A10373   0.002   4.178  11.101  0.2660 -2.8850  0.7787
  103OSM   H15B10374   0.090   4.083  10.993 -1.0843 -0.0877  1.5690
  103OSM   H15C10375  -0.063   4.135  10.947  1.0348 -0.2584 -1.9307
  103OSM    C1410376   0.105   4.241  10.796 -0.1051 -0.0369 -0.0287
  103OSM   H14A10377   0.175   4.158  10.794  0.3084  0.3252 -1.9786
  103OSM   H14B10378   0.158   4.318  10.743  0.4050 -0.6434 -0.4131
  103OSM   H14C10379   0.014   4.210  10.748  0.0331 -0.3876 -0.0669
  103OSM    C1310380   0.009   4.397  10.941 -0.3547 -0.7476  0.0290
  103OSM   H13A10381  -0.069   4.378  10.868 -0.0010 -1.2592 -0.2133
  103OSM   H13B10382   0.069   4.482  10.914 -0.3855 -0.7952 -0.1924
  103OSM   H13C10383  -0.037   4.419  11.036  1.9893  2.2308  0.6302
  103OSM    C1210384   0.233   4.310  10.990 -0.7988  0.1999  0.6531
  103OSM   H12A10385   0.275   4.213  11.012  0.4188  0.9111  1.5990
  103OSM   H12B10386   0.223   4.359  11.086  0.3062  1.7416  0.0312
  103OSM    C1110387   0.319   4.402  10.906  0.1633  0.3236 -0.3025
  103OSM   H11A10388   0.273   4.503  10.903 -1.7522 -0.4275  1.4222
  103OSM   H11B10389   0.323   4.354  10.805 -0.2295  3.1048 -1.7401
  103OSM      P10390   0.561   4.490  10.940 -0.0052 -0.3858 -0.3696
  103OSM    O1310391   0.525   4.616  11.001  0.0574  0.1410  0.1230
  103OSM    O1410392   0.693   4.433  10.983 -0.0024 -0.1388  0.1469
  103OSM    O1110393   0.550   4.507  10.789  0.2652  0.2979  0.1301
  103OSM    O1210394   0.442   4.396  10.977  0.1115 -0.8593 -0.2179
  103OSM    C1S10395   0.634   4.419  10.716  0.5528 -0.3854  0.2223
  103OSM    H1S10396   0.613   4.312  10.735  1.4489 -0.8231 -1.1477
  103OSM    H1T10397   0.739   4.453  10.729  0.1970  0.0651  2.1555
  103OSM     NF10398   0.669   4.306  10.491 -0.4729  0.0751 -1.0156
  103OSM    HNF10399   0.749   4.329  10.436  2.7357 -0.7399  2.8297
  103OSM    C2S10400   0.608   4.421  10.555  0.1285  0.7001 -0.5360
  103OSM    H2S10401   0.497   4.415  10.550  0.2241 -0.8962 -1.4050
  103OSM    C3S10402   0.647   4.568  10.507  0.6854  0.7047 -0.3424
  103OSM    H3S10403   0.755   4.585  10.526  0.9713  0.9684 -2.0533
  103OSM     O310404   0.577   4.675  10.572  0.2375  0.3420 -0.0329
  103OSM    HO310405   0.532   4.630  10.643  2.0113 -2.4551 -0.5391
  103OSM    C4S10406   0.624   4.565  10.363  0.2126  0.6644 -0.3113
  103OSM    H4S10407   0.713   4.521  10.314 -0.4209  0.5022 -1.3465
  103OSM    C5S10408   0.519   4.618  10.295  0.1253 -0.3707 -0.3986
  103OSM    H5S10409   0.446   4.684  10.344  0.2426  0.9415 -1.8902
  103OSM    C6S10410   0.505   4.621  10.146 -0.2608 -0.0408 -0.0413
  103OSM    H6S10411   0.482   4.725  10.116  1.6973  0.0796 -1.3265
  103OSM    H6T10412   0.416   4.559  10.119  0.3931 -1.1211  0.2099
  103OSM    C7S10413   0.627   4.558  10.069  0.3188 -0.5454 -0.2893
  103OSM    H7S10414   0.630   4.450  10.094 -0.5621 -0.3092  0.9365
  103OSM    H7T10415   0.728   4.599  10.090  0.2509 -1.1618  1.4515
  103OSM    C8S10416   0.599   4.557   9.915  0.5435 -0.6986 -0.4974
  103OSM    H8S10417   0.491   4.533   9.906 -0.7815  4.1396 -0.3088
  103OSM    H8T10418   0.661   4.476   9.870  2.0349  0.0734  0.0824
  103OSM    C9S10419   0.610   4.687   9.831 -0.3845  0.5437 -0.0992
  103OSM    H9S10420   0.716   4.717   9.845 -0.0532 -1.1314  1.3794
  103OSM    H9T10421   0.543   4.764   9.877 -1.6312 -1.2582  1.2435
  103OSM   C10S10422   0.572   4.664   9.680 -0.0712  0.1747  0.4151
  103OSM   H10S10423   0.478   4.606   9.681  0.3265 -0.4793  0.6365
  103OSM   H10T10424   0.646   4.595   9.634 -1.0252  0.0501 -0.9599
  103OSM   C11S10425   0.573   4.793   9.600 -0.1612  0.4054  0.5969
  103OSM   H11S10426   0.670   4.844   9.580  1.0189 -1.2805  1.8032
  103OSM   H11T10427   0.516   4.877   9.648  0.0009 -0.1205  1.7380
  103OSM   C12S10428   0.508   4.766   9.467  0.5972  0.4728  0.3310
  103OSM   H12S10429   0.502   4.868   9.423 -0.4260  0.2678 -0.0474
  103OSM   H12T10430   0.407   4.722   9.481  0.5223 -0.9103 -3.4096
  103OSM   C13S10431   0.588   4.667   9.369  0.1589  0.2246 -1.0060
  103OSM   H13S10432   0.585   4.565   9.413 -1.3667  1.0121  0.8693
  103OSM   H13T10433   0.695   4.697   9.370  0.3760 -0.5028 -1.2151
  103OSM   C14S10434   0.558   4.665   9.221 -0.2136  0.2338  0.0018
  103OSM   H14S10435   0.575   4.764   9.175  0.8722 -0.2712 -0.7131
  103OSM   H14T10436   0.448   4.644   9.217 -0.2600  0.3879  0.4212
  103OSM   C15S10437   0.641   4.561   9.150 -0.0655  0.1382  1.8869
  103OSM   H15S10438   0.603   4.459   9.173 -1.6243  0.0998 -0.4589
  103OSM   H15T10439   0.749   4.563   9.176  0.8458 -3.3657 -0.7646
  103OSM   C16S10440   0.635   4.564   8.992 -0.0546 -0.3127  0.4259
  103OSM   H16S10441   0.684   4.658   8.958 -0.9439 -0.6037 -1.8425
  103OSM   H16T10442   0.530   4.549   8.957  0.7008 -2.8553 -1.0726
  103OSM   C17S10443   0.698   4.441   8.933 -0.0538 -0.3331  0.6824
  103OSM   H17S10444   0.665   4.348   8.984 -0.3669 -0.0280  1.0431
  103OSM   H17T10445   0.809   4.438   8.944 -0.0733  0.9118  1.4262
  103OSM   C18S10446   0.666   4.429   8.779 -0.3110  0.4119 -1.1185
  103OSM   H18S10447   0.570   4.377   8.758 -1.3870  2.0383 -0.4719
  103OSM   H18T10448   0.740   4.360   8.733  1.0470  2.9113 -2.9873
  103OSM   H18U10449   0.672   4.527   8.725 -3.1142  1.3056  0.0108
  103OSM    C1F10450   0.618   4.184  10.506  0.0798 -0.1163  0.4268
  103OSM     OF10451   0.523   4.165  10.577  0.6504  0.2836  0.1095
  103OSM    C2F10452   0.683   4.069  10.427  0.2844  0.1425 -0.3091
  103OSM    H2F10453   0.694   3.988  10.502 -1.8811  2.2687  2.5393
  103OSM    H2G10454   0.781   4.092  10.381 -0.1487  1.4950 -0.6093
  103OSM    C3F10455   0.582   4.007  10.328  0.4173  0.5684 -0.4743
  103OSM    H3F10456   0.480   3.987  10.369  0.5225  0.8975 -0.0538
  103OSM    H3G10457   0.623   3.909  10.294  0.6047  0.5944 -0.3186
  103OSM    C4F10458   0.574   4.098  10.210  0.3121 -0.3583  0.4660
  103OSM    H4F10459   0.672   4.143  10.186 -0.2007  1.1418  1.0220
  103OSM    H4G10460   0.508   4.181  10.245 -1.5131 -1.8274  0.6899
  103OSM    C5F10461   0.522   4.032  10.086  0.1742  0.2321  0.4179
  103OSM    H5F10462   0.420   3.988  10.090  0.0287  0.5809  0.5485
  103OSM    H5G10463   0.591   3.950  10.057  2.3100  1.8450  0.6994
  103OSM    C6F10464   0.523   4.128   9.964  0.1219 -0.5263  0.0584
  103OSM    H6F10465   0.626   4.142   9.925 -0.6889  0.1751 -2.0168
  103OSM    H6G10466   0.475   4.225   9.988 -1.6323 -1.2187 -0.4927
  103OSM    C7F10467   0.432   4.071   9.852 -0.1922  0.4591 -0.0522
  103OSM    H7F10468   0.336   4.040   9.897 -0.2847  0.2030 -0.4225
  103OSM    H7G10469   0.490   3.987   9.807 -0.7931 -0.2001  0.3839
  103OSM    C8F10470   0.398   4.173   9.745  0.3055  0.2017  0.4000
  103OSM    H8F10471   0.332   4.252   9.788 -0.0547  1.0648 -1.6480
  103OSM    H8G10472   0.314   4.124   9.692 -0.5482  0.3759  1.5408
  103OSM    C9F10473   0.506   4.207   9.644  0.3195 -0.0178  0.1696
  103OSM    H9F10474   0.567   4.295   9.672 -0.4632  1.3430 -2.1084
  103OSM   C10F10475   0.532   4.145   9.525 -0.2252 -0.6018 -0.2738
  103OSM   H10F10476   0.610   4.184   9.458 -1.8408  0.3881 -1.6959
  103OSM   C11F10477   0.451   4.030   9.467  0.4887 -0.3420  0.7234
  103OSM   H11F10478   0.379   3.981   9.536  1.4770  0.2408  2.2207
  103OSM   H11G10479   0.508   3.942   9.431 -2.3567 -1.4366 -1.5506
  103OSM   C12F10480   0.377   4.080   9.339 -0.1995 -0.4964 -0.2020
  103OSM   H12F10481   0.323   4.172   9.372 -1.7002 -0.8857 -1.4412
  103OSM   H12G10482   0.301   4.006   9.305  1.4855 -1.8809 -1.1416
  103OSM   C13F10483   0.466   4.096   9.211  0.1785 -0.0038 -0.5399
  103OSM   H13F10484   0.517   3.997   9.207 -0.9052 -0.6594  0.8744
  103OSM   H13G10485   0.549   4.168   9.223 -0.6947  1.1271 -1.0997
  103OSM   C14F10486   0.394   4.139   9.082  0.1301  0.4238 -0.4895
  103OSM   H14F10487   0.464   4.151   8.997  0.1567 -1.2395 -0.7328
  103OSM   H14G10488   0.344   4.234   9.110 -0.0821  0.1646  0.0208
  103OSM   C15F10489   0.299   4.033   9.030  0.0239 -0.4493 -0.4455
  103OSM   H15F10490   0.216   4.034   9.105  0.6206  0.1286  0.2250
  103OSM   H15G10491   0.362   3.943   9.040 -0.7744 -1.0848 -0.9702
  103OSM   C16F10492   0.244   4.073   8.894 -0.2046  0.5135 -0.3658
  103OSM   H16F10493   0.330   4.073   8.825  0.3230 -0.1431  0.2793
  103OSM   H16G10494   0.200   4.175   8.905  3.3531  2.1709 -0.2166
  103OSM   C17F10495   0.124   3.987   8.856 -0.1166  0.1022 -0.1153
  103OSM   H17F10496   0.150   3.880   8.862  0.5526  0.2081 -0.9159
  103OSM   H17G10497   0.098   3.998   8.748 -1.2751 -1.5787 -0.0437
  103OSM   C18F10498  -0.008   4.015   8.935  0.1991 -0.2525 -0.0081
  103OSM   H18F10499   0.019   3.990   9.039  1.8969 -0.4187 -0.4588
  103OSM   H18G10500  -0.101   3.967   8.896 -0.6427  1.3132 -0.0122
  103OSM   H18H10501  -0.024   4.125   8.930 -0.5556 -0.4055 -2.2291
  104OSM      N10502   2.146   2.689  11.022  0.2983 -0.3361 -0.1453
  104OSM    C1510503   2.133   2.643  10.880 -0.5110 -0.0225 -0.4402
  104OSM   H15A10504   2.038   2.672  10.836 -1.5080 -3.1035 -0.5591
  104OSM   H15B10505   2.155   2.539  10.863  0.0734  0.0153  0.0425
  104OSM   H15C10506   2.207   2.696  10.822  0.5745 -0.2869  0.6669
  104OSM    C1410507   2.070   2.818  11.045 -0.1748  0.0465 -0.2849
  104OSM   H14A10508   2.111   2.900  10.987 -1.2386  0.2556 -0.7564
  104OSM   H14B10509   2.062   2.837  11.151 -3.9749  0.8851 -0.5725
  104OSM   H14C10510   1.967   2.813  11.014 -1.4679  0.3311  3.4873
  104OSM    C1310511   2.079   2.594  11.111  0.2890 -0.0295 -0.0725
  104OSM   H13A10512   1.976   2.591  11.080  0.3141  0.7253 -0.2639
  104OSM   H13B10513   2.080   2.634  11.211 -2.1536 -0.0434  0.0022
  104OSM   H13C10514   2.121   2.496  11.099 -1.3995 -0.6318 -1.5381
  104OSM    C1210515   2.287   2.713  11.067  0.2056 -0.1236 -0.5445
  104OSM   H12A10516   2.346   2.624  11.060 -0.1415 -0.5361  1.3075
  104OSM   H12B10517   2.286   2.747  11.170 -0.4543 -1.1692 -0.1927
  104OSM    C1110518   2.362   2.835  10.989  0.2437 -0.8317 -0.4884
  104OSM   H11A10519   2.336   2.827  10.882 -0.4956  2.4704 -0.6726
  104OSM   H11B10520   2.472   2.837  11.005  0.2811 -1.1735 -0.6919
  104OSM      P10521   2.358   3.106  10.980  0.1767  0.3689 -0.0285
  104OSM    O1310522   2.231   3.180  10.966 -0.0756 -0.6468  0.1990
  104OSM    O1410523   2.453   3.162  11.079  0.5203 -0.5746 -0.6784
  104OSM    O1110524   2.432   3.076  10.846  0.1657 -0.0893  0.1972
  104OSM    O1210525   2.313   2.965  11.037 -0.6980 -0.7126  0.4702
  104OSM    C1S10526   2.360   3.057  10.718 -0.2362  0.3293 -0.6104
  104OSM    H1S10527   2.250   3.072  10.728  0.0155  2.2981 -0.3222
  104OSM    H1T10528   2.378   2.956  10.675 -1.4870 -0.0365 -0.3232
  104OSM     NF10529   2.314   3.178  10.502  0.5030  0.0281 -0.5659
  104OSM    HNF10530   2.338   3.122  10.423  1.5423 -0.2855 -0.0440
  104OSM    C2S10531   2.409   3.164  10.609  0.3995  0.7614 -0.2447
  104OSM    H2S10532   2.408   3.254  10.674 -0.8669  1.3272 -1.0212
  104OSM    C3S10533   2.554   3.125  10.572 -0.3147  1.2450  0.1599
  104OSM    H3S10534   2.557   3.014  10.558 -0.3832  0.9813  1.9587
  104OSM     O310535   2.649   3.140  10.677 -0.3241  0.1051 -0.2764
  104OSM    HO310536   2.593   3.131  10.755 -0.7465 -3.6196 -0.8110
  104OSM    C4S10537   2.596   3.191  10.446  0.3158  0.6701  0.1934
  104OSM    H4S10538   2.581   3.122  10.362  0.2233 -1.0616  1.5731
  104OSM    C5S10539   2.658   3.310  10.423  0.2105  0.2366  0.0601
  104OSM    H5S10540   2.686   3.372  10.510  2.3012 -0.0058 -0.3706
  104OSM    C6S10541   2.701   3.352  10.281 -0.0051 -0.5662 -1.1118
  104OSM    H6S10542   2.809   3.331  10.272  0.1990 -0.5264  0.9035
  104OSM    H6T10543   2.676   3.461  10.284 -2.5151 -1.0885  0.5113
  104OSM    C7S10544   2.623   3.283  10.165 -0.2658 -0.0520 -0.1397
  104OSM    H7S10545   2.515   3.302  10.179 -1.0097 -2.5527 -1.7921
  104OSM    H7T10546   2.644   3.173  10.166 -2.9612 -0.6278  1.0955
  104OSM    C8S10547   2.652   3.335  10.024  0.1959  0.4980  0.1924
  104OSM    H8S10548   2.759   3.346   9.995  0.4275  1.1118  1.2442
  104OSM    H8T10549   2.588   3.420   9.992 -2.9002 -1.3879  0.9886
  104OSM    C9S10550   2.600   3.222   9.930 -0.3117 -1.2137  0.5407
  104OSM    H9S10551   2.492   3.200   9.938 -0.5024 -0.1786  1.0505
  104OSM    H9T10552   2.643   3.122   9.949  0.0575 -0.9675  1.0515
  104OSM   C10S10553   2.626   3.266   9.789 -0.3342 -0.5347 -0.1976
  104OSM   H10S10554   2.732   3.297   9.781  0.1682 -1.3487  2.5032
  104OSM   H10T10555   2.562   3.357   9.777  1.8722  1.2063  0.5446
  104OSM   C11S10556   2.589   3.162   9.681 -0.6335 -0.6364 -0.8210
  104OSM   H11S10557   2.479   3.149   9.688 -0.4082 -1.9816  1.0148
  104OSM   H11T10558   2.648   3.071   9.704  3.4455  1.9924  0.2548
  104OSM   C12S10559   2.628   3.203   9.540  0.1028  0.0323  0.6783
  104OSM   H12S10560   2.739   3.204   9.534  0.2779  1.5463  2.7704
  104OSM   H12T10561   2.588   3.305   9.520 -0.7287 -0.2974  0.6171
  104OSM   C13S10562   2.565   3.120   9.432 -0.0765  0.6557 -0.0322
  104OSM   H13S10563   2.455   3.126   9.449  0.1589 -0.2144  2.1906
  104OSM   H13T10564   2.598   3.018   9.461  0.0277  0.5207 -0.6228
  104OSM   C14S10565   2.609   3.155   9.288 -0.3176  0.5606  0.4915
  104OSM   H14S10566   2.720   3.145   9.279 -0.5893 -1.3405 -1.3723
  104OSM   H14T10567   2.573   3.258   9.271 -0.7391  0.5824  1.4412
  104OSM   C15S10568   2.550   3.048   9.196  0.5712 -0.5401  0.1512
  104OSM   H15S10569   2.441   3.066   9.214  0.6070  0.0156 -0.1684
  104OSM   H15T10570   2.582   2.948   9.231 -1.0035 -0.9996  0.3809
  104OSM   C16S10571   2.592   3.061   9.045 -0.0787 -0.5178 -0.2949
  104OSM   H16S10572   2.566   3.162   9.008  0.4921 -0.2993 -0.1130
  104OSM   H16T10573   2.549   2.984   8.977  1.4760 -1.6274 -0.0921
  104OSM   C17S10574   2.739   3.028   9.021 -0.4691  0.8066  0.0828
  104OSM   H17S10575   2.802   3.088   9.090  1.7518 -1.0342 -0.2222
  104OSM   H17T10576   2.764   3.044   8.914 -2.1242 -0.5710 -0.5482
  104OSM   C18S10577   2.775   2.879   9.053  0.7618 -0.8755 -0.5359
  104OSM   H18S10578   2.774   2.857   9.162 -2.6965 -1.5920 -0.5755
  104OSM   H18T10579   2.873   2.852   9.011 -0.5357 -1.7485 -3.2125
  104OSM   H18U10580   2.702   2.806   9.011  0.9177 -1.8499  0.8277
  104OSM    C1F10581   2.194   3.235  10.512  0.5399 -0.0104 -1.2856
  104OSM     OF10582   2.171   3.297  10.611  0.1380  0.2000 -0.0992
  104OSM    C2F10583   2.084   3.232  10.411 -0.5937 -0.0984  0.4263
  104OSM    H2F10584   1.989   3.202  10.462 -0.7871  0.4285  0.3861
  104OSM    H2G10585   2.118   3.157  10.337  1.6056  0.7653  0.4907
  104OSM    C3F10586   2.087   3.359  10.328  0.4514  0.1039 -0.3941
  104OSM    H3F10587   2.193   3.384  10.307 -0.0715  2.7307 -0.2667
  104OSM    H3G10588   2.046   3.450  10.377 -1.7151 -0.5444 -0.8780
  104OSM    C4F10589   2.022   3.342  10.196  0.2167  0.4181 -0.1658
  104OSM    H4F10590   2.060   3.257  10.136  0.1472 -0.5392  1.0940
  104OSM    H4G10591   2.039   3.429  10.129 -2.7031 -0.0500 -1.6754
  104OSM    C5F10592   1.865   3.361  10.209 -0.2022 -0.0627 -1.0292
  104OSM    H5F10593   1.843   3.464  10.244  1.6398 -0.3009  1.0772
  104OSM    H5G10594   1.830   3.285  10.282  1.9581 -1.8097 -1.6904
  104OSM    C6F10595   1.788   3.332  10.080 -0.2568 -0.4479 -0.0215
  104OSM    H6F10596   1.682   3.348  10.112  0.0539  0.5962  0.5239
  104OSM    H6G10597   1.803   3.225  10.054 -0.4450  0.2138 -3.3526
  104OSM    C7F10598   1.808   3.418   9.952  0.2750  0.0103 -0.4294
  104OSM    H7F10599   1.910   3.396   9.914  0.0067 -1.1595 -0.5084
  104OSM    H7G10600   1.819   3.526   9.979 -1.4650 -0.2661  1.6866
  104OSM    C8F10601   1.704   3.394   9.839  0.7355 -0.2063  0.3122
  104OSM    H8F10602   1.724   3.472   9.763  1.3135 -2.1891 -1.6705
  104OSM    H8G10603   1.608   3.411   9.893  0.9745 -1.2960  1.1148
  104OSM    C9F10604   1.727   3.256   9.776 -0.9307  0.0748 -0.4938
  104OSM    H9F10605   1.664   3.188   9.836 -0.5532 -0.9851 -1.2583
  104OSM   C10F10606   1.789   3.211   9.665 -0.6352 -0.0527 -0.1206
  104OSM   H10F10607   1.787   3.103   9.642  1.1949 -0.6331  2.0675
  104OSM   C11F10608   1.854   3.298   9.556 -0.0783 -0.3531 -0.5286
  104OSM   H11F10609   1.955   3.256   9.539  0.9885  1.4440  0.9141
  104OSM   H11G10610   1.860   3.403   9.593  1.2878 -0.8455  0.7430
  104OSM   C12F10611   1.775   3.299   9.425  0.0568 -0.1503 -0.2447
  104OSM   H12F10612   1.804   3.388   9.365 -0.7039 -0.2938 -0.8392
  104OSM   H12G10613   1.668   3.303   9.456 -0.5378 -2.0220 -1.7852
  104OSM   C13F10614   1.808   3.179   9.332  0.3245 -0.0551  0.7297
  104OSM   H13F10615   1.772   3.086   9.381  0.2595 -1.5839 -1.9837
  104OSM   H13G10616   1.919   3.180   9.337  0.3183  1.3774  0.9028
  104OSM   C14F10617   1.750   3.182   9.191  0.2232 -0.6361  0.4508
  104OSM   H14F10618   1.793   3.100   9.129 -1.3260  0.5918 -2.4542
  104OSM   H14G10619   1.792   3.282   9.171  0.1356 -0.1722  2.4209
  104OSM   C15F10620   1.601   3.197   9.174 -0.3569 -0.2166  0.4926
  104OSM   H15F10621   1.560   3.282   9.234 -0.7195 -0.0171 -0.0265
  104OSM   H15G10622   1.547   3.106   9.207  1.3497 -1.8733 -1.0765
  104OSM   C16F10623   1.558   3.228   9.028 -0.2794  0.2636  0.4519
  104OSM   H16F10624   1.622   3.168   8.960 -0.4627 -1.2941  1.5966
  104OSM   H16G10625   1.572   3.336   9.009  1.2452 -0.1367 -0.9650
  104OSM   C17F10626   1.406   3.203   9.000 -0.0841 -0.1797 -0.8180
  104OSM   H17F10627   1.350   3.250   9.083  1.9747 -0.5583  0.8695
  104OSM   H17G10628   1.400   3.093   9.014  1.3377 -0.0806  0.7851
  104OSM   C18F10629   1.353   3.237   8.861 -0.2609 -0.4364  0.6252
  104OSM   H18F10630   1.247   3.209   8.844 -0.0881 -0.5247 -0.3480
  104OSM   H18G10631   1.418   3.182   8.790  1.4520  0.6053  1.3239
  104OSM   H18H10632   1.376   3.342   8.831 -0.4862 -0.8053 -0.9395
  105OSM      N10633   4.460   5.204  11.065 -0.2414 -0.1863 -0.1318
  105OSM    C1510634   4.439   5.347  11.028 -0.2597 -0.4269  0.1467
  105OSM   H15A10635   4.526   5.386  10.977 -1.4746  0.4185 -1.3577
  105OSM   H15B10636   4.423   5.402  11.120  1.7401 -0.0421  0.3022
  105OSM   H15C10637   4.356   5.359  10.959  0.3037 -0.3353 -0.5248
  105OSM    C1410638   4.582   5.196  11.160  0.5138 -0.4273  0.3055
  105OSM   H14A10639   4.583   5.271  11.238  0.0311 -0.8555  0.7278
  105OSM   H14B10640   4.677   5.209  11.110 -0.3017  2.1012 -0.7177
  105OSM   H14C10641   4.590   5.098  11.206 -0.6379 -0.5182  0.3247
  105OSM    C1310642   4.337   5.173  11.143  0.2969 -0.6813 -0.8895
  105OSM   H13A10643   4.247   5.171  11.085  0.2498  0.7346 -0.9050
  105OSM   H13B10644   4.326   5.252  11.217 -1.7968 -2.0334  0.3218
  105OSM   H13C10645   4.343   5.074  11.185 -0.7717 -0.7994 -1.0137
  105OSM    C1210646   4.479   5.117  10.938  0.0788  0.0496  0.1195
  105OSM   H12A10647   4.389   5.134  10.881 -0.6402  0.3790  1.3138
  105OSM   H12B10648   4.472   5.015  10.973 -0.4731  0.0548  0.0398
  105OSM    C1110649   4.619   5.138  10.857  0.8567 -0.1788 -0.3753
  105OSM   H11A10650   4.603   5.102  10.753  1.6941 -1.1706 -0.1805
  105OSM   H11B10651   4.692   5.066  10.900  0.3249 -0.4427  0.0994
  105OSM      P10652   4.802   5.320  10.876 -0.2233  0.0337 -0.0506
  105OSM    O1310653   4.799   5.465  10.890 -0.4900  0.7017  0.0394
  105OSM    O1410654   4.859   5.246  10.997  0.5309 -0.3762 -0.2973
  105OSM    O1110655   4.871   5.286  10.745 -0.2891  0.3926 -0.2148
  105OSM    O1210656   4.666   5.276  10.847 -0.3860  0.1764  0.1251
  105OSM    C1S10657   4.835   5.349  10.622  0.5179 -0.7565 -0.3714
  105OSM    H1S10658   4.823   5.459  10.628  0.9168 -0.7505  0.4477
  105OSM    H1T10659   4.745   5.305  10.573 -0.1865  0.2032  0.0455
  105OSM     NF10660   4.926   5.409  10.395  0.4564 -0.2198  0.1929
  105OSM    HNF10661   4.895   5.365  10.310  2.4486 -0.5717 -0.4126
  105OSM    C2S10662   4.949   5.325  10.516 -0.0612 -0.0216 -0.5975
  105OSM    H2S10663   5.044   5.360  10.562  0.7572  1.3929 -3.1497
  105OSM    C3S10664   4.960   5.171  10.490  0.5214 -0.2018 -0.4640
  105OSM    H3S10665   4.856   5.132  10.481  0.9690 -1.7170  0.6541
  105OSM     O310666   5.005   5.086  10.595  0.6262 -0.1812  0.0194
  105OSM    HO310667   4.992   5.148  10.668 -0.5002  0.1254 -0.4146
  105OSM    C4S10668   5.041   5.151  10.366  0.5580 -0.4289  0.5376
  105OSM    H4S10669   4.980   5.164  10.275 -3.5106  1.2754  3.2469
  105OSM    C5S10670   5.173   5.125  10.347 -0.3098 -0.1613 -1.1729
  105OSM    H5S10671   5.240   5.130  10.434  0.4781  1.3093 -1.8396
  105OSM    C6S10672   5.257   5.113  10.226 -0.0931 -0.7527  0.0760
  105OSM    H6S10673   5.313   5.017  10.227  1.9923  0.3869  1.4349
  105OSM    H6T10674   5.333   5.195  10.228 -0.7807  0.0114 -2.4193
  105OSM    C7S10675   5.184   5.135  10.094 -0.3468 -0.2320 -0.1771
  105OSM    H7S10676   5.145   5.239  10.095 -0.8843 -0.4226  1.6824
  105OSM    H7T10677   5.098   5.068  10.073 -2.4526  2.2323  0.1206
  105OSM    C8S10678   5.285   5.105   9.980  0.0229 -0.1218 -0.4086
  105OSM    H8S10679   5.313   4.998   9.991 -2.4052 -0.7407  0.5203
  105OSM    H8T10680   5.372   5.173   9.990 -0.9511  0.9779  1.1232
  105OSM    C9S10681   5.233   5.118   9.838  0.2055 -0.3169  0.4037
  105OSM    H9S10682   5.205   5.223   9.813  1.4736  0.0018  0.2459
  105OSM    H9T10683   5.150   5.046   9.820 -0.3004  0.6985 -1.6219
  105OSM   C10S10684   5.344   5.074   9.739 -0.1324 -0.1463 -0.4283
  105OSM   H10S10685   5.363   4.967   9.765  1.6591  0.0841 -0.6907
  105OSM   H10T10686   5.441   5.125   9.755 -0.0162 -0.5788  0.3232
  105OSM   C11S10687   5.311   5.083   9.592  1.0892  0.5453  0.1181
  105OSM   H11S10688   5.399   5.069   9.526 -0.7590 -3.3830 -1.8829
  105OSM   H11T10689   5.265   5.183   9.575 -0.7363 -0.1921  0.4274
  105OSM   C12S10690   5.210   4.964   9.568  0.1387 -0.8146  0.1806
  105OSM   H12S10691   5.111   4.979   9.616  0.0623  0.7468 -0.4075
  105OSM   H12T10692   5.255   4.870   9.606 -1.7801 -1.9885 -0.3366
  105OSM   C13S10693   5.171   4.952   9.420  0.4720 -0.8874 -0.3880
  105OSM   H13S10694   5.259   4.948   9.353 -0.7926  0.0569 -2.2106
  105OSM   H13T10695   5.116   5.047   9.401  0.2941 -1.2162 -1.5807
  105OSM   C14S10696   5.078   4.830   9.388  0.0707 -0.0374 -0.3809
  105OSM   H14S10697   4.993   4.839   9.459  0.4217  4.3346 -0.2143
  105OSM   H14T10698   5.132   4.735   9.409 -0.2305 -0.3863 -1.1963
  105OSM   C15S10699   5.046   4.828   9.233  0.4556 -0.0111  0.5087
  105OSM   H15S10700   5.142   4.792   9.191  1.3693  0.6573  1.9392
  105OSM   H15T10701   5.024   4.931   9.196  0.6563 -0.1112  0.1173
  105OSM   C16S10702   4.924   4.741   9.200 -0.1376  0.3996 -0.0403
  105OSM   H16S10703   4.825   4.787   9.221 -0.8646 -0.3625 -1.5798
  105OSM   H16T10704   4.925   4.653   9.268 -0.1248 -0.7569 -1.4711
  105OSM   C17S10705   4.921   4.690   9.056  0.0857 -0.5916  0.3805
  105OSM   H17S10706   4.852   4.604   9.043  0.8955 -1.5887  2.3619
  105OSM   H17T10707   5.023   4.653   9.033 -0.0647  0.3087 -2.1128
  105OSM   C18S10708   4.888   4.799   8.953 -0.4249  0.6200 -0.3899
  105OSM   H18S10709   4.812   4.866   8.998  0.2822  0.4913  1.0636
  105OSM   H18T10710   4.862   4.770   8.849 -1.9039  0.5557 -0.0152
  105OSM   H18U10711   4.978   4.864   8.950  1.0112 -1.2526 -0.0250
  105OSM    C1F10712   4.934   5.542  10.399 -0.3437  0.0896 -0.6380
  105OSM     OF10713   4.976   5.590  10.508 -0.1355 -0.5094  0.3443
  105OSM    C2F10714   4.900   5.622  10.280  0.2305 -0.5041  0.4890
  105OSM    H2F10715   4.920   5.730  10.298  0.7764 -0.4443 -0.4269
  105OSM    H2G10716   4.790   5.613  10.265  0.1459  2.1640 -1.0287
  105OSM    C3F10717   4.976   5.587  10.155 -0.0330  0.6546  0.0683
  105OSM    H3F10718   4.973   5.481  10.121  1.4118  1.0814 -1.5144
  105OSM    H3G10719   5.084   5.613  10.164 -0.6700  3.4956  0.4214
  105OSM    C4F10720   4.951   5.684  10.038 -0.4256  0.2719 -0.0434
  105OSM    H4F10721   4.982   5.787  10.067  1.0728  0.2693 -1.5124
  105OSM    H4G10722   4.844   5.690  10.011 -0.6832  1.1055  1.0761
  105OSM    C5F10723   5.034   5.648   9.919  0.3865  0.1232  0.0884
  105OSM    H5F10724   5.025   5.539   9.901  0.0604 -0.0929  1.4560
  105OSM    H5G10725   5.141   5.670   9.942  0.7370  1.0722 -2.2154
  105OSM    C6F10726   4.989   5.718   9.789 -0.1924  0.2939 -0.6507
  105OSM    H6F10727   4.967   5.825   9.811 -0.8369  0.1622 -0.6499
  105OSM    H6G10728   4.889   5.677   9.764 -0.1833  0.1714 -0.4895
  105OSM    C7F10729   5.089   5.698   9.677  0.3750 -0.1938 -0.5339
  105OSM    H7F10730   5.117   5.590   9.675  0.8969 -0.1232  1.1059
  105OSM    H7G10731   5.183   5.741   9.717 -0.4168 -0.4673  1.8276
  105OSM    C8F10732   5.035   5.738   9.535  0.4472 -0.2730  0.6374
  105OSM    H8F10733   5.132   5.768   9.489  0.6951 -1.6369  0.2056
  105OSM    H8G10734   4.960   5.820   9.534 -1.7740 -2.1788 -0.4808
  105OSM    C9F10735   4.970   5.624   9.455  0.0283 -0.6392  0.3079
  105OSM    H9F10736   4.941   5.548   9.530 -0.4247 -0.4836  0.2933
  105OSM   C10F10737   4.940   5.623   9.326 -0.9789  0.3093  0.5425
  105OSM   H10F10738   4.909   5.530   9.276  3.9568 -1.2553 -0.1344
  105OSM   C11F10739   4.977   5.739   9.230  0.7462  0.2426  0.1541
  105OSM   H11F10740   5.067   5.699   9.179  1.6719  1.3526  0.8600
  105OSM   H11G10741   5.012   5.827   9.288  2.6101 -0.1678 -0.2719
  105OSM   C12F10742   4.867   5.793   9.139  0.2584  0.0937  0.2230
  105OSM   H12F10743   4.901   5.871   9.067  0.5043  0.4366  0.7062
  105OSM   H12G10744   4.773   5.819   9.192  0.6144  0.9020  0.4701
  105OSM   C13F10745   4.821   5.692   9.031 -0.0841  0.4373 -0.5532
  105OSM   H13F10746   4.742   5.731   8.964  0.9663  4.9558  0.4354
  105OSM   H13G10747   4.763   5.620   9.091 -1.2072  2.4986  0.9828
  105OSM   C14F10748   4.937   5.623   8.957  0.3537 -0.8704  0.2791
  105OSM   H14F10749   4.985   5.538   9.009  1.0339  0.0147  1.1422
  105OSM   H14G10750   5.011   5.706   8.948  0.3830 -0.9664 -0.4479
  105OSM   C15F10751   4.903   5.570   8.818  0.4345  0.9028  0.5821
  105OSM   H15F10752   5.001   5.540   8.777  0.9614  1.3697  1.4827
  105OSM   H15G10753   4.857   5.644   8.750 -2.1966 -0.8140  0.3304
  105OSM   C16F10754   4.801   5.453   8.826 -0.1948 -0.1339 -0.2493
  105OSM   H16F10755   4.706   5.484   8.874  0.2486 -1.5491  1.6489
  105OSM   H16G10756   4.849   5.379   8.894  0.5271 -0.9295 -1.5833
  105OSM   C17F10757   4.775   5.392   8.689  0.3549  0.2133 -0.3373
  105OSM   H17F10758   4.870   5.348   8.653  0.0698 -0.2461 -0.5402
  105OSM   H17G10759   4.754   5.471   8.615  1.8415  0.5615 -0.4118
  105OSM   C18F10760   4.681   5.273   8.698 -0.0169  0.3176  0.9120
  105OSM   H18F10761   4.672   5.215   8.603  0.2707  0.5773  0.7279
  105OSM   H18G10762   4.582   5.310   8.731 -0.0989 -0.0540  1.0914
  105OSM   H18H10763   4.710   5.201   8.778 -1.7265  0.4839  1.7246
  106OSM      N10764   3.385   5.689  10.897 -0.2071  0.2640 -0.6949
  106OSM    C1510765   3.250   5.722  10.955  0.4202 -0.1972 -0.2513
  106OSM   H15A10766   3.174   5.736  10.879 -0.3214  0.1517  0.5301
  106OSM   H15B10767   3.257   5.821  10.997  1.9546 -0.3470 -0.0919
  106OSM   H15C10768   3.220   5.654  11.034 -1.3315 -0.9691 -1.5036
  106OSM    C1410769   3.487   5.680  11.008 -0.2137 -0.5990 -0.8907
  106OSM   H14A10770   3.460   5.615  11.089 -0.5135 -0.6457 -1.0261
  106OSM   H14B10771   3.506   5.779  11.047 -2.1269 -0.1176 -1.0678
  106OSM   H14C10772   3.584   5.650  10.972 -1.0694 -2.0535 -2.1113
  106OSM    C1310773   3.379   5.552  10.847 -0.5995 -0.0956  0.7278
  106OSM   H13A10774   3.481   5.528  10.822 -0.0700  1.7777  0.9725
  106OSM   H13B10775   3.318   5.543  10.758 -0.3903  1.6583  0.3743
  106OSM   H13C10776   3.353   5.480  10.924 -0.3940 -0.6861  0.2580
  106OSM    C1210777   3.417   5.785  10.790  0.2800  0.0654 -0.0696
  106OSM   H12A10778   3.343   5.759  10.716  0.1963 -2.4428  0.8153
  106OSM   H12B10779   3.513   5.769  10.744  1.1167  1.0590  1.2315
  106OSM    C1110780   3.418   5.937  10.833  0.3335  0.4921 -0.2521
  106OSM   H11A10781   3.322   5.962  10.884  1.3200  2.2128  0.8071
  106OSM   H11B10782   3.424   6.000  10.742  3.2580 -0.2906 -0.7026
  106OSM      P10783   3.677   5.987  10.864 -0.0937 -0.0851 -0.5052
  106OSM    O1310784   3.758   6.008  10.986 -0.2929 -0.0231 -0.3854
  106OSM    O1410785   3.715   5.876  10.773  0.0372 -0.1339 -0.0637
  106OSM    O1110786   3.670   6.120  10.785  0.4531  0.1542 -0.2203
  106OSM    O1210787   3.533   5.977  10.913  0.1354  0.1957 -0.1244
  106OSM    C1S10788   3.731   6.124  10.649  0.4245 -0.0278 -0.8159
  106OSM    H1S10789   3.691   6.035  10.596 -1.7995  0.4836 -0.0849
  106OSM    H1T10790   3.842   6.121  10.660  0.3339  1.7427  1.5331
  106OSM     NF10791   3.743   6.245  10.437  0.1801  0.1376  0.2981
  106OSM    HNF10792   3.814   6.312  10.420 -1.2326  1.3186 -1.2466
  106OSM    C2S10793   3.693   6.250  10.573  0.8806  0.4682 -0.5719
  106OSM    H2S10794   3.582   6.253  10.575  0.9078  1.2352 -0.0061
  106OSM    C3S10795   3.734   6.381  10.646 -0.6686 -0.0244  0.3940
  106OSM    H3S10796   3.844   6.394  10.637 -0.6741  0.2152  0.6723
  106OSM     O310797   3.713   6.388  10.788 -0.4461 -0.0017  0.3323
  106OSM    HO310798   3.683   6.297  10.792  2.4327 -1.0252  1.0856
  106OSM    C4S10799   3.665   6.500  10.589 -0.0805 -0.0496  0.0316
  106OSM    H4S10800   3.555   6.498  10.599 -0.0360  1.5587  1.0990
  106OSM    C5S10801   3.725   6.610  10.537  0.1511 -1.1959  0.0715
  106OSM    H5S10802   3.832   6.632  10.540 -0.2290  0.8672 -0.1179
  106OSM    C6S10803   3.652   6.729  10.481  0.1271 -0.0816 -0.1651
  106OSM    H6S10804   3.674   6.823  10.536 -0.5191  1.4082 -2.3556
  106OSM    H6T10805   3.544   6.708  10.498  0.0158  1.0320  0.6091
  106OSM    C7S10806   3.677   6.746  10.333 -0.1776  0.8567  0.8971
  106OSM    H7S10807   3.784   6.766  10.309  0.4780  0.9083  3.5213
  106OSM    H7T10808   3.626   6.840  10.302  2.3359  1.0539 -3.3356
  106OSM    C8S10809   3.617   6.620  10.256  0.5094 -0.4349 -0.3188
  106OSM    H8S10810   3.512   6.626  10.293  0.7797 -1.5431  0.7193
  106OSM    H8T10811   3.661   6.527  10.299  2.1399  0.2024 -0.5579
  106OSM    C9S10812   3.635   6.622  10.109  0.2895 -0.6774  0.2389
  106OSM    H9S10813   3.741   6.621  10.075  0.2538 -1.8821  0.1414
  106OSM    H9T10814   3.604   6.723  10.072 -1.2726 -0.8822  0.9003
  106OSM   C10S10815   3.563   6.505  10.049 -0.3443 -0.1935  0.8898
  106OSM   H10S10816   3.455   6.513  10.072 -0.6368 -0.0112 -0.4572
  106OSM   H10T10817   3.602   6.415  10.100  3.3713 -0.2047 -1.5657
  106OSM   C11S10818   3.597   6.495   9.896 -0.2351 -0.3759 -0.6079
  106OSM   H11S10819   3.708   6.486   9.896 -0.1963 -0.0210  0.3605
  106OSM   H11T10820   3.562   6.588   9.847  0.1990  0.8355  1.2869
  106OSM   C12S10821   3.542   6.368   9.827 -0.0294 -0.3801  0.3422
  106OSM   H12S10822   3.432   6.362   9.846 -0.0880 -0.9564 -0.1307
  106OSM   H12T10823   3.577   6.274   9.874 -1.3622  0.2584  2.7950
  106OSM   C13S10824   3.569   6.380   9.674 -0.2460 -0.1024  0.2052
  106OSM   H13S10825   3.678   6.379   9.655 -0.2779  2.7466 -0.5891
  106OSM   H13T10826   3.528   6.474   9.631 -1.0918 -1.0160 -1.0131
  106OSM   C14S10827   3.508   6.258   9.597 -0.3200 -0.1290  0.1992
  106OSM   H14S10828   3.398   6.248   9.604 -0.6056  2.9792  1.9740
  106OSM   H14T10829   3.559   6.165   9.634  1.0146  0.3117 -0.4602
  106OSM   C15S10830   3.545   6.276   9.449 -0.2516  0.5542 -1.0859
  106OSM   H15S10831   3.527   6.180   9.395 -1.0031  1.3447 -2.2996
  106OSM   H15T10832   3.655   6.288   9.446  0.2362 -1.6095  2.3834
  106OSM   C16S10833   3.464   6.384   9.377  0.8723 -0.3928  0.2948
  106OSM   H16S10834   3.511   6.393   9.277  3.1821 -0.3851  1.3212
  106OSM   H16T10835   3.474   6.487   9.417  0.6831 -0.2129 -0.1133
  106OSM   C17S10836   3.314   6.352   9.347  0.2198  0.7219 -0.2233
  106OSM   H17S10837   3.245   6.418   9.290 -0.0376 -1.7339 -2.9786
  106OSM   H17T10838   3.277   6.345   9.452  0.4011 -0.9646 -0.2456
  106OSM   C18S10839   3.296   6.217   9.290  0.0527  0.1664  0.5105
  106OSM   H18S10840   3.321   6.146   9.371 -2.3856 -0.7465  0.5594
  106OSM   H18T10841   3.353   6.199   9.196  1.6211  1.6067  1.1504
  106OSM   H18U10842   3.190   6.196   9.261  0.5610 -2.8240  0.4727
  106OSM    C1F10843   3.713   6.172  10.332 -0.2905 -0.5050 -0.6747
  106OSM     OF10844   3.610   6.106  10.329  0.1632  0.1610 -0.6416
  106OSM    C2F10845   3.812   6.173  10.217 -1.0059  0.4436  0.2200
  106OSM    H2F10846   3.911   6.178  10.266 -0.4808  0.9335 -0.8648
  106OSM    H2G10847   3.794   6.270  10.165 -1.0335  0.2992 -0.0398
  106OSM    C3F10848   3.801   6.060  10.113  0.2643 -0.7092 -0.1545
  106OSM    H3F10849   3.693   6.056  10.087  0.4549 -2.7238 -0.7765
  106OSM    H3G10850   3.823   5.965  10.166  1.0891 -1.2843 -1.4781
  106OSM    C4F10851   3.897   6.062   9.993  0.8517  0.0563  0.2368
  106OSM    H4F10852   3.873   5.970   9.935 -0.7449  1.2210 -1.0209
  106OSM    H4G10853   4.001   6.082  10.025  0.1094  4.7792  0.3096
  106OSM    C5F10854   3.857   6.158   9.874  0.9276  0.5342 -0.1156
  106OSM    H5F10855   3.829   6.257   9.917 -1.6390  0.7655 -2.0441
  106OSM    H5G10856   3.761   6.123   9.830  1.7791 -0.9555 -0.8359
  106OSM    C6F10857   3.959   6.160   9.756  0.2160 -0.1219 -0.3282
  106OSM    H6F10858   4.057   6.190   9.799  0.5038  1.9845 -2.2537
  106OSM    H6G10859   3.934   6.244   9.688 -2.9731 -0.6810 -0.0131
  106OSM    C7F10860   3.978   6.037   9.671 -0.2151 -0.1558 -0.2733
  106OSM    H7F10861   3.887   6.022   9.610 -1.3142  0.8573  1.0643
  106OSM    H7G10862   4.004   5.944   9.725  2.6261  0.1567 -0.9447
  106OSM    C8F10863   4.095   6.045   9.570  0.2282 -0.0865  0.2046
  106OSM    H8F10864   4.092   5.959   9.500  1.5305 -0.0031  0.0202
  106OSM    H8G10865   4.190   6.046   9.627 -0.8836  0.5031  2.1422
  106OSM    C9F10866   4.100   6.175   9.495  0.3414  0.3385 -0.5954
  106OSM    H9F10867   4.147   6.261   9.544  0.6724  0.0603 -0.4231
  106OSM   C10F10868   4.061   6.197   9.363 -0.3348 -0.4141 -0.3589
  106OSM   H10F10869   4.072   6.302   9.330  1.8878 -1.5173 -3.6327
  106OSM   C11F10870   3.994   6.096   9.269  0.7127 -0.3271 -0.5333
  106OSM   H11F10871   3.940   6.017   9.325  1.5001  0.2864  1.1601
  106OSM   H11G10872   4.067   6.048   9.199  1.4278 -1.6448  1.0522
  106OSM   C12F10873   3.899   6.175   9.186  0.0874 -0.6352  0.5962
  106OSM   H12F10874   3.932   6.280   9.169 -0.4813 -0.5271  0.1098
  106OSM   H12G10875   3.810   6.182   9.253 -0.5510  0.7040 -0.3323
  106OSM   C13F10876   3.867   6.108   9.054  0.0782 -0.3840 -0.0166
  106OSM   H13F10877   3.777   6.167   9.027 -0.9962 -2.1202 -0.3273
  106OSM   H13G10878   3.847   6.001   9.076 -1.0993 -0.7262 -2.4797
  106OSM   C14F10879   3.981   6.111   8.954 -0.4571  0.7473  0.2597
  106OSM   H14F10880   3.981   6.024   8.885  2.2543  0.2936  0.7292
  106OSM   H14G10881   4.072   6.121   9.018  0.6569 -0.0871 -1.1459
  106OSM   C15F10882   3.982   6.238   8.870 -0.2103 -0.2174  0.5508
  106OSM   H15F10883   3.981   6.318   8.947  1.2352  1.3018 -0.9194
  106OSM   H15G10884   3.902   6.240   8.793  0.3947 -1.1548 -0.1257
  106OSM   C16F10885   4.118   6.258   8.796 -0.4972  0.9103 -0.1865
  106OSM   H16F10886   4.205   6.254   8.865 -1.3422  1.0561  0.9195
  106OSM   H16G10887   4.120   6.364   8.764  1.7555  1.8327  2.5437
  106OSM   C17F10888   4.146   6.166   8.674  0.2251  0.8385  0.5958
  106OSM   H17F10889   4.158   6.063   8.714 -0.7114  0.0940 -0.9290
  106OSM   H17G10890   4.244   6.188   8.627  0.4529 -0.8314  0.2034
  106OSM   C18F10891   4.043   6.153   8.559  1.1082  1.3101 -0.0300
  106OSM   H18F10892   3.942   6.127   8.598  1.1745 -1.4729 -1.4416
  106OSM   H18G10893   4.064   6.074   8.483 -2.3058 -1.5329  1.6908
  106OSM   H18H10894   4.034   6.251   8.507 -0.4855 -0.7149 -4.0641
  107OSM      N10895   6.180   2.609  10.953  0.7724  0.5952 -0.5878
  107OSM    C1510896   6.048   2.642  11.028 -0.0315  0.0144  0.3062
  107OSM   H15A10897   6.022   2.566  11.101  1.6961 -1.6085 -0.6623
  107OSM   H15B10898   5.968   2.647  10.956 -0.6162  0.3018  0.9622
  107OSM   H15C10899   6.061   2.735  11.081 -1.2537 -0.8785  2.3218
  107OSM    C1410900   6.290   2.623  11.051 -0.2533 -0.0249 -0.5234
  107OSM   H14A10901   6.383   2.579  11.018  0.2197 -0.5598  1.4121
  107OSM   H14B10902   6.262   2.574  11.143 -1.2687  0.0504 -0.7744
  107OSM   H14C10903   6.319   2.724  11.075 -0.5110  0.0979 -0.7162
  107OSM    C1310904   6.163   2.466  10.910 -0.0336 -0.0441 -0.6507
  107OSM   H13A10905   6.166   2.412  11.003  0.5662 -0.6959 -1.0403
  107OSM   H13B10906   6.238   2.436  10.839 -0.5925 -2.9990 -0.1135
  107OSM   H13C10907   6.070   2.449  10.857  0.1213  1.5057 -1.4845
  107OSM    C1210908   6.201   2.708  10.839 -0.0018  0.7000  0.0556
  107OSM   H12A10909   6.106   2.734  10.796 -0.3683  1.1275  1.0777
  107OSM   H12B10910   6.255   2.662  10.758 -1.6616  1.3602 -1.4802
  107OSM    C1110911   6.278   2.850  10.871 -0.8493  0.6763  0.3817
  107OSM   H11A10912   6.217   2.893  10.954  0.4558  1.0809  1.1609
  107OSM   H11B10913   6.263   2.906  10.776 -3.7281 -1.1093 -0.3241
  107OSM      P10914   6.498   2.956  10.979  0.2324  0.4227  0.1394
  107OSM    O1310915   6.415   2.996  11.094 -0.1303  0.2359 -0.0357
  107OSM    O1410916   6.632   2.912  11.014 -0.5968  0.3498  0.1416
  107OSM    O1110917   6.492   3.076  10.871  0.2287  0.2236  0.0731
  107OSM    O1210918   6.417   2.839  10.903 -0.1003  0.1530 -1.1324
  107OSM    C1S10919   6.571   3.085  10.757 -0.3706 -0.1903  1.3012
  107OSM    H1S10920   6.657   3.015  10.757  0.3442  0.6663  1.8859
  107OSM    H1T10921   6.608   3.189  10.745 -1.7094  0.0846 -1.0158
  107OSM     NF10922   6.566   3.051  10.504 -0.8235  0.6180 -0.1116
  107OSM    HNF10923   6.558   3.115  10.428 -0.0947 -1.6787 -2.2646
  107OSM    C2S10924   6.489   3.065  10.627  0.1238 -0.3696  0.6145
  107OSM    H2S10925   6.437   2.969  10.647 -2.3708  0.6881 -0.3909
  107OSM    C3S10926   6.378   3.175  10.632  0.2391  0.2398  0.7015
  107OSM    H3S10927   6.435   3.269  10.612 -0.6809  0.2811 -2.1442
  107OSM     O310928   6.299   3.195  10.752 -0.0575 -0.0510 -0.7858
  107OSM    HO310929   6.341   3.135  10.814  2.1107  0.0250 -2.0496
  107OSM    C4S10930   6.291   3.153  10.513 -0.2128 -0.7945  0.2740
  107OSM    H4S10931   6.327   3.214  10.428 -0.2878 -1.0408  0.0655
  107OSM    C5S10932   6.188   3.077  10.487  0.4171 -0.2809 -0.4628
  107OSM    H5S10933   6.152   3.006  10.563  2.5541 -4.0852 -2.6757
  107OSM    C6S10934   6.123   3.066  10.357  1.1635  0.5706  0.0679
  107OSM    H6S10935   6.036   3.135  10.352  1.1135  0.8395  3.1648
  107OSM    H6T10936   6.077   2.965  10.362  0.6840  0.8484  1.4223
  107OSM    C7S10937   6.214   3.097  10.239  0.1213 -0.7138  0.5262
  107OSM    H7S10938   6.314   3.053  10.263 -0.7318 -3.9115 -1.2111
  107OSM    H7T10939   6.226   3.207  10.226  0.3039 -0.8932 -1.0147
  107OSM    C8S10940   6.155   3.050  10.105  0.0003 -0.1532  0.1819
  107OSM    H8S10941   6.053   3.093  10.089  0.6793  1.4371 -0.0438
  107OSM    H8T10942   6.129   2.942  10.110 -0.3951 -0.0772 -0.1799
  107OSM    C9S10943   6.245   3.064   9.980 -0.0172  0.2867  0.6723
  107OSM    H9S10944   6.353   3.041   9.995  0.6635 -0.1856 -3.5266
  107OSM    H9T10945   6.238   3.169   9.945  1.6713  0.6582  1.3227
  107OSM   C10S10946   6.174   2.999   9.861 -0.4224 -0.1046  0.0674
  107OSM   H10S10947   6.068   3.031   9.855 -0.5410  0.0136  2.1935
  107OSM   H10T10948   6.173   2.890   9.879  0.7250 -0.4108 -1.4352
  107OSM   C11S10949   6.237   3.030   9.732 -0.8817 -0.2111  0.2975
  107OSM   H11S10950   6.343   2.999   9.744 -0.4813  0.8728 -0.2576
  107OSM   H11T10951   6.235   3.140   9.714 -1.5243 -0.0080  1.5162
  107OSM   C12S10952   6.170   2.954   9.619 -0.7987 -0.0431 -0.4064
  107OSM   H12S10953   6.063   2.982   9.612 -1.6301 -2.3328  1.8724
  107OSM   H12T10954   6.157   2.845   9.634  0.2059 -0.0523  0.5018
  107OSM   C13S10955   6.232   2.982   9.486 -0.4986 -0.5390  0.4836
  107OSM   H13S10956   6.341   2.965   9.483 -0.1646  1.3861  0.7661
  107OSM   H13T10957   6.212   3.084   9.449  0.6416 -0.5873 -0.3105
  107OSM   C14S10958   6.171   2.882   9.390  0.6073 -0.7777 -0.6161
  107OSM   H14S10959   6.063   2.891   9.415  1.0296  0.3212  0.9772
  107OSM   H14T10960   6.200   2.779   9.420  1.7957  0.1386  1.6804
  107OSM   C15S10961   6.186   2.906   9.237  0.1110 -0.1128 -0.0644
  107OSM   H15S10962   6.290   2.936   9.215  0.7060 -2.3165 -0.5114
  107OSM   H15T10963   6.114   2.983   9.201  1.2426  0.5065 -1.0596
  107OSM   C16S10964   6.155   2.777   9.151  0.3814 -0.1462 -0.2197
  107OSM   H16S10965   6.047   2.756   9.162  0.5029 -1.3048 -1.1349
  107OSM   H16T10966   6.206   2.688   9.194  0.2266 -0.7208 -1.1891
  107OSM   C17S10967   6.190   2.793   9.004  0.5045 -0.5937  0.2091
  107OSM   H17S10968   6.292   2.830   8.984 -0.3494  2.6022  1.1175
  107OSM   H17T10969   6.122   2.874   8.968  1.6379 -0.3508 -1.5475
  107OSM   C18S10970   6.167   2.680   8.915  0.1692 -0.5888  0.5673
  107OSM   H18S10971   6.071   2.630   8.940 -0.9691 -1.7851 -4.8634
  107OSM   H18T10972   6.245   2.602   8.928  0.1186 -0.3255  2.9024
  107OSM   H18U10973   6.153   2.714   8.810 -3.3849 -1.4508  0.6145
  107OSM    C1F10974   6.648   2.947  10.499  0.6988  0.5616  0.1528
  107OSM     OF10975   6.634   2.846  10.574  0.1946  0.2940  0.0869
  107OSM    C2F10976   6.748   2.947  10.392  0.3849 -0.0945  0.5829
  107OSM    H2F10977   6.848   2.981  10.426  0.9545  0.0723 -1.1301
  107OSM    H2G10978   6.715   3.024  10.320 -0.3076 -0.4963  0.4611
  107OSM    C3F10979   6.748   2.812  10.315  0.3909  0.1742  0.0555
  107OSM    H3F10980   6.657   2.789  10.256  0.5581  1.5096 -0.7653
  107OSM    H3G10981   6.768   2.732  10.390 -1.2592  0.2720  0.6263
  107OSM    C4F10982   6.869   2.807  10.218  0.2439 -0.2726  0.3518
  107OSM    H4F10983   6.881   2.698  10.201 -0.6570 -0.1286 -1.3655
  107OSM    H4G10984   6.953   2.861  10.268 -0.7099  0.2654  1.4187
  107OSM    C5F10985   6.846   2.876  10.087  0.0113 -0.9181  0.3373
  107OSM    H5F10986   6.838   2.983  10.114 -1.7779 -1.5835  2.7135
  107OSM    H5G10987   6.747   2.844  10.049 -0.0400 -1.0749  0.6012
  107OSM    C6F10988   6.950   2.842   9.983 -0.3209 -0.3001  0.1773
  107OSM    H6F10989   6.928   2.741   9.942 -3.0345  0.9853 -1.8117
  107OSM    H6G10990   7.046   2.831  10.038 -0.8817 -3.2888  0.7197
  107OSM    C7F10991   6.951   2.952   9.884  0.2427  0.2231  0.8749
  107OSM    H7F10992   6.987   3.047   9.930  0.7744  3.4371 -5.1280
  107OSM    H7G10993   6.850   2.973   9.842  0.3693 -0.5237  0.1593
  107OSM    C8F10994   7.033   2.916   9.757 -1.3110  0.3228  0.2455
  107OSM    H8F10995   6.996   2.818   9.718  1.7781 -2.3925  3.3658
  107OSM    H8G10996   7.140   2.897   9.780 -0.7417  1.8281 -0.9977
  107OSM    C9F10997   7.024   3.042   9.665  0.0077  1.0992  0.8277
  107OSM    H9F10998   7.043   3.141   9.710 -4.1207  2.0230  1.0213
  107OSM   C10F10999   7.007   3.041   9.531  0.3125 -0.5750  0.0186
  107OSM   H10F11000   7.016   3.138   9.480  1.4683 -1.0694 -0.7527
  107OSM   C11F11001   6.984   2.925   9.435 -0.0999  0.0845  0.5688
  107OSM   H11F11002   7.016   2.827   9.478 -1.9445 -1.0694 -0.5580
  107OSM   H11G11003   7.045   2.935   9.343  0.5469  4.4223  1.2701
  107OSM   C12F11004   6.840   2.908   9.388  0.2994  0.0343 -0.1146
  107OSM   H12F11005   6.771   2.921   9.474  1.6661  2.1556  0.7431
  107OSM   H12G11006   6.834   2.812   9.333 -0.4450  0.6517 -1.1548
  107OSM   C13F11007   6.817   3.016   9.280 -0.3079  0.3167  0.1076
  107OSM   H13F11008   6.891   3.001   9.200 -1.4265  0.2716 -0.9465
  107OSM   H13G11009   6.838   3.117   9.321  1.9081 -0.3506  0.7214
  107OSM   C14F11010   6.670   3.013   9.240 -0.0425 -0.2223 -0.0102
  107OSM   H14F11011   6.617   3.058   9.327  0.4985  1.9584 -0.7465
  107OSM   H14G11012   6.642   2.906   9.236 -1.2318  0.0972 -0.9756
  107OSM   C15F11013   6.638   3.089   9.115  0.8746  0.0337  0.8517
  107OSM   H15F11014   6.695   3.185   9.115  2.4746 -0.8698  0.1472
  107OSM   H15G11015   6.531   3.117   9.113  1.0747  0.9317 -1.7760
  107OSM   C16F11016   6.676   3.011   8.983  0.0541 -0.0584 -0.2666
  107OSM   H16F11017   6.655   2.903   8.994 -0.0152 -0.4587 -3.4032
  107OSM   H16G11018   6.786   3.015   8.972  0.3410  0.1074  2.1111
  107OSM   C17F11019   6.603   3.057   8.859  0.5054 -0.1159  0.3446
  107OSM   H17F11020   6.638   3.159   8.833  0.9870 -0.1822  0.7191
  107OSM   H17G11021   6.496   3.058   8.889  0.8689  1.1987  1.7240
  107OSM   C18F11022   6.633   2.966   8.739 -0.5367 -0.5033 -0.7097
  107OSM   H18F11023   6.680   3.013   8.649 -0.6479 -1.2151 -1.1539
  107OSM   H18G11024   6.545   2.911   8.699  0.9737 -0.0821 -5.2702
  107OSM   H18H11025   6.710   2.889   8.761 -0.6417 -0.1911  0.8490
  108OSM      N11026   4.074   4.483  11.041 -0.2665 -0.2750  0.0068
  108OSM    C1511027   3.968   4.429  11.138 -0.0080  0.1569 -0.4334
  108OSM   H15A11028   3.865   4.447  11.109 -0.3986  0.5615  1.1247
  108OSM   H15B11029   3.989   4.466  11.236 -0.1399 -0.5853 -0.1151
  108OSM   H15C11030   3.976   4.321  11.132  0.8602  0.2273 -0.7221
  108OSM    C1411031   4.069   4.637  11.070  0.1183  0.0379  0.1484
  108OSM   H14A11032   3.979   4.668  11.019 -0.2829 -3.2909 -1.4062
  108OSM   H14B11033   4.150   4.687  11.020 -0.0539 -0.7934 -1.0017
  108OSM   H14C11034   4.063   4.660  11.175 -1.1105  0.1605  0.0694
  108OSM    C1311035   4.215   4.437  11.066 -0.5575 -0.4936  0.2055
  108OSM   H13A11036   4.213   4.332  11.089  0.6121 -0.0721  2.4656
  108OSM   H13B11037   4.257   4.489  11.151  1.2743  0.3088 -1.1293
  108OSM   H13C11038   4.286   4.470  10.992  0.6210  0.2423  1.6158
  108OSM    C1211039   4.032   4.462  10.895 -0.6653  0.3013 -0.2008
  108OSM   H12A11040   4.022   4.358  10.867 -2.2485  0.6529 -1.0936
  108OSM   H12B11041   4.097   4.523  10.835  1.8925 -0.4028  1.6878
  108OSM    C1111042   3.896   4.518  10.855  0.3082  0.3672 -0.3318
  108OSM   H11A11043   3.812   4.478  10.915 -1.5801 -0.6924 -3.4481
  108OSM   H11B11044   3.875   4.487  10.751 -1.7283  2.0342 -0.4740
  108OSM      P11045   3.925   4.751  10.744  0.2187  0.2279 -0.2129
  108OSM    O1311046   3.876   4.889  10.765 -0.4718  0.2994 -0.2000
  108OSM    O1411047   4.065   4.742  10.714  0.1017  0.3265 -0.2848
  108OSM    O1111048   3.838   4.687  10.628  0.1500  0.3144 -0.5080
  108OSM    O1211049   3.877   4.662  10.867 -0.3972  0.5223 -0.1867
  108OSM    C1S11050   3.699   4.696  10.610 -0.0008  0.1643 -0.0118
  108OSM    H1S11051   3.666   4.801  10.621 -0.9536 -0.2158  0.9631
  108OSM    H1T11052   3.650   4.641  10.694 -1.5492  1.3607 -0.0882
  108OSM     NF11053   3.507   4.692  10.436 -0.0549 -0.2904 -0.2471
  108OSM    HNF11054   3.444   4.615  10.446 -1.1919  0.8148  1.8725
  108OSM    C2S11055   3.646   4.656  10.462  0.1090  0.1360 -0.6610
  108OSM    H2S11056   3.705   4.727  10.399  1.5602 -0.4608 -0.0307
  108OSM    C3S11057   3.694   4.512  10.430  0.5205  0.4512  0.4788
  108OSM    H3S11058   3.645   4.438  10.497  0.1870  1.1689  1.0413
  108OSM     O311059   3.830   4.503  10.452 -0.1963  0.0249  0.1777
  108OSM    HO311060   3.851   4.576  10.510  1.2261 -1.4167  1.5778
  108OSM    C4S11061   3.665   4.467  10.292  0.3382  0.3868  0.2764
  108OSM    H4S11062   3.719   4.520  10.213  1.8433  1.2283  1.8091
  108OSM    C5S11063   3.578   4.372  10.255 -0.1070 -0.1133  0.3443
  108OSM    H5S11064   3.522   4.322  10.335 -0.0881  0.1673  0.5320
  108OSM    C6S11065   3.534   4.326  10.115  0.4698  0.2729  0.0950
  108OSM    H6S11066   3.435   4.366  10.086  0.5233 -0.0851 -0.6137
  108OSM    H6T11067   3.531   4.215  10.104 -2.3737  0.2784  0.2613
  108OSM    C7S11068   3.639   4.372  10.018 -0.5111 -0.3388 -0.4862
  108OSM    H7S11069   3.735   4.329  10.053 -1.0377  0.4764  2.2269
  108OSM    H7T11070   3.638   4.483  10.012  3.1900 -0.0533  1.1270
  108OSM    C8S11071   3.618   4.322   9.875 -0.1356 -0.9945  0.0466
  108OSM    H8S11072   3.665   4.396   9.807 -2.0421 -0.4383 -0.7397
  108OSM    H8T11073   3.508   4.325   9.857 -0.0951 -3.0150 -0.7748
  108OSM    C9S11074   3.675   4.181   9.829  0.0572 -0.4707 -0.8944
  108OSM    H9S11075   3.668   4.112   9.916 -0.5034  1.3058  0.5282
  108OSM    H9T11076   3.779   4.196   9.794 -0.2182 -1.0700 -2.0290
  108OSM   C10S11077   3.583   4.120   9.724  0.3189 -0.6304  0.1631
  108OSM   H10S11078   3.485   4.095   9.768 -0.4033  1.5618 -0.0466
  108OSM   H10T11079   3.627   4.025   9.687 -0.2019 -0.7233 -0.2186
  108OSM   C11S11080   3.553   4.207   9.595  0.4067 -0.3354  0.1734
  108OSM   H11S11081   3.660   4.214   9.563  0.7750 -1.2551  1.1545
  108OSM   H11T11082   3.526   4.314   9.613 -0.3869 -0.5740  0.4492
  108OSM   C12S11083   3.476   4.137   9.485 -0.2857 -0.0903  0.1187
  108OSM   H12S11084   3.371   4.145   9.519  0.3916  1.4781  2.0499
  108OSM   H12T11085   3.510   4.032   9.473 -0.3170  0.0645 -1.5406
  108OSM   C13S11086   3.493   4.209   9.349  0.0609 -0.5406 -0.4239
  108OSM   H13S11087   3.599   4.236   9.334  0.2146 -1.7781 -1.7817
  108OSM   H13T11088   3.433   4.303   9.346 -0.1138 -0.6760 -1.5502
  108OSM   C14S11089   3.451   4.128   9.223 -1.1320  0.4351 -0.4584
  108OSM   H14S11090   3.354   4.091   9.262 -0.6479  0.5555  0.8962
  108OSM   H14T11091   3.511   4.035   9.211  0.2632  0.8028  2.7017
  108OSM   C15S11092   3.426   4.223   9.100  0.0660 -0.5174  0.3189
  108OSM   H15S11093   3.359   4.306   9.130  0.2690 -0.3383  0.2764
  108OSM   H15T11094   3.372   4.160   9.026  1.4897 -1.1393 -0.2365
  108OSM   C16S11095   3.551   4.293   9.042  0.1178 -0.6614  1.0139
  108OSM   H16S11096   3.610   4.212   8.995  0.6653  0.5362 -0.4312
  108OSM   H16T11097   3.611   4.336   9.125 -0.3977 -0.4561  1.2866
  108OSM   C17S11098   3.529   4.400   8.930  0.6658  0.7804 -0.7210
  108OSM   H17S11099   3.628   4.431   8.890  1.3171  0.5703  0.6557
  108OSM   H17T11100   3.486   4.486   8.985 -2.7987  0.8302 -3.1739
  108OSM   C18S11101   3.426   4.364   8.828  0.2715  0.4138 -0.4983
  108OSM   H18S11102   3.453   4.281   8.760  0.6277 -0.4224  0.6466
  108OSM   H18T11103   3.409   4.446   8.755 -1.0977 -0.9707 -1.8265
  108OSM   H18U11104   3.326   4.344   8.874  0.4129  0.6386 -0.0873
  108OSM    C1F11105   3.468   4.820  10.440  0.5103  0.4134 -0.1261
  108OSM     OF11106   3.546   4.913  10.411  0.2344 -1.4136  0.2717
  108OSM    C2F11107   3.318   4.847  10.460 -0.2818  0.1666  0.3013
  108OSM    H2F11108   3.310   4.940  10.520  0.4062 -1.0233  2.3123
  108OSM    H2G11109   3.269   4.764  10.515  0.2304 -0.9593 -0.8819
  108OSM    C3F11110   3.248   4.874  10.325 -0.7004 -0.0425 -0.0219
  108OSM    H3F11111   3.295   4.959  10.270  1.0579 -0.3222  0.9826
  108OSM    H3G11112   3.141   4.898  10.341 -0.9450 -1.2953  0.2962
  108OSM    C4F11113   3.243   4.753  10.231  0.4158  0.2341 -1.0096
  108OSM    H4F11114   3.228   4.657  10.285 -0.6508  1.4707  1.0488
  108OSM    H4G11115   3.338   4.752  10.173  0.9277  2.1464 -0.3063
  108OSM    C5F11116   3.128   4.754  10.130 -0.1664 -0.0450 -0.3389
  108OSM    H5F11117   3.144   4.853  10.081  3.8328 -0.7262 -0.7139
  108OSM    H5G11118   3.035   4.769  10.189  0.4796  0.4175  0.5952
  108OSM    C6F11119   3.112   4.626  10.051  0.6561 -0.1539  0.2099
  108OSM    H6F11120   3.019   4.644   9.992 -0.4869  0.2420  2.0405
  108OSM    H6G11121   3.091   4.537  10.114 -1.1259  0.6387  0.7886
  108OSM    C7F11122   3.238   4.597   9.978 -0.4445  0.1326  0.3503
  108OSM    H7F11123   3.334   4.593  10.034  0.5258 -2.9365 -1.3263
  108OSM    H7G11124   3.254   4.676   9.901 -0.1086 -0.6720 -0.4145
  108OSM    C8F11125   3.243   4.465   9.902  0.3864  0.3393  0.1344
  108OSM    H8F11126   3.247   4.386   9.980 -1.1707  0.0489 -0.0350
  108OSM    H8G11127   3.344   4.454   9.858  0.9001  0.6060  1.2098
  108OSM    C9F11128   3.145   4.449   9.795  0.9913 -0.1901  0.4668
  108OSM    H9F11129   3.043   4.426   9.829 -0.4242  0.9021 -2.6344
  108OSM   C10F11130   3.173   4.480   9.667  0.1583  0.2268 -0.2720
  108OSM   H10F11131   3.091   4.464   9.596 -0.2014 -1.2290  0.4285
  108OSM   C11F11132   3.306   4.516   9.602 -0.2109 -0.6956  0.2329
  108OSM   H11F11133   3.355   4.422   9.568 -0.8590 -0.3670 -1.7924
  108OSM   H11G11134   3.367   4.571   9.677 -1.3356 -0.7087  1.1765
  108OSM   C12F11135   3.276   4.623   9.493 -0.2811 -0.5406 -0.4553
  108OSM   H12F11136   3.368   4.682   9.471 -0.3559 -0.8463 -1.6891
  108OSM   H12G11137   3.198   4.690   9.536 -0.9979 -1.7474  0.1666
  108OSM   C13F11138   3.222   4.560   9.368  0.0944  0.4064 -0.1309
  108OSM   H13F11139   3.120   4.516   9.375 -0.6625  2.0044 -0.6308
  108OSM   H13G11140   3.291   4.480   9.333  0.7780  0.1970  1.6142
  108OSM   C14F11141   3.223   4.664   9.255  0.3423 -0.5793  0.4181
  108OSM   H14F11142   3.324   4.708   9.242  0.7881 -2.2153 -3.0449
  108OSM   H14G11143   3.154   4.744   9.288 -0.0134 -1.0712  0.9027
  108OSM   C15F11144   3.179   4.603   9.123  0.0169  0.0244  0.4119
  108OSM   H15F11145   3.087   4.546   9.149  0.8094 -1.4452  0.1056
  108OSM   H15G11146   3.259   4.540   9.077  0.9610  1.4085  0.0873
  108OSM   C16F11147   3.130   4.714   9.014  0.7242 -0.7982 -0.2721
  108OSM   H16F11148   3.212   4.788   9.004  1.6027 -1.9138 -1.6183
  108OSM   H16G11149   3.045   4.775   9.052  0.5013 -0.8075 -0.7490
  108OSM   C17F11150   3.084   4.650   8.883 -1.0258 -0.3988  0.3183
  108OSM   H17F11151   2.998   4.581   8.898  0.0134 -1.8064  0.0121
  108OSM   H17G11152   3.172   4.589   8.855  0.3432  0.9863  1.4639
  108OSM   C18F11153   3.074   4.760   8.772 -0.1189  0.0760 -0.5447
  108OSM   H18F11154   3.160   4.830   8.781  0.7612 -1.1710  1.1524
  108OSM   H18G11155   2.991   4.817   8.819  0.3276  0.7573 -0.5658
  108OSM   H18H11156   3.064   4.732   8.665  1.6860  0.6525 -0.8996
  109OSM      N11157   2.273   3.860  11.567  0.1783  0.2952  0.5117
  109OSM    C1511158   2.416   3.905  11.589 -0.2467  0.3829  0.3457
  109OSM   H15A11159   2.497   3.849  11.544  2.4675  2.6064  2.1242
  109OSM   H15B11160   2.433   3.887  11.694 -0.7173 -1.8659  0.0935
  109OSM   H15C11161   2.427   4.010  11.565 -1.9317  0.5603  0.2152
  109OSM    C1411162   2.254   3.716  11.579  0.4573 -0.8446 -0.3808
  109OSM   H14A11163   2.256   3.682  11.682 -1.8994  0.2539  0.0974
  109OSM   H14B11164   2.322   3.663  11.514 -0.6351 -2.6009 -0.1929
  109OSM   H14C11165   2.158   3.686  11.538 -0.0249  0.6258 -0.3785
  109OSM    C1311166   2.187   3.937  11.660 -0.2876  0.2786  0.3764
  109OSM   H13A11167   2.199   4.044  11.653 -0.3116  0.2171 -0.9398
  109OSM   H13B11168   2.197   3.902  11.762 -2.9412 -1.4368  0.1567
  109OSM   H13C11169   2.084   3.915  11.638 -0.0536 -0.6796  0.1822
  109OSM    C1211170   2.222   3.898  11.428  0.1319  0.3941 -0.3920
  109OSM   H12A11171   2.228   4.006  11.419 -1.6731  0.2963 -5.0361
  109OSM   H12B11172   2.119   3.868  11.422 -0.2659  1.7761 -0.9605
  109OSM    C1111173   2.305   3.835  11.313  0.6172 -0.3487 -1.2203
  109OSM   H11A11174   2.303   3.725  11.328 -1.6991 -0.0227  1.8617
  109OSM   H11B11175   2.408   3.870  11.334 -0.4718  2.5616 -0.1504
  109OSM      P11176   2.307   4.006  11.124  0.2935 -0.6103  0.1062
  109OSM    O1311177   2.257   4.125  11.199 -0.5218  1.0082  0.3145
  109OSM    O1411178   2.452   3.995  11.097 -0.5024 -0.2804  0.2571
  109OSM    O1111179   2.228   4.003  10.979 -0.3406  0.0555 -0.5752
  109OSM    O1211180   2.248   3.877  11.189  0.7763  0.4739 -0.0433
  109OSM    C1S11181   2.196   3.874  10.929  0.7310 -0.2429  0.0362
  109OSM    H1S11182   2.091   3.854  10.959  0.5209 -0.4577 -0.8205
  109OSM    H1T11183   2.254   3.788  10.969  0.7231 -1.9242 -3.2253
  109OSM     NF11184   2.114   3.758  10.718  0.6007 -0.0344 -1.1196
  109OSM    HNF11185   2.165   3.680  10.682 -0.0168 -0.0241 -2.0634
  109OSM    C2S11186   2.193   3.870  10.774  0.2314  0.0105  0.2409
  109OSM    H2S11187   2.150   3.966  10.738  2.7149  0.9470 -0.4222
  109OSM    C3S11188   2.346   3.878  10.724 -0.4470  0.6690 -0.0472
  109OSM    H3S11189   2.411   3.791  10.745 -1.0380  0.0467 -0.7326
  109OSM     O311190   2.415   3.994  10.770 -0.4762  0.8078 -0.2001
  109OSM    HO311191   2.344   4.034  10.821  0.4137  0.1290  1.6496
  109OSM    C4S11192   2.334   3.884  10.571  0.0570 -0.3084 -0.8509
  109OSM    H4S11193   2.288   3.979  10.541  1.3303  1.0478  1.2114
  109OSM    C5S11194   2.372   3.792  10.481  0.5861  0.5210 -0.1865
  109OSM    H5S11195   2.416   3.699  10.519 -2.4316 -0.1579  1.9943
  109OSM    C6S11196   2.335   3.800  10.335  0.2597 -0.3139 -0.1488
  109OSM    H6S11197   2.413   3.859  10.282 -0.4041  0.8512  0.1330
  109OSM    H6T11198   2.241   3.856  10.315  1.1644  2.2741  2.1449
  109OSM    C7S11199   2.313   3.661  10.267 -0.2875  0.2008  0.5391
  109OSM    H7S11200   2.249   3.587  10.319 -0.4113 -0.0663  0.0129
  109OSM    H7T11201   2.411   3.608  10.271 -0.3879 -0.1179 -0.6208
  109OSM    C8S11202   2.272   3.663  10.114  0.2744 -0.3301 -0.6927
  109OSM    H8S11203   2.323   3.747  10.062  1.2938 -1.8165 -2.1868
  109OSM    H8T11204   2.163   3.685  10.111  0.4335  1.1462  1.5074
  109OSM    C9S11205   2.301   3.539  10.037 -0.4343 -0.1045  0.5100
  109OSM    H9S11206   2.241   3.450  10.065  1.0114 -0.7848  1.5523
  109OSM    H9T11207   2.407   3.510  10.027 -1.3076 -3.2741 -0.8496
  109OSM   C10S11208   2.267   3.566   9.885 -0.2303 -0.3987 -0.3469
  109OSM   H10S11209   2.355   3.623   9.848 -0.6537  1.3393  1.1883
  109OSM   H10T11210   2.182   3.638   9.883 -0.2134 -0.2876  1.3269
  109OSM   C11S11211   2.251   3.448   9.794  0.1975  0.6840  0.2602
  109OSM   H11S11212   2.147   3.412   9.808  1.0296 -1.4279  1.5707
  109OSM   H11T11213   2.315   3.364   9.829 -0.4849 -1.1637 -2.5171
  109OSM   C12S11214   2.258   3.474   9.643 -0.0668  0.0657  0.0691
  109OSM   H12S11215   2.360   3.513   9.621 -0.9263  2.0275 -0.6536
  109OSM   H12T11216   2.179   3.546   9.613 -2.7235 -2.1420  1.3524
  109OSM   C13S11217   2.242   3.353   9.548 -0.8700  0.2997 -0.2485
  109OSM   H13S11218   2.158   3.292   9.587 -0.2849  1.5327  3.2568
  109OSM   H13T11219   2.335   3.293   9.554 -2.3516 -2.3128 -1.6006
  109OSM   C14S11220   2.232   3.390   9.406 -0.0585  0.4726 -0.2624
  109OSM   H14S11221   2.303   3.468   9.370  2.9410 -1.8323  0.2564
  109OSM   H14T11222   2.128   3.427   9.393 -0.2815  0.3361  0.9684
  109OSM   C15S11223   2.231   3.262   9.318 -0.1466 -0.3832 -0.4150
  109OSM   H15S11224   2.200   3.169   9.370  2.5499  0.0985  2.3381
  109OSM   H15T11225   2.339   3.241   9.305  0.0276  0.2474 -0.0061
  109OSM   C16S11226   2.175   3.283   9.177  0.5905 -0.2987  0.2779
  109OSM   H16S11227   2.210   3.379   9.134  1.1177 -2.1799 -3.9353
  109OSM   H16T11228   2.064   3.283   9.189  0.6180  1.7982  0.9566
  109OSM   C17S11229   2.217   3.167   9.086  0.2275  0.2653 -0.2885
  109OSM   H17S11230   2.182   3.071   9.129  1.8215 -0.4622 -0.5184
  109OSM   H17T11231   2.328   3.161   9.083  0.2007 -0.7507  0.4270
  109OSM   C18S11232   2.158   3.175   8.940 -0.1492  0.1517 -0.2326
  109OSM   H18S11233   2.185   3.080   8.889 -1.4654 -1.8932  2.5746
  109OSM   H18T11234   2.204   3.256   8.880  0.9622 -1.2184 -1.3248
  109OSM   H18U11235   2.048   3.186   8.950  0.0370  1.6479  0.4877
  109OSM    C1F11236   1.981   3.757  10.711 -0.5398 -0.1396 -0.0703
  109OSM     OF11237   1.912   3.844  10.763 -0.2060  1.0082 -0.2354
  109OSM    C2F11238   1.926   3.632  10.645 -0.1484 -0.2317 -0.0293
  109OSM    H2F11239   1.859   3.575  10.712 -1.9733  1.6964 -0.1092
  109OSM    H2G11240   2.006   3.572  10.596 -0.8792 -1.0204 -0.2827
  109OSM    C3F11241   1.833   3.668  10.529  0.0565  0.1267 -1.0939
  109OSM    H3F11242   1.742   3.723  10.559 -1.1491 -2.7649  0.9678
  109OSM    H3G11243   1.797   3.573  10.484 -0.8884 -0.1847  0.2814
  109OSM    C4F11244   1.899   3.741  10.412  0.4225  0.1259  0.3676
  109OSM    H4F11245   1.961   3.670  10.353  0.1216  2.0897 -2.5076
  109OSM    H4G11246   1.960   3.831  10.435  1.4474 -0.5936  0.5896
  109OSM    C5F11247   1.795   3.776  10.301  0.1401  0.1785 -0.1846
  109OSM    H5F11248   1.734   3.860  10.340 -0.5144 -0.2956 -0.1714
  109OSM    H5G11249   1.725   3.692  10.282 -0.4597  0.7108 -0.3667
  109OSM    C6F11250   1.864   3.820  10.172  0.1047 -0.4776 -0.2989
  109OSM    H6F11251   1.903   3.738  10.109  2.3234  2.1557 -2.6644
  109OSM    H6G11252   1.956   3.878  10.197  0.9776 -1.4550 -1.1713
  109OSM    C7F11253   1.767   3.915  10.098  0.0368  0.1768 -0.5291
  109OSM    H7F11254   1.791   4.015  10.140  0.9746 -0.2680  0.0087
  109OSM    H7G11255   1.671   3.881  10.143  1.9494 -1.5682  2.6524
  109OSM    C8F11256   1.769   3.910   9.948 -0.5092  0.5984  0.4375
  109OSM    H8F11257   1.680   3.960   9.904 -0.4404  1.0440  0.7865
  109OSM    H8G11258   1.761   3.802   9.926 -0.3040  0.6395  0.1523
  109OSM    C9F11259   1.898   3.960   9.881 -0.3888 -0.1044  0.0050
  109OSM    H9F11260   1.969   4.002   9.953  0.0095 -0.5970 -0.0935
  109OSM   C10F11261   1.924   3.966   9.749  0.7517 -0.5356  0.1954
  109OSM   H10F11262   2.022   4.004   9.715  0.8343 -0.2708  0.7139
  109OSM   C11F11263   1.830   3.922   9.640  0.3526 -0.2158  0.1129
  109OSM   H11F11264   1.826   4.002   9.563 -0.1450 -1.8217 -1.6074
  109OSM   H11G11265   1.726   3.920   9.680 -0.7049 -0.2123 -2.4544
  109OSM   C12F11266   1.875   3.793   9.578  0.1864 -0.1590 -0.1707
  109OSM   H12F11267   1.861   3.707   9.648  4.3177 -0.6343  0.3182
  109OSM   H12G11268   1.984   3.799   9.562  0.2876  0.1407  0.5978
  109OSM   C13F11269   1.798   3.768   9.445 -1.2169 -0.4829  0.2848
  109OSM   H13F11270   1.773   3.865   9.396 -2.9282 -0.0462  1.8730
  109OSM   H13G11271   1.701   3.716   9.462 -0.5221 -2.1759 -0.6680
  109OSM   C14F11272   1.877   3.676   9.357 -0.0413 -0.0653 -0.9136
  109OSM   H14F11273   1.884   3.577   9.407 -0.0972  0.4610  0.1874
  109OSM   H14G11274   1.981   3.715   9.345 -0.0344  0.2569  0.0443
  109OSM   C15F11275   1.826   3.649   9.219  0.1531 -0.7859  0.1715
  109OSM   H15F11276   1.802   3.734   9.152  2.2086 -0.1254  0.2063
  109OSM   H15G11277   1.725   3.602   9.218 -0.0902 -0.2615 -0.2807
  109OSM   C16F11278   1.926   3.567   9.144  0.3121 -0.5833 -0.2708
  109OSM   H16F11279   1.962   3.491   9.218  0.7909  0.4507  0.5779
  109OSM   H16G11280   2.008   3.640   9.129 -1.3124  1.5781  0.8626
  109OSM   C17F11281   1.893   3.499   9.008 -0.1315 -0.1018 -0.8671
  109OSM   H17F11282   1.821   3.415   9.022 -2.2239  1.8449  1.1241
  109OSM   H17G11283   1.986   3.455   8.968  0.2909 -0.7867  0.7513
  109OSM   C18F11284   1.819   3.596   8.919  0.6977  0.7551 -0.0905
  109OSM   H18F11285   1.883   3.687   8.917  5.8420 -2.4375 -0.3056
  109OSM   H18G11286   1.713   3.622   8.940  0.0500 -2.0845  0.5780
  109OSM   H18H11287   1.802   3.553   8.818  0.0282  1.1755 -0.1583
  110OSM      N11288   2.205   0.433  11.262 -0.0070 -0.0284  0.1850
  110OSM    C1511289   2.340   0.407  11.321  0.5464  0.3602  0.3540
  110OSM   H15A11290   2.348   0.307  11.361  1.4006  0.9189  1.6787
  110OSM   H15B11291   2.348   0.465  11.412 -1.1001 -1.1087  1.4964
  110OSM   H15C11292   2.414   0.437  11.249 -0.2502 -0.2071 -0.7160
  110OSM    C1411293   2.179   0.332  11.153 -0.0610  0.3364  0.6233
  110OSM   H14A11294   2.076   0.334  11.119 -0.2094  1.9902  1.0649
  110OSM   H14B11295   2.192   0.232  11.190  1.0123 -0.0626 -0.7646
  110OSM   H14C11296   2.248   0.348  11.072  1.4239  0.7900  1.9304
  110OSM    C1311297   2.100   0.428  11.365 -0.1817  0.2311  0.4303
  110OSM   H13A11298   2.002   0.434  11.320 -0.5514  0.7146  1.2700
  110OSM   H13B11299   2.105   0.511  11.434  1.4249 -0.2803  0.9720
  110OSM   H13C11300   2.107   0.335  11.420  1.1457  2.2097  3.9646
  110OSM    C1211301   2.208   0.583  11.215 -0.7068 -0.1600  0.0504
  110OSM   H12A11302   2.234   0.649  11.297  1.7992 -0.6175 -0.2760
  110OSM   H12B11303   2.107   0.601  11.180 -0.4379  0.6761 -0.3222
  110OSM    C1111304   2.306   0.616  11.099  0.5691 -0.2201  0.0738
  110OSM   H11A11305   2.287   0.725  11.084  1.7744  0.1080  0.7263
  110OSM   H11B11306   2.282   0.562  11.006  0.5534  2.3440 -1.5210
  110OSM      P11307   2.560   0.683  11.088  0.4192 -0.3150  0.4724
  110OSM    O1311308   2.574   0.791  11.185  0.2305  0.4778  0.4641
  110OSM    O1411309   2.681   0.599  11.059  0.1935  0.2598  0.1124
  110OSM    O1111310   2.516   0.721  10.941  0.5128 -0.2168 -0.3372
  110OSM    O1211311   2.438   0.597  11.132  0.2190 -0.1303  0.1573
  110OSM    C1S11312   2.602   0.824  10.888 -0.3785 -0.3118  0.3121
  110OSM    H1S11313   2.706   0.790  10.867 -0.1858  0.1423  0.5078
  110OSM    H1T11314   2.607   0.912  10.956  0.8091  1.3955 -1.8439
  110OSM     NF11315   2.635   0.995  10.709  0.8587  0.0284 -0.2167
  110OSM    HNF11316   2.625   1.093  10.729  1.2716 -0.0147  0.2345
  110OSM    C2S11317   2.539   0.892  10.761 -0.1843 -0.0077 -0.0004
  110OSM    H2S11318   2.528   0.817  10.681  0.5776  0.6851 -0.7732
  110OSM    C3S11319   2.402   0.951  10.795 -0.2512  1.0703 -0.5493
  110OSM    H3S11320   2.418   1.017  10.883 -0.4541  0.1819  0.1786
  110OSM     O311321   2.314   0.861  10.856 -0.1323  0.0439 -0.3479
  110OSM    HO311322   2.368   0.800  10.907  1.0687  0.6294 -0.8783
  110OSM    C4S11323   2.338   1.018  10.683 -0.1910 -0.5339 -0.5958
  110OSM    H4S11324   2.348   1.127  10.699 -0.2065 -0.7480  1.1241
  110OSM    C5S11325   2.267   0.969  10.582 -1.0422  0.0613  0.4076
  110OSM    H5S11326   2.260   0.859  10.573  0.2213 -0.0796  0.8703
  110OSM    C6S11327   2.211   1.055  10.478  0.8008 -0.3315 -0.8887
  110OSM    H6S11328   2.213   1.160  10.512  2.7178 -0.5467 -0.1807
  110OSM    H6T11329   2.102   1.035  10.470  0.6851 -1.3406  2.0113
  110OSM    C7S11330   2.287   1.055  10.345  1.1844 -0.0447  0.0057
  110OSM    H7S11331   2.286   0.951  10.307 -0.0517 -0.2724  0.6005
  110OSM    H7T11332   2.391   1.092  10.338  1.7183 -1.7228 -2.0554
  110OSM    C8S11333   2.209   1.148  10.250  0.1426  0.3585  0.3795
  110OSM    H8S11334   2.228   1.255  10.275  0.9486  0.2167  0.4054
  110OSM    H8T11335   2.100   1.127  10.259  0.2400  0.1582  1.2053
  110OSM    C9S11336   2.242   1.127  10.104  0.9377  0.8574  0.5185
  110OSM    H9S11337   2.229   1.018  10.088  1.3121  0.7972  0.6300
  110OSM    H9T11338   2.349   1.150  10.085  1.5873 -0.7020  2.0013
  110OSM   C10S11339   2.152   1.200  10.006 -0.3067  0.0666  0.1748
  110OSM   H10S11340   2.141   1.307  10.035 -1.4190 -0.4021  1.6046
  110OSM   H10T11341   2.046   1.170  10.018 -0.2013 -0.5375 -0.3822
  110OSM   C11S11342   2.185   1.180   9.858 -0.3339 -0.4058 -1.4473
  110OSM   H11S11343   2.220   1.075   9.857  1.6947  0.2371 -1.4830
  110OSM   H11T11344   2.273   1.242   9.830  0.8106  0.0090  2.5188
  110OSM   C12S11345   2.067   1.199   9.765  0.2453 -1.0068 -0.4510
  110OSM   H12S11346   2.023   1.301   9.771  0.5932 -0.8480 -0.5651
  110OSM   H12T11347   1.992   1.120   9.787 -0.2043 -0.1019  1.5092
  110OSM   C13S11348   2.108   1.208   9.617  0.1271  0.0604  0.0265
  110OSM   H13S11349   2.164   1.120   9.578  0.0299 -0.5063  1.1201
  110OSM   H13T11350   2.172   1.297   9.603 -0.9989  0.7241 -1.0521
  110OSM   C14S11351   1.985   1.222   9.526  0.1607  0.5635  0.1123
  110OSM   H14S11352   1.911   1.290   9.574 -0.5547 -0.1323  0.0038
  110OSM   H14T11353   1.935   1.123   9.531 -0.1931  0.7481  0.3168
  110OSM   C15S11354   2.009   1.282   9.388  0.5342  0.6525 -0.0257
  110OSM   H15S11355   2.089   1.354   9.413  0.6437  1.0605 -1.4488
  110OSM   H15T11356   1.924   1.335   9.340  2.1912  1.8355 -1.8025
  110OSM   C16S11357   2.056   1.174   9.286 -0.1512 -0.8748  0.4755
  110OSM   H16S11358   2.147   1.118   9.316  2.2836  0.9248 -2.9245
  110OSM   H16T11359   2.092   1.221   9.192  0.0840 -3.4072 -0.7869
  110OSM   C17S11360   1.949   1.072   9.251  0.0491  0.1537 -0.6025
  110OSM   H17S11361   1.863   1.098   9.317  0.8183  3.9886 -0.8423
  110OSM   H17T11362   1.983   0.971   9.282 -2.8378 -0.9189 -0.6532
  110OSM   C18S11363   1.916   1.067   9.105 -0.1956  0.3246  0.0095
  110OSM   H18S11364   1.860   0.974   9.082 -0.6565  0.5280  0.2994
  110OSM   H18T11365   2.011   1.066   9.047 -1.4226 -0.8047 -2.1175
  110OSM   H18U11366   1.855   1.155   9.077 -2.0775  0.0916  2.8981
  110OSM    C1F11367   2.745   0.960  10.649  0.2722  0.9613 -0.1472
  110OSM     OF11368   2.771   0.839  10.645  0.3361  0.1273 -0.6103
  110OSM    C2F11369   2.843   1.066  10.593  0.4266  0.8732 -0.1897
  110OSM    H2F11370   2.846   1.157  10.656 -1.5876  1.6897 -1.1899
  110OSM    H2G11371   2.805   1.106  10.497 -0.6013  1.6586  0.5238
  110OSM    C3F11372   2.994   1.027  10.574  0.0844  0.1216  0.2455
  110OSM    H3F11373   2.993   0.931  10.518 -0.7583  1.3187 -1.9120
  110OSM    H3G11374   3.035   1.013  10.677  0.0259  1.6480  0.5008
  110OSM    C4F11375   3.082   1.135  10.514  0.2391 -0.1683 -0.0407
  110OSM    H4F11376   3.189   1.109  10.529  0.4100  0.9056  0.8074
  110OSM    H4G11377   3.066   1.225  10.578  0.7670  0.8951 -1.3488
  110OSM    C5F11378   3.044   1.179  10.375 -0.7843  0.0942  0.4776
  110OSM    H5F11379   3.008   1.284  10.376 -0.8910  0.0552  1.3390
  110OSM    H5G11380   2.952   1.127  10.341 -1.8905  1.8192  0.7415
  110OSM    C6F11381   3.154   1.156  10.275  0.0880 -0.1421  0.0591
  110OSM    H6F11382   3.173   1.047  10.288  2.5243  0.2201  0.0014
  110OSM    H6G11383   3.246   1.212  10.304  1.2754 -1.4112 -1.0922
  110OSM    C7F11384   3.119   1.173  10.126  1.0685 -0.0396  0.3254
  110OSM    H7F11385   3.035   1.110  10.089  1.5386  0.7371 -2.3352
  110OSM    H7G11386   3.205   1.135  10.066  1.2981  1.2803 -0.2254
  110OSM    C8F11387   3.088   1.315  10.081  0.0508  0.5346  0.4245
  110OSM    H8F11388   2.992   1.344  10.129 -1.3822 -1.2702 -1.1839
  110OSM    H8G11389   3.088   1.314   9.970  0.8148  1.1924  0.4110
  110OSM    C9F11390   3.198   1.409  10.130  0.8493 -0.3852  0.1898
  110OSM    H9F11391   3.186   1.434  10.237 -0.5835  0.5303 -0.1636
  110OSM   C10F11392   3.305   1.453  10.059  0.3561  0.4182 -0.1042
  110OSM   H10F11393   3.389   1.514  10.096  0.8356 -1.1210  1.4952
  110OSM   C11F11394   3.329   1.411   9.917 -0.2997  0.3240 -0.3902
  110OSM   H11F11395   3.252   1.341   9.879  0.1483 -0.6261  0.3992
  110OSM   H11G11396   3.423   1.352   9.921 -1.9588 -2.5060 -1.0023
  110OSM   C12F11397   3.347   1.528   9.819  0.2300  0.5703  0.1227
  110OSM   H12F11398   3.431   1.596   9.844  0.9385  0.6408 -2.1592
  110OSM   H12G11399   3.259   1.594   9.819  1.4636  2.4034  2.8232
  110OSM   C13F11400   3.363   1.482   9.668 -0.1529 -0.4511  1.1415
  110OSM   H13F11401   3.276   1.419   9.637 -0.5133 -0.3917  2.0101
  110OSM   H13G11402   3.450   1.414   9.671  0.6075  0.4537  0.3344
  110OSM   C14F11403   3.405   1.604   9.584  0.3189 -0.2788 -0.1391
  110OSM   H14F11404   3.505   1.646   9.609 -1.4716  3.9046  0.8827
  110OSM   H14G11405   3.339   1.686   9.619  0.0423 -0.8063  0.5866
  110OSM   C15F11406   3.412   1.569   9.439 -0.0896 -1.0711 -0.8132
  110OSM   H15F11407   3.313   1.523   9.414 -0.1957  0.1121 -2.7619
  110OSM   H15G11408   3.483   1.484   9.425  0.7974 -0.4988  0.0983
  110OSM   C16F11409   3.469   1.689   9.372 -0.2510 -0.3301  0.4112
  110OSM   H16F11410   3.580   1.691   9.376 -0.1474 -1.0331 -1.1120
  110OSM   H16G11411   3.429   1.778   9.425  0.1107 -0.9936  1.8197
  110OSM   C17F11412   3.437   1.704   9.225 -0.7329  0.5070 -0.4925
  110OSM   H17F11413   3.474   1.611   9.176 -0.3047  0.1865  0.4123
  110OSM   H17G11414   3.505   1.786   9.195  1.1757 -0.6399  0.4736
  110OSM   C18F11415   3.294   1.731   9.191  0.1176 -0.1985 -0.1616
  110OSM   H18F11416   3.280   1.771   9.088 -0.4037 -0.0919 -0.0496
  110OSM   H18G11417   3.252   1.797   9.269  0.1510 -0.7395  0.3158
  110OSM   H18H11418   3.244   1.632   9.192  1.2730 -0.8051 -0.5333
  111OSM      N11419   4.282   5.784  10.741  0.1970 -0.4001  0.4670
  111OSM    C1511420   4.309   5.657  10.810 -0.0558 -1.0004  0.5041
  111OSM   H15A11421   4.335   5.672  10.914  1.0621  0.5657  0.0307
  111OSM   H15B11422   4.395   5.600  10.778  0.5048 -0.2793  0.7171
  111OSM   H15C11423   4.223   5.592  10.801 -0.7563 -0.0662  0.2807
  111OSM    C1411424   4.394   5.869  10.763 -0.1938 -0.3120  0.6440
  111OSM   H14A11425   4.405   5.943  10.684  0.5208 -0.9851  0.0913
  111OSM   H14B11426   4.491   5.822  10.766 -0.9985 -2.0468  0.6141
  111OSM   H14C11427   4.391   5.926  10.855  1.9533  1.8411 -0.4826
  111OSM    C1311428   4.282   5.741  10.596  0.2810 -0.7618 -0.0906
  111OSM   H13A11429   4.379   5.695  10.584  1.2820  0.9286  1.1330
  111OSM   H13B11430   4.249   5.811  10.520  0.0432  1.5354  2.0087
  111OSM   H13C11431   4.208   5.663  10.589 -0.4032 -0.0330 -1.2464
  111OSM    C1211432   4.147   5.834  10.802 -0.5609 -0.0015 -0.4781
  111OSM   H12A11433   4.168   5.878  10.899  0.1758  0.5575 -0.8738
  111OSM   H12B11434   4.080   5.752  10.818 -1.0700  0.6672  0.9834
  111OSM    C1111435   4.059   5.927  10.719 -0.0518  0.5182 -0.0479
  111OSM   H11A11436   3.962   5.945  10.771 -0.6721  1.6080 -1.5203
  111OSM   H11B11437   4.031   5.863  10.633  0.3725  0.0183  0.1801
  111OSM      P11438   4.173   6.142  10.801 -0.0386  0.1520  0.2019
  111OSM    O1311439   4.133   6.095  10.932  0.3813  0.0534 -0.0714
  111OSM    O1411440   4.314   6.166  10.779 -0.1592  0.5394 -0.0694
  111OSM    O1111441   4.100   6.274  10.770 -0.0796 -0.1687  0.2958
  111OSM    O1211442   4.130   6.051  10.689  0.1084  0.5308  0.2109
  111OSM    C1S11443   4.134   6.344  10.648 -0.2148  0.0897 -0.5469
  111OSM    H1S11444   4.070   6.297  10.570 -1.5490  0.6711  0.1834
  111OSM    H1T11445   4.238   6.332  10.609  0.6378  0.0897  1.6021
  111OSM     NF11446   4.122   6.539  10.498  0.3307  0.2354  0.4728
  111OSM    HNF11447   4.207   6.587  10.476  0.8762 -1.2531 -0.8600
  111OSM    C2S11448   4.107   6.497  10.639  0.5429 -0.3533  0.4672
  111OSM    H2S11449   4.001   6.522  10.660  0.4974 -0.3906  0.2856
  111OSM    C3S11450   4.195   6.568  10.741  0.1428 -0.1958  0.0992
  111OSM    H3S11451   4.300   6.565  10.706  0.3642  3.7181  0.0200
  111OSM     O311452   4.191   6.510  10.874  0.1793 -0.6995  0.0817
  111OSM    HO311453   4.134   6.434  10.858  1.6961 -2.1271  1.1147
  111OSM    C4S11454   4.170   6.713  10.747 -0.8094 -0.2611 -0.1718
  111OSM    H4S11455   4.263   6.766  10.722 -0.2400 -0.8398  0.6634
  111OSM    C5S11456   4.053   6.772  10.766 -0.1030  0.5907  0.5833
  111OSM    H5S11457   3.963   6.714  10.788  1.7969 -2.7797  0.0801
  111OSM    C6S11458   4.042   6.920  10.754 -0.8658  0.5346 -1.0462
  111OSM    H6S11459   4.143   6.963  10.739 -0.9170  0.6156 -1.1624
  111OSM    H6T11460   4.002   6.957  10.851  2.4591  1.1516  0.2150
  111OSM    C7S11461   3.952   6.971  10.643  0.1417  0.4376  0.1891
  111OSM    H7S11462   3.852   6.927  10.661  0.5307 -0.1492  1.0332
  111OSM    H7T11463   3.995   6.941  10.545  0.7543 -0.0568  0.5948
  111OSM    C8S11464   3.940   7.124  10.671 -0.3421 -0.1202  0.4454
  111OSM    H8S11465   4.035   7.181  10.683 -1.1866  1.3780  0.3163
  111OSM    H8T11466   3.883   7.143  10.764 -0.0458 -0.4427  0.6940
  111OSM    C9S11467   3.853   7.201  10.562  0.1762  0.0831 -0.6748
  111OSM    H9S11468   3.885   7.170  10.460  1.6832 -1.1151  0.1185
  111OSM    H9T11469   3.867   7.311  10.562  0.7544  0.0122 -0.5186
  111OSM   C10S11470   3.701   7.180  10.578 -0.0310  0.1142  0.2196
  111OSM   H10S11471   3.675   7.240  10.668 -0.1420  0.3909  0.0039
  111OSM   H10T11472   3.667   7.076  10.597 -2.1969  0.6704 -0.3203
  111OSM   C11S11473   3.622   7.232  10.458 -0.5406 -0.1185 -0.2086
  111OSM   H11S11474   3.635   7.341  10.442 -2.7263  0.3676  0.9000
  111OSM   H11T11475   3.516   7.235  10.492 -0.0058  0.0278  1.5721
  111OSM   C12S11476   3.642   7.150  10.326 -0.5220 -0.4548 -0.1866
  111OSM   H12S11477   3.609   7.047  10.353 -1.3901 -0.1586 -0.0648
  111OSM   H12T11478   3.748   7.147  10.295 -0.6066  0.5675 -0.6228
  111OSM   C13S11479   3.558   7.206  10.213 -0.5294 -0.4321  0.1957
  111OSM   H13S11480   3.558   7.317  10.212 -1.7479 -0.3092  3.1351
  111OSM   H13T11481   3.451   7.177  10.222 -0.9623  1.0553  0.1816
  111OSM   C14S11482   3.605   7.164  10.075 -0.1063  0.5474 -0.0338
  111OSM   H14S11483   3.589   7.056  10.056  2.5304  0.0348  0.2027
  111OSM   H14T11484   3.715   7.182  10.081 -0.1678  0.5694  1.5071
  111OSM   C15S11485   3.538   7.244   9.965  0.3088  1.1119  0.1632
  111OSM   H15S11486   3.446   7.291  10.006 -0.6066 -0.2118 -0.2990
  111OSM   H15T11487   3.494   7.175   9.890  0.5070  1.8637 -0.6564
  111OSM   C16S11488   3.625   7.349   9.902 -0.3987 -1.0548 -0.4569
  111OSM   H16S11489   3.681   7.300   9.820 -0.5520 -1.1121 -0.5278
  111OSM   H16T11490   3.700   7.398   9.967  2.5501 -1.4262 -3.3082
  111OSM   C17S11491   3.529   7.445   9.825 -0.1273 -0.3775 -0.5564
  111OSM   H17S11492   3.602   7.524   9.796  3.0489 -2.2010  1.8173
  111OSM   H17T11493   3.462   7.486   9.903  2.1151  0.0145  1.2584
  111OSM   C18S11494   3.451   7.386   9.703 -1.0050  0.6592  0.0395
  111OSM   H18S11495   3.525   7.330   9.641 -2.3790 -0.9890 -0.2094
  111OSM   H18T11496   3.408   7.467   9.641 -0.3967  0.3533 -0.7935
  111OSM   H18U11497   3.381   7.304   9.729  0.2523 -0.1016  1.2133
  111OSM    C1F11498   4.053   6.492  10.396 -0.7511  0.2821  0.4071
  111OSM     OF11499   3.961   6.422  10.409  0.1778  0.2801  0.6028
  111OSM    C2F11500   4.111   6.509  10.259 -0.5261  0.2990 -0.6910
  111OSM    H2F11501   4.201   6.446  10.262 -1.1744 -0.6205  0.4139
  111OSM    H2G11502   4.142   6.615  10.246 -0.2748  0.3361  0.1492
  111OSM    C3F11503   4.018   6.452  10.158  0.2846  0.2912  0.2321
  111OSM    H3F11504   3.913   6.477  10.185 -0.5142 -2.6337  0.2077
  111OSM    H3G11505   4.026   6.341  10.164 -3.5848 -0.1761 -0.2351
  111OSM    C4F11506   4.057   6.498  10.015  0.2467  0.5274  0.4299
  111OSM    H4F11507   4.093   6.603  10.016 -2.3832  1.5665 -1.1267
  111OSM    H4G11508   3.963   6.494   9.955  0.1461 -0.2391  0.6336
  111OSM    C5F11509   4.163   6.397   9.966  0.1939  0.2350 -0.1353
  111OSM    H5F11510   4.131   6.291   9.976  0.0285  0.4028  1.2682
  111OSM    H5G11511   4.243   6.398  10.044  0.4327  0.6582 -0.3830
  111OSM    C6F11512   4.207   6.423   9.826 -0.8331 -0.1424  0.0971
  111OSM    H6F11513   4.242   6.529   9.820  0.6914 -0.6538 -0.7708
  111OSM    H6G11514   4.117   6.398   9.766 -0.7549 -2.1964  0.7722
  111OSM    C7F11515   4.324   6.334   9.776  0.8138 -0.6477 -0.3276
  111OSM    H7F11516   4.294   6.228   9.762  2.2696 -1.1097 -0.1058
  111OSM    H7G11517   4.408   6.321   9.848  0.8619 -0.3571 -0.3293
  111OSM    C8F11518   4.388   6.380   9.646  0.6077  0.0575  0.7873
  111OSM    H8F11519   4.307   6.395   9.571 -0.1155  1.7916  1.8669
  111OSM    H8G11520   4.446   6.293   9.608 -0.3578 -0.6252  0.8125
  111OSM    C9F11521   4.472   6.506   9.668  0.4764 -0.4389 -0.7622
  111OSM    H9F11522   4.479   6.547   9.770  1.0283 -3.8058  0.7012
  111OSM   C10F11523   4.555   6.557   9.576 -0.2588 -0.1341 -0.3690
  111OSM   H10F11524   4.618   6.645   9.598  0.1236 -0.8188  1.4731
  111OSM   C11F11525   4.573   6.524   9.437 -0.0888  0.1204  0.3687
  111OSM   H11F11526   4.594   6.415   9.432 -0.6934  0.0312 -0.2870
  111OSM   H11G11527   4.651   6.588   9.390  0.2438  0.2369  1.0680
  111OSM   C12F11528   4.441   6.542   9.367  0.0713 -0.7453  0.3978
  111OSM   H12F11529   4.380   6.623   9.412  2.4917  0.6921  1.2392
  111OSM   H12G11530   4.379   6.449   9.367 -1.8889  0.4857  1.4135
  111OSM   C13F11531   4.460   6.592   9.220 -0.8936  0.2440  0.0526
  111OSM   H13F11532   4.530   6.525   9.165 -0.2334 -0.0140  1.1618
  111OSM   H13G11533   4.517   6.687   9.222  2.5558 -1.5874 -2.0584
  111OSM   C14F11534   4.334   6.596   9.145 -0.5323  0.1565  0.3395
  111OSM   H14F11535   4.269   6.670   9.197  1.0921  2.6644 -1.0232
  111OSM   H14G11536   4.274   6.502   9.146 -1.1560  0.4997 -1.3310
  111OSM   C15F11537   4.340   6.652   9.004  0.5354  0.0162 -0.0128
  111OSM   H15F11538   4.235   6.675   8.977  1.5814  2.5759 -2.4071
  111OSM   H15G11539   4.378   6.571   8.939 -1.6626 -0.9107 -0.2148
  111OSM   C16F11540   4.423   6.778   8.979 -1.3306 -0.9081 -0.0447
  111OSM   H16F11541   4.529   6.747   8.992 -1.6704 -2.1844 -0.1295
  111OSM   H16G11542   4.407   6.857   9.056  2.4077  1.0581 -1.0462
  111OSM   C17F11543   4.389   6.849   8.848  0.1994  0.6169  0.3823
  111OSM   H17F11544   4.280   6.859   8.829  0.1170  0.2301  0.6481
  111OSM   H17G11545   4.438   6.779   8.777  0.2616  1.7678 -0.7499
  111OSM   C18F11546   4.463   6.977   8.814 -0.0566  0.6752  0.1254
  111OSM   H18F11547   4.570   6.964   8.841 -0.5880 -2.2972  1.1294
  111OSM   H18G11548   4.420   7.066   8.865  0.0408  0.4156  0.6696
  111OSM   H18H11549   4.457   6.999   8.706 -1.5324 -2.5528 -0.5525
  112OSM      N11550   3.179   4.690  11.279  0.2261  0.3424 -0.2801
  112OSM    C1511551   3.099   4.616  11.385 -0.9124 -0.3156  0.5684
  112OSM   H15A11552   3.024   4.557  11.335 -0.3550  0.2829 -1.0216
  112OSM   H15B11553   3.047   4.686  11.448 -0.1981  1.9918 -1.3067
  112OSM   H15C11554   3.155   4.537  11.436  2.1988  1.2923 -0.0965
  112OSM    C1411555   3.083   4.758  11.189 -0.0765  0.6098  0.0181
  112OSM   H14A11556   3.138   4.829  11.128  0.2124  1.5484  1.3221
  112OSM   H14B11557   3.009   4.811  11.247 -0.3269  0.1151  0.1573
  112OSM   H14C11558   3.020   4.689  11.135  0.1908 -0.1862  0.7093
  112OSM    C1311559   3.258   4.792  11.352  0.7284 -0.4140 -0.3656
  112OSM   H13A11560   3.283   4.867  11.279 -2.1466  1.9366  0.8756
  112OSM   H13B11561   3.341   4.751  11.407 -1.0191 -0.5200  2.3568
  112OSM   H13C11562   3.195   4.842  11.423  1.0174  1.2294 -1.2181
  112OSM    C1211563   3.268   4.601  11.201 -0.0049 -0.5358 -0.0655
  112OSM   H12A11564   3.216   4.519  11.154 -1.5379  0.8709 -0.9246
  112OSM   H12B11565   3.339   4.544  11.259  1.5005 -0.0355 -1.3727
  112OSM    C1111566   3.364   4.669  11.101  0.1592 -0.0311 -0.3983
  112OSM   H11A11567   3.432   4.585  11.076  0.9363 -0.3480  2.3969
  112OSM   H11B11568   3.416   4.748  11.159  0.5107 -2.0557  2.2139
  112OSM      P11569   3.386   4.784  10.872  0.2060 -0.2024  0.4148
  112OSM    O1311570   3.299   4.867  10.783  0.3101  0.8707  0.4423
  112OSM    O1411571   3.512   4.844  10.924  0.0398  0.3691  0.0420
  112OSM    O1111572   3.419   4.650  10.798 -0.2941  0.1685  0.3440
  112OSM    O1211573   3.295   4.725  10.987 -0.2825  0.0503  0.1214
  112OSM    C1S11574   3.315   4.550  10.771  0.1477  0.1919 -0.0608
  112OSM    H1S11575   3.241   4.584  10.695 -2.1297 -1.0217  1.4774
  112OSM    H1T11576   3.255   4.522  10.861  0.4229 -2.0421 -0.5328
  112OSM     NF11577   3.310   4.342  10.636 -0.4298  0.3617 -0.8755
  112OSM    HNF11578   3.268   4.273  10.694  2.0186  0.5596  1.3408
  112OSM    C2S11579   3.395   4.425  10.718  0.0927  0.4626 -0.0564
  112OSM    H2S11580   3.479   4.452  10.650  0.3148 -3.1846 -1.4532
  112OSM    C3S11581   3.468   4.351  10.835  0.0905  0.0831 -0.5011
  112OSM    H3S11582   3.392   4.321  10.911 -0.4132  0.6224 -0.7865
  112OSM     O311583   3.554   4.427  10.914  0.3810  0.5897 -0.2927
  112OSM    HO311584   3.564   4.509  10.866 -0.3376  1.0660  0.3357
  112OSM    C4S11585   3.542   4.228  10.785 -0.2569 -0.1144 -0.1635
  112OSM    H4S11586   3.507   4.134  10.830  2.0090 -0.2650  1.4398
  112OSM    C5S11587   3.651   4.227  10.709 -0.1658  0.0869 -0.0257
  112OSM    H5S11588   3.706   4.313  10.667 -1.9137  0.5142 -1.6242
  112OSM    C6S11589   3.714   4.095  10.666  1.0720 -0.3594 -0.6462
  112OSM    H6S11590   3.664   4.016  10.725  0.1452  2.8306  3.2546
  112OSM    H6T11591   3.817   4.091  10.709  0.6302  0.2218  0.5000
  112OSM    C7S11592   3.725   4.076  10.507 -0.0736 -0.3513 -0.1498
  112OSM    H7S11593   3.760   4.173  10.464 -0.9757  0.4506  0.8585
  112OSM    H7T11594   3.621   4.069  10.470  0.9871  1.3371 -4.0031
  112OSM    C8S11595   3.812   3.961  10.467  0.5644 -0.4613 -0.2515
  112OSM    H8S11596   3.760   3.864  10.481  1.0954 -0.5802  1.0675
  112OSM    H8T11597   3.909   3.959  10.521  1.9887  0.4030 -2.6434
  112OSM    C9S11598   3.848   3.961  10.321 -0.5547  1.1036  0.8513
  112OSM    H9S11599   3.901   4.055  10.298  1.9090  0.6606  4.0184
  112OSM    H9T11600   3.750   3.957  10.268 -0.0231  1.3724 -0.1663
  112OSM   C10S11601   3.942   3.848  10.274 -0.1293 -0.0034 -0.1590
  112OSM   H10S11602   3.899   3.751  10.307  0.8749 -0.7587 -0.9818
  112OSM   H10T11603   4.042   3.860  10.322  0.2084 -0.5674 -0.7079
  112OSM   C11S11604   3.973   3.846  10.120  0.4124  0.2138 -0.1876
  112OSM   H11S11605   4.072   3.799  10.101  0.2203 -0.9822  1.5601
  112OSM   H11T11606   3.985   3.952  10.089 -1.1534 -0.0449 -1.8753
  112OSM   C12S11607   3.858   3.773  10.037 -0.1026 -0.4555  0.0078
  112OSM   H12S11608   3.762   3.826  10.056  0.8370  1.5622 -0.5762
  112OSM   H12T11609   3.859   3.672  10.081  0.7502 -1.3441 -1.9131
  112OSM   C13S11610   3.891   3.773   9.886  0.0193  0.1047 -0.2293
  112OSM   H13S11611   3.972   3.700   9.864  0.8920  1.2556 -1.0111
  112OSM   H13T11612   3.926   3.877   9.866 -0.4538  0.3647  0.2884
  112OSM   C14S11613   3.769   3.739   9.794 -0.1865 -0.4225 -0.7531
  112OSM   H14S11614   3.690   3.816   9.797 -0.5424 -0.8038  0.7275
  112OSM   H14T11615   3.732   3.642   9.835  0.9540 -0.3536  0.5583
  112OSM   C15S11616   3.813   3.721   9.650 -1.2051 -0.1750  0.2920
  112OSM   H15S11617   3.864   3.623   9.637 -3.9896 -1.7828  0.8174
  112OSM   H15T11618   3.879   3.806   9.622 -1.4132  0.2080  0.9576
  112OSM   C16S11619   3.696   3.734   9.555 -0.6652  0.1235  0.9219
  112OSM   H16S11620   3.666   3.840   9.564 -0.1292  0.3601  0.0394
  112OSM   H16T11621   3.610   3.669   9.582 -1.1218 -0.3626 -1.4799
  112OSM   C17S11622   3.731   3.712   9.407  0.6490 -0.2257  0.5671
  112OSM   H17S11623   3.768   3.611   9.381  1.8579  0.8674 -2.2976
  112OSM   H17T11624   3.824   3.770   9.394  0.5537 -0.2839 -0.4355
  112OSM   C18S11625   3.628   3.755   9.304  0.2435 -0.7331 -0.5150
  112OSM   H18S11626   3.660   3.732   9.200  0.6491 -1.0273 -0.3264
  112OSM   H18T11627   3.621   3.866   9.309  1.3186 -0.5572 -2.2228
  112OSM   H18U11628   3.525   3.724   9.332 -0.1251  0.1328 -0.8501
  112OSM    C1F11629   3.270   4.359  10.504  0.0659  0.1018 -0.8243
  112OSM     OF11630   3.321   4.448  10.441  0.5236 -0.4630 -0.0131
  112OSM    C2F11631   3.165   4.271  10.449 -0.3949  0.3841 -0.0988
  112OSM    H2F11632   3.066   4.315  10.476  0.0736  1.0030  0.6681
  112OSM    H2G11633   3.172   4.170  10.493 -0.2391  1.0822  1.5808
  112OSM    C3F11634   3.175   4.255  10.292 -0.1962  1.1062  0.5282
  112OSM    H3F11635   3.268   4.199  10.270 -2.1612 -1.2483 -2.7091
  112OSM    H3G11636   3.181   4.355  10.246 -0.0047 -0.2532 -2.6645
  112OSM    C4F11637   3.065   4.162  10.243 -0.0658 -0.0184 -0.6510
  112OSM    H4F11638   2.975   4.185  10.304 -1.2133 -1.2301 -1.7966
  112OSM    H4G11639   3.071   4.052  10.251 -1.7474 -0.1059 -0.2478
  112OSM    C5F11640   3.022   4.189  10.099 -0.2905 -0.0202  0.5081
  112OSM    H5F11641   3.113   4.154  10.046  1.0294 -0.5425  2.9711
  112OSM    H5G11642   3.006   4.299  10.090  2.8031  0.4581 -0.3705
  112OSM    C6F11643   2.890   4.113  10.060 -0.2241 -0.1288  0.3764
  112OSM    H6F11644   2.801   4.144  10.117 -0.7621 -0.6637 -0.1558
  112OSM    H6G11645   2.915   4.006  10.078 -1.9462 -0.6814 -0.3514
  112OSM    C7F11646   2.855   4.113   9.910 -0.5209 -0.9482 -0.5992
  112OSM    H7F11647   2.831   4.217   9.878  2.3005 -0.2879 -0.7609
  112OSM    H7G11648   2.766   4.048   9.892 -1.9089  1.1737 -1.8752
  112OSM    C8F11649   2.971   4.056   9.822  0.5056  0.2226 -0.6020
  112OSM    H8F11650   3.023   3.970   9.870 -1.8935 -0.4908  0.9208
  112OSM    H8G11651   3.051   4.130   9.805 -1.0927  1.9567 -0.9489
  112OSM    C9F11652   2.911   4.002   9.695 -0.2638  0.0392  0.5600
  112OSM    H9F11653   2.871   3.900   9.706 -1.8357  0.4363 -1.0621
  112OSM   C10F11654   2.902   4.063   9.577 -0.1590  0.9954  0.8474
  112OSM   H10F11655   2.869   4.015   9.484 -2.0519  1.6361  1.1593
  112OSM   C11F11656   2.951   4.202   9.543  0.1660  0.4482  0.3233
  112OSM   H11F11657   3.038   4.182   9.477  1.9253  1.2619  2.2964
  112OSM   H11G11658   2.980   4.253   9.637 -0.1657  0.6901  0.2955
  112OSM   C12F11659   2.834   4.286   9.485  0.4676 -0.8334 -0.1714
  112OSM   H12F11660   2.863   4.392   9.504  0.8162 -1.2683  2.0382
  112OSM   H12G11661   2.751   4.259   9.553 -0.3174 -2.1620 -1.5906
  112OSM   C13F11662   2.792   4.265   9.339  0.3240  0.1348 -0.1313
  112OSM   H13F11663   2.706   4.329   9.308  0.5909  0.4044 -0.3162
  112OSM   H13G11664   2.750   4.162   9.341 -1.3415  0.7836  0.0229
  112OSM   C14F11665   2.907   4.274   9.235  0.4673  0.2618 -0.4792
  112OSM   H14F11666   2.976   4.189   9.256  0.1488 -0.1903 -1.2330
  112OSM   H14G11667   2.969   4.362   9.260  0.6187  0.2808 -0.9201
  112OSM   C15F11668   2.857   4.275   9.092  0.6876 -0.0034 -0.1489
  112OSM   H15F11669   2.815   4.372   9.061  1.1878  0.3404  0.2296
  112OSM   H15G11670   2.775   4.201   9.078  0.8271 -0.3086  0.5857
  112OSM   C16F11671   2.975   4.222   8.990  0.1902  0.6652 -0.1089
  112OSM   H16F11672   2.968   4.112   8.984 -0.5456  0.4321  3.0688
  112OSM   H16G11673   3.078   4.247   9.024 -0.1525  1.0209  0.7088
  112OSM   C17F11674   2.965   4.277   8.852  0.0101  0.0999 -0.3991
  112OSM   H17F11675   3.020   4.210   8.782 -0.6563 -0.1659 -0.6723
  112OSM   H17G11676   3.018   4.375   8.848  1.6955 -0.7034  0.8133
  112OSM   C18F11677   2.824   4.283   8.791  0.6029 -0.3721 -0.0406
  112OSM   H18F11678   2.780   4.366   8.851  2.6251  0.6710  0.1013
  112OSM   H18G11679   2.757   4.194   8.794 -0.2192  0.1386 -1.8744
  112OSM   H18H11680   2.831   4.314   8.685  0.8779  1.7425  0.5375
  113OSM      N11681   2.824   3.307  11.056 -0.2545 -0.3485  0.4346
  113OSM    C1511682   2.881   3.192  11.135 -0.3661 -0.8133 -0.2158
  113OSM   H15A11683   2.960   3.232  11.197 -2.4636 -0.7488  2.6685
  113OSM   H15B11684   2.917   3.116  11.068  0.1541 -1.5320  0.8442
  113OSM   H15C11685   2.815   3.134  11.197 -1.0250 -0.1396 -0.2706
  113OSM    C1411686   2.928   3.336  10.952 -0.1096  0.4898 -0.0613
  113OSM   H14A11687   3.025   3.335  10.999 -0.1767 -2.1344  0.2031
  113OSM   H14B11688   2.916   3.436  10.914 -0.5709  0.4237 -0.0927
  113OSM   H14C11689   2.928   3.261  10.874  0.7301  0.8883 -0.4557
  113OSM    C1311690   2.705   3.259  10.978  0.7268  1.5577  0.7331
  113OSM   H13A11691   2.727   3.164  10.933 -0.8116  1.3747  0.2916
  113OSM   H13B11692   2.679   3.321  10.893 -1.1467  0.6926  0.6123
  113OSM   H13C11693   2.617   3.248  11.040  1.3529  1.1735  1.5716
  113OSM    C1211694   2.799   3.434  11.144 -0.1068  0.1044 -0.1170
  113OSM   H12A11695   2.743   3.398  11.229 -0.5977  1.0561 -0.0196
  113OSM   H12B11696   2.732   3.503  11.094 -2.0534 -0.2710  1.7998
  113OSM    C1111697   2.916   3.525  11.192  0.7668 -0.0198  0.2229
  113OSM   H11A11698   2.980   3.466  11.262 -0.8153 -1.7316  0.3148
  113OSM   H11B11699   2.885   3.607  11.261  0.6265 -1.1950  1.6097
  113OSM      P11700   2.938   3.699  11.005  0.4072  0.2839 -0.5405
  113OSM    O1311701   2.806   3.669  10.945 -0.1925 -0.4980  0.2880
  113OSM    O1411702   2.951   3.820  11.086 -0.5694  0.1161  0.1602
  113OSM    O1111703   3.042   3.712  10.885  0.0712  1.0810 -0.1929
  113OSM    O1211704   2.998   3.583  11.086  0.4211 -0.1199  0.8296
  113OSM    C1S11705   3.177   3.668  10.896 -0.2650  0.2400 -0.4118
  113OSM    H1S11706   3.177   3.560  10.921  1.8199  0.3012  0.0571
  113OSM    H1T11707   3.236   3.721  10.974  1.0450 -1.2163 -0.3544
  113OSM     NF11708   3.374   3.618  10.752 -1.1993 -0.2562  0.4563
  113OSM    HNF11709   3.452   3.679  10.763 -0.4650 -0.6972 -1.7416
  113OSM    C2S11710   3.240   3.680  10.751 -0.3047 -0.3641  0.6201
  113OSM    H2S11711   3.175   3.622  10.683  2.4117 -0.5071 -2.0633
  113OSM    C3S11712   3.240   3.828  10.702  0.3228 -0.0058 -0.4259
  113OSM    H3S11713   3.298   3.888  10.776 -0.6269 -0.1378  0.4458
  113OSM     O311714   3.108   3.884  10.718  0.5195 -0.5679  0.1701
  113OSM    HO311715   3.069   3.821  10.778  0.9309 -1.2694 -0.2916
  113OSM    C4S11716   3.276   3.843  10.553  0.7667  0.2820  0.4522
  113OSM    H4S11717   3.194   3.808  10.488  0.1565 -1.0225  1.8929
  113OSM    C5S11718   3.388   3.890  10.501 -0.2402 -0.2686 -0.2557
  113OSM    H5S11719   3.469   3.917  10.571  0.5621 -2.5785 -0.1999
  113OSM    C6S11720   3.411   3.907  10.361  0.3912  0.2689 -0.1643
  113OSM    H6S11721   3.509   3.860  10.339 -0.9599 -2.0301 -1.9111
  113OSM    H6T11722   3.418   4.017  10.349  1.8403  0.5162  2.4045
  113OSM    C7S11723   3.313   3.838  10.260 -0.3230  0.5106  0.1387
  113OSM    H7S11724   3.204   3.857  10.269 -0.1775  1.0069  0.9441
  113OSM    H7T11725   3.337   3.730  10.263  1.8736  0.8907 -1.6719
  113OSM    C8S11726   3.341   3.896  10.121  0.2521  0.3627 -0.2118
  113OSM    H8S11727   3.452   3.904  10.112  0.4520 -1.5231  0.0794
  113OSM    H8T11728   3.296   3.996  10.107 -1.0403 -0.2293 -0.4919
  113OSM    C9S11729   3.291   3.816   9.999  0.2952 -0.0775 -0.0932
  113OSM    H9S11730   3.182   3.834   9.991  0.5432  1.8292  0.3632
  113OSM    H9T11731   3.323   3.711  10.017  1.2282  0.1610 -0.2654
  113OSM   C10S11732   3.362   3.858   9.864  1.0277  0.2891  0.5962
  113OSM   H10S11733   3.470   3.861   9.890  1.0770  0.3603  0.3857
  113OSM   H10T11734   3.316   3.952   9.830 -1.2142 -0.5205  1.2225
  113OSM   C11S11735   3.342   3.755   9.749 -0.7777  0.7218 -0.2419
  113OSM   H11S11736   3.333   3.651   9.785 -0.1247  0.8984  0.4546
  113OSM   H11T11737   3.439   3.760   9.695 -1.1387 -1.0105 -1.1041
  113OSM   C12S11738   3.229   3.792   9.649 -0.2013 -0.6164  0.5659
  113OSM   H12S11739   3.210   3.902   9.651 -0.6482 -0.6786  0.0541
  113OSM   H12T11740   3.135   3.741   9.677 -0.1943 -1.5404 -0.9787
  113OSM   C13S11741   3.260   3.764   9.497  0.0468 -0.6094  1.3310
  113OSM   H13S11742   3.292   3.658   9.490 -0.6763 -0.7170 -1.1821
  113OSM   H13T11743   3.347   3.825   9.465  1.1238 -0.5459  4.0813
  113OSM   C14S11744   3.150   3.793   9.381 -0.0881 -0.4536 -0.0325
  113OSM   H14S11745   3.146   3.904   9.374 -0.0661 -0.4605 -0.1499
  113OSM   H14T11746   3.054   3.769   9.431  1.1998 -0.9987  2.3444
  113OSM   C15S11747   3.167   3.715   9.250 -0.0060 -0.4771 -0.6263
  113OSM   H15S11748   3.063   3.698   9.216 -0.4294  0.7847 -0.0353
  113OSM   H15T11749   3.224   3.620   9.262  1.4330  0.5174  0.8897
  113OSM   C16S11750   3.239   3.809   9.148 -0.0272 -0.3138 -0.0483
  113OSM   H16S11751   3.330   3.857   9.189 -1.1941 -0.4265  2.8850
  113OSM   H16T11752   3.163   3.888   9.128 -1.0231 -0.4534  2.7328
  113OSM   C17S11753   3.275   3.739   9.018  0.5207 -0.4905 -0.2829
  113OSM   H17S11754   3.185   3.712   8.958  1.9140 -2.5162 -1.5864
  113OSM   H17T11755   3.327   3.645   9.049 -0.5853 -0.5562  1.5290
  113OSM   C18S11756   3.370   3.819   8.919  0.4975 -0.8253  0.6922
  113OSM   H18S11757   3.465   3.846   8.970  0.3539  2.0788 -0.4392
  113OSM   H18T11758   3.325   3.916   8.891  2.9414  0.3033  0.4216
  113OSM   H18U11759   3.391   3.769   8.822  0.6351  2.0885 -0.8658
  113OSM    C1F11760   3.397   3.491  10.749  0.3869 -0.0801 -0.4046
  113OSM     OF11761   3.295   3.413  10.756 -0.1605 -0.8377 -0.4071
  113OSM    C2F11762   3.536   3.441  10.753 -0.0224  0.7157 -0.2778
  113OSM    H2F11763   3.559   3.399  10.853  1.8655 -0.5080 -1.1522
  113OSM    H2G11764   3.606   3.521  10.721 -1.2150  1.7843 -0.2770
  113OSM    C3F11765   3.567   3.318  10.663 -0.4154  1.0700  1.0988
  113OSM    H3F11766   3.496   3.242  10.703  0.9551 -0.5188  0.6071
  113OSM    H3G11767   3.665   3.268  10.679 -1.9578 -3.0667 -0.7876
  113OSM    C4F11768   3.551   3.336  10.504  0.4824  0.3707 -0.2693
  113OSM    H4F11769   3.461   3.399  10.486 -0.3504 -0.1158  1.8630
  113OSM    H4G11770   3.535   3.235  10.463  3.5154 -1.2293  2.0649
  113OSM    C5F11771   3.678   3.390  10.431  0.2622  1.2054  0.0300
  113OSM    H5F11772   3.766   3.336  10.472  0.6872  0.3694 -1.8807
  113OSM    H5G11773   3.677   3.500  10.445  0.0980  1.2182 -0.0869
  113OSM    C6F11774   3.663   3.340  10.286 -0.1698 -0.2084  0.5437
  113OSM    H6F11775   3.560   3.367  10.255  1.4943  3.0388 -2.9095
  113OSM    H6G11776   3.672   3.231  10.266  0.8239 -0.0399 -0.0091
  113OSM    C7F11777   3.761   3.413  10.203  0.4835 -0.2632 -0.1071
  113OSM    H7F11778   3.862   3.392  10.244 -0.8591 -0.6445  3.2810
  113OSM    H7G11779   3.745   3.522  10.217  1.3633 -0.3120  1.5349
  113OSM    C8F11780   3.755   3.386  10.050  0.1485  0.4396 -0.5311
  113OSM    H8F11781   3.792   3.282  10.034  1.0410  0.3184  1.9205
  113OSM    H8G11782   3.829   3.446   9.993  1.1886 -2.2578 -2.2452
  113OSM    C9F11783   3.624   3.411   9.977 -0.4426 -0.0945  0.5937
  113OSM    H9F11784   3.565   3.492  10.023 -0.4723 -0.0494  0.4772
  113OSM   C10F11785   3.576   3.354   9.866 -0.7037  0.4693 -0.4177
  113OSM   H10F11786   3.475   3.386   9.835 -0.3638  1.5110 -0.4856
  113OSM   C11F11787   3.639   3.248   9.782 -0.2170  0.4658  1.2951
  113OSM   H11F11788   3.566   3.167   9.762  1.2294 -1.1841  2.3725
  113OSM   H11G11789   3.715   3.193   9.842 -0.6955  0.5533  1.9886
  113OSM   C12F11790   3.699   3.301   9.651  0.5799  0.2413  0.5911
  113OSM   H12F11791   3.764   3.222   9.608 -0.3361 -0.4640  0.4603
  113OSM   H12G11792   3.763   3.392   9.655  1.4878 -0.3639  0.1923
  113OSM   C13F11793   3.595   3.327   9.539  0.0298  0.2215  0.3116
  113OSM   H13F11794   3.557   3.430   9.552 -3.1341 -0.6046 -1.2674
  113OSM   H13G11795   3.517   3.252   9.567  0.1599 -0.2714 -0.5976
  113OSM   C14F11796   3.656   3.310   9.398 -0.1240  0.0234 -0.4493
  113OSM   H14F11797   3.666   3.203   9.369  0.1231  0.0401 -0.4263
  113OSM   H14G11798   3.753   3.364   9.398 -1.2012  2.2023  2.3159
  113OSM   C15F11799   3.558   3.358   9.288  0.0927 -1.0464 -0.0887
  113OSM   H15F11800   3.547   3.467   9.307  0.0854 -1.3433  1.8931
  113OSM   H15G11801   3.458   3.311   9.296 -1.7684  2.5486 -0.2545
  113OSM   C16F11802   3.620   3.336   9.157 -0.2127 -0.0051 -0.3497
  113OSM   H16F11803   3.548   3.314   9.075 -1.6886  1.7860  0.4036
  113OSM   H16G11804   3.685   3.246   9.164  2.1322  1.5821 -0.6659
  113OSM   C17F11805   3.698   3.462   9.108 -0.0305 -0.2138 -0.1838
  113OSM   H17F11806   3.772   3.492   9.184 -2.1189  0.5597  1.6538
  113OSM   H17G11807   3.624   3.544   9.100 -3.0670 -2.6342  0.8859
  113OSM   C18F11808   3.771   3.422   8.975  0.3487 -0.0908  0.2625
  113OSM   H18F11809   3.704   3.427   8.887 -0.3392 -2.7589  0.5266
  113OSM   H18G11810   3.791   3.313   8.988 -1.5718 -0.6477 -0.9934
  113OSM   H18H11811   3.864   3.481   8.957  0.2762 -0.2484 -0.6378
  114OSM      N11812   4.250   2.510  11.862 -0.2039  0.0890 -0.0044
  114OSM    C1511813   4.156   2.487  11.745  0.2353  0.6043 -0.1188
  114OSM   H15A11814   4.166   2.385  11.712 -2.4923 -1.5209  4.6880
  114OSM   H15B11815   4.169   2.571  11.678  0.5134  1.8860  1.4587
  114OSM   H15C11816   4.054   2.495  11.778  0.4123  2.2153  0.1132
  114OSM    C1411817   4.231   2.642  11.923  0.2514  0.3955 -0.2844
  114OSM   H14A11818   4.267   2.707  11.844  1.7862  0.0936  0.1411
  114OSM   H14B11819   4.285   2.657  12.015  0.5176 -1.7324 -0.0447
  114OSM   H14C11820   4.125   2.657  11.937  0.0788  0.3045 -1.4000
  114OSM    C1311821   4.200   2.407  11.958 -0.1715 -0.6363 -0.3628
  114OSM   H13A11822   4.277   2.357  12.015 -0.1193  1.9024  2.0143
  114OSM   H13B11823   4.133   2.340  11.907  1.0486 -2.3403  0.1982
  114OSM   H13C11824   4.147   2.450  12.042 -1.2970 -0.2500 -1.2476
  114OSM    C1211825   4.397   2.488  11.812  0.6342 -0.0154 -0.3532
  114OSM   H12A11826   4.461   2.492  11.898 -0.2838  0.7311  0.3205
  114OSM   H12B11827   4.421   2.572  11.748  0.1233  1.8493  1.7766
  114OSM    C1111828   4.435   2.360  11.737 -0.9797  0.8897 -0.0064
  114OSM   H11A11829   4.353   2.345  11.663 -0.3837  1.1675 -0.7365
  114OSM   H11B11830   4.434   2.279  11.813  3.2650 -0.7911 -1.4381
  114OSM      P11831   4.644   2.249  11.617 -0.3499  0.0069 -0.4295
  114OSM    O1311832   4.788   2.293  11.607  0.0408  0.0095 -0.0406
  114OSM    O1411833   4.624   2.130  11.703 -0.3451  1.4219 -0.0411
  114OSM    O1111834   4.581   2.233  11.473 -0.7493  0.0101 -0.0268
  114OSM    O1211835   4.565   2.375  11.671  0.2902 -0.9048  0.2693
  114OSM    C1S11836   4.593   2.344  11.378  0.1590  0.6733 -0.4464
  114OSM    H1S11837   4.699   2.365  11.354  0.2202 -0.6815 -1.4787
  114OSM    H1T11838   4.545   2.435  11.420 -0.5254 -0.4276  1.2580
  114OSM     NF11839   4.561   2.400  11.142 -0.3620  0.1717 -0.0098
  114OSM    HNF11840   4.513   2.487  11.138  0.4319  0.5626 -1.7179
  114OSM    C2S11841   4.513   2.310  11.251 -0.4362 -0.6698  0.2461
  114OSM    H2S11842   4.532   2.203  11.230 -0.0941 -0.8473  1.3745
  114OSM    C3S11843   4.356   2.322  11.284  0.1474  0.3974  0.5957
  114OSM    H3S11844   4.331   2.429  11.301  0.6553  0.8749 -1.4005
  114OSM     O311845   4.311   2.250  11.397  0.0206 -0.3592  0.2132
  114OSM    HO311846   4.391   2.236  11.448  0.9731 -4.2479 -1.9756
  114OSM    C4S11847   4.289   2.294  11.151  0.0801  0.9228  0.0638
  114OSM    H4S11848   4.258   2.383  11.095 -1.3196 -0.6391 -1.7636
  114OSM    C5S11849   4.259   2.174  11.086  0.0975  0.1436 -1.0854
  114OSM    H5S11850   4.277   2.072  11.123  0.8471 -0.6630 -3.4682
  114OSM    C6S11851   4.197   2.169  10.952  0.8849  0.1121 -0.5920
  114OSM    H6S11852   4.125   2.251  10.935  2.7334  1.9756  0.1275
  114OSM    H6T11853   4.156   2.066  10.946 -0.2423  0.4775  0.6039
  114OSM    C7S11854   4.303   2.176  10.841  0.5585  0.2081 -1.2250
  114OSM    H7S11855   4.377   2.098  10.868  2.2766  2.2089  0.0509
  114OSM    H7T11856   4.351   2.276  10.840 -1.7345  1.3935 -0.2840
  114OSM    C8S11857   4.246   2.137  10.699 -0.6490 -0.4117 -0.1513
  114OSM    H8S11858   4.170   2.208  10.659  0.5140  0.0378 -1.6490
  114OSM    H8T11859   4.203   2.036  10.711  2.1304 -1.6417  0.2663
  114OSM    C9S11860   4.362   2.134  10.599  0.5831 -0.4036  0.1860
  114OSM    H9S11861   4.442   2.062  10.627  0.3747 -1.1315 -0.9891
  114OSM    H9T11862   4.412   2.233  10.594 -0.2494 -0.0316 -1.9999
  114OSM   C10S11863   4.314   2.105  10.449 -0.0791  0.1800 -0.2766
  114OSM   H10S11864   4.213   2.148  10.438  0.5817  1.6765 -0.8273
  114OSM   H10T11865   4.313   1.996  10.428  0.4948 -0.4682  2.6524
  114OSM   C11S11866   4.401   2.187  10.352  0.6153 -0.5938 -0.5088
  114OSM   H11S11867   4.502   2.142  10.343  0.5929 -0.4192 -1.8837
  114OSM   H11T11868   4.398   2.290  10.394 -0.1058 -0.7412 -0.1943
  114OSM   C12S11869   4.349   2.194  10.205 -0.0152 -0.3954  0.0866
  114OSM   H12S11870   4.239   2.199  10.216 -0.0855  1.8641 -0.9949
  114OSM   H12T11871   4.368   2.096  10.156  1.6457  0.6786 -1.5318
  114OSM   C13S11872   4.391   2.311  10.120  0.7177  0.0821  0.3186
  114OSM   H13S11873   4.393   2.407  10.176  2.1461  0.3441 -0.1275
  114OSM   H13T11874   4.323   2.315  10.033 -0.3488 -0.1735  1.1283
  114OSM   C14S11875   4.531   2.278  10.065  0.7411 -0.8716 -0.1348
  114OSM   H14S11876   4.592   2.233  10.146  1.0869 -0.1273  0.0287
  114OSM   H14T11877   4.585   2.373  10.048 -0.0916 -0.5017 -0.8220
  114OSM   C15S11878   4.532   2.192   9.936 -0.3165 -0.1948  0.1436
  114OSM   H15S11879   4.482   2.247   9.852 -0.0718 -0.5928 -0.2651
  114OSM   H15T11880   4.478   2.097   9.954  2.4215 -2.1389 -1.2755
  114OSM   C16S11881   4.671   2.155   9.890 -0.2400  0.0112 -0.5811
  114OSM   H16S11882   4.735   2.122   9.974 -0.3957  1.9090  0.3284
  114OSM   H16T11883   4.718   2.250   9.857 -1.7668  0.5674 -1.2407
  114OSM   C17S11884   4.686   2.054   9.776  0.1430  0.0738  0.5597
  114OSM   H17S11885   4.633   2.094   9.687 -0.0257 -1.0857  0.1224
  114OSM   H17T11886   4.655   1.955   9.814 -0.2680  0.2041  0.5693
  114OSM   C18S11887   4.834   2.030   9.742 -0.1379 -0.2810  0.3951
  114OSM   H18S11888   4.888   2.127   9.734 -1.7575  0.6474  0.4265
  114OSM   H18T11889   4.844   1.960   9.656 -1.2034 -0.7861  0.6672
  114OSM   H18U11890   4.869   1.988   9.839  0.5077  1.4916  0.9664
  114OSM    C1F11891   4.665   2.374  11.070  0.1513 -0.3164  0.0470
  114OSM     OF11892   4.709   2.261  11.066  0.1229  0.2294 -0.0072
  114OSM    C2F11893   4.737   2.485  10.996 -0.0269 -0.4310  0.0376
  114OSM    H2F11894   4.807   2.522  11.075 -0.8443 -0.7559  0.9285
  114OSM    H2G11895   4.671   2.568  10.963  1.0051 -0.2378 -1.6381
  114OSM    C3F11896   4.810   2.447  10.872  0.4486  0.4170 -0.5547
  114OSM    H3F11897   4.883   2.368  10.900  0.3428  0.0555 -1.2903
  114OSM    H3G11898   4.857   2.538  10.827  0.0161  0.8471 -0.1510
  114OSM    C4F11899   4.715   2.378  10.767 -0.3731  0.1254 -0.0911
  114OSM    H4F11900   4.648   2.456  10.724 -2.6771 -1.3931  0.5117
  114OSM    H4G11901   4.648   2.299  10.807  0.2835 -0.1995  0.3765
  114OSM    C5F11902   4.798   2.316  10.654 -0.4858  0.0906  0.3969
  114OSM    H5F11903   4.861   2.235  10.697 -0.0936 -0.5965 -1.4095
  114OSM    H5G11904   4.874   2.386  10.614  0.1220 -0.3972  0.6818
  114OSM    C6F11905   4.717   2.269  10.529 -0.5296 -0.1113  0.0495
  114OSM    H6F11906   4.649   2.347  10.491 -0.5162  0.1091  0.4777
  114OSM    H6G11907   4.651   2.185  10.558 -1.1987 -0.7697 -3.0130
  114OSM    C7F11908   4.792   2.210  10.412 -0.2317 -0.3520  0.3263
  114OSM    H7F11909   4.719   2.160  10.344  0.5511  0.8140 -1.4544
  114OSM    H7G11910   4.868   2.142  10.456  0.9770  1.4328  1.1057
  114OSM    C8F11911   4.886   2.309  10.343 -0.3941  0.0458 -0.2224
  114OSM    H8F11912   4.966   2.340  10.413  0.7264  0.2852 -1.5660
  114OSM    H8G11913   4.814   2.389  10.314 -0.9995 -0.5867 -0.5106
  114OSM    C9F11914   4.947   2.265  10.211  0.5395 -0.3681 -0.6220
  114OSM    H9F11915   4.958   2.159  10.185  0.5953  0.2647 -3.5086
  114OSM   C10F11916   4.981   2.350  10.113 -0.3441 -0.2886  0.4261
  114OSM   H10F11917   5.011   2.314  10.014  0.3257  3.3529 -0.8421
  114OSM   C11F11918   4.957   2.498  10.133 -0.3047 -0.3294 -0.5032
  114OSM   H11F11919   5.023   2.531  10.217  1.3202  0.5851 -2.0755
  114OSM   H11G11920   4.853   2.514  10.170 -0.6026 -0.4738 -1.2619
  114OSM   C12F11921   4.988   2.584  10.017  0.0116 -0.3918 -0.1348
  114OSM   H12F11922   5.098   2.575  10.002  0.3052  0.8267  1.1303
  114OSM   H12G11923   4.959   2.689  10.038  0.3731  0.3015 -2.6646
  114OSM   C13F11924   4.904   2.546   9.887 -0.7089  0.1825 -0.3636
  114OSM   H13F11925   4.793   2.543   9.897 -0.8639  0.6875 -1.8227
  114OSM   H13G11926   4.942   2.446   9.856 -0.5894  0.1395 -0.0902
  114OSM   C14F11927   4.945   2.649   9.780 -0.1155  0.6204  0.5562
  114OSM   H14F11928   4.925   2.606   9.680  4.2606 -0.8223  0.1012
  114OSM   H14G11929   5.055   2.663   9.773 -0.1284  1.6752  2.0609
  114OSM   C15F11930   4.881   2.787   9.773 -0.4112  0.8481 -0.7993
  114OSM   H15F11931   4.943   2.869   9.732 -0.2446  0.0757 -2.1611
  114OSM   H15G11932   4.869   2.814   9.880  0.2496 -3.2933  0.5157
  114OSM   C16F11933   4.748   2.790   9.698  0.2714  0.6213  0.3203
  114OSM   H16F11934   4.692   2.701   9.734  1.9850 -0.2453  0.9161
  114OSM   H16G11935   4.765   2.780   9.589 -1.7397  2.4735 -0.2432
  114OSM   C17F11936   4.656   2.906   9.720 -0.5600  0.0217  0.0999
  114OSM   H17F11937   4.566   2.890   9.657 -0.0113  1.5850 -1.1679
  114OSM   H17G11938   4.702   3.002   9.686 -0.7286 -0.2905 -1.0670
  114OSM   C18F11939   4.621   2.947   9.860  0.5681 -0.8404 -0.7732
  114OSM   H18F11940   4.568   2.876   9.927  1.3425  1.7109  2.8486
  114OSM   H18G11941   4.557   3.038   9.855 -0.5907 -1.5916 -0.1608
  114OSM   H18H11942   4.706   2.985   9.920 -1.0870  3.1331 -0.6527
  115OSM      N11943   6.305   6.239   6.175 -0.5587  0.4999  0.1000
  115OSM    C1511944   6.350   6.286   6.040  0.2213  0.0757  0.0820
  115OSM   H15A11945   6.360   6.204   5.970 -1.0677 -1.5552  1.6974
  115OSM   H15B11946   6.446   6.335   6.050 -0.1712  0.7793  0.5149
  115OSM   H15C11947   6.286   6.354   5.986  2.2500  1.4554 -0.7081
  115OSM    C1411948   6.291   6.351   6.266  0.2598 -0.1210  0.5906
  115OSM   H14A11949   6.269   6.316   6.366  2.9972 -1.9062  0.6777
  115OSM   H14B11950   6.209   6.412   6.231 -2.4490 -3.9385 -0.4651
  115OSM   H14C11951   6.383   6.406   6.277  1.5737 -2.1901  0.6006
  115OSM    C1311952   6.168   6.169   6.164 -0.3277 -0.2401 -0.4486
  115OSM   H13A11953   6.188   6.078   6.110  0.1887 -0.1097 -0.4867
  115OSM   H13B11954   6.102   6.235   6.109 -1.0520 -1.9768 -1.7516
  115OSM   H13C11955   6.115   6.157   6.257  2.1142  0.4198  1.1331
  115OSM    C1211956   6.411   6.140   6.227  0.0342 -0.4628 -0.2591
  115OSM   H12A11957   6.388   6.113   6.329  2.1402  0.9371  0.6477
  115OSM   H12B11958   6.500   6.197   6.249 -0.8932  0.3770  1.5948
  115OSM    C1111959   6.437   6.012   6.153 -0.3097  0.0529 -0.5867
  115OSM   H11A11960   6.524   5.953   6.190 -1.2387 -2.3525 -2.0523
  115OSM   H11B11961   6.468   6.039   6.050  0.3332 -4.1458 -1.6641
  115OSM      P11962   6.262   5.837   6.243  0.1051  0.6545 -0.1422
  115OSM    O1311963   6.117   5.873   6.264 -0.0704 -0.5036  0.0413
  115OSM    O1411964   6.286   5.695   6.204  0.5292 -0.1082 -0.2733
  115OSM    O1111965   6.344   5.874   6.364 -0.0273  0.2935 -0.4599
  115OSM    O1211966   6.322   5.929   6.135  0.2119  0.5588 -0.4738
  115OSM    C1S11967   6.281   5.884   6.494 -0.0119 -0.6253 -0.7778
  115OSM    H1S11968   6.186   5.828   6.506 -0.1438 -0.8359 -2.5540
  115OSM    H1T11969   6.263   5.992   6.516 -0.6829 -0.8120 -0.3675
  115OSM     NF11970   6.317   5.850   6.737  0.1393  1.3124  0.6727
  115OSM    HNF11971   6.326   5.943   6.774  0.5101  0.5794  2.5529
  115OSM    C2S11972   6.378   5.827   6.605 -0.3075 -0.2334 -0.4190
  115OSM    H2S11973   6.393   5.719   6.585 -0.5854 -0.0439 -1.7565
  115OSM    C3S11974   6.517   5.896   6.591 -0.1141  0.4493  0.1736
  115OSM    H3S11975   6.507   5.990   6.648  0.8634 -0.7296  2.4158
  115OSM     O311976   6.569   5.917   6.457 -0.0708  0.0151  0.1379
  115OSM    HO311977   6.489   5.915   6.405 -0.2733  1.8093  0.2975
  115OSM    C4S11978   6.606   5.805   6.666 -0.5242 -0.0361  0.0506
  115OSM    H4S11979   6.633   5.712   6.614 -0.5240  0.5433 -1.0198
  115OSM    C5S11980   6.647   5.844   6.786 -0.2978 -1.1269  0.0112
  115OSM    H5S11981   6.621   5.946   6.815  2.1017  0.1878 -2.0790
  115OSM    C6S11982   6.749   5.778   6.870 -0.4327  0.3140 -0.0057
  115OSM    H6S11983   6.850   5.824   6.862  0.0919 -0.8797 -0.4019
  115OSM    H6T11984   6.767   5.676   6.830  1.6692  0.3380  0.7541
  115OSM    C7S11985   6.699   5.773   7.020  0.5824 -0.3226  0.5012
  115OSM    H7S11986   6.668   5.874   7.054 -2.0389 -0.3995 -1.3509
  115OSM    H7T11987   6.786   5.729   7.075  0.7490 -0.6074  0.0151
  115OSM    C8S11988   6.578   5.680   7.031  0.2023  0.2315  0.2551
  115OSM    H8S11989   6.567   5.600   6.955 -1.3071 -0.2989  0.9696
  115OSM    H8T11990   6.487   5.743   7.030  0.9094  1.3750 -2.8743
  115OSM    C9S11991   6.570   5.600   7.167  0.2273  0.6076 -0.8470
  115OSM    H9S11992   6.651   5.525   7.179  1.3470  2.0749  1.3346
  115OSM    H9T11993   6.480   5.535   7.157  0.4117  0.3052 -0.5513
  115OSM   C10S11994   6.545   5.692   7.284  0.1265 -0.3877 -0.3935
  115OSM   H10S11995   6.453   5.754   7.276  1.5550  2.2571  1.9650
  115OSM   H10T11996   6.625   5.769   7.283 -1.6916  1.5938 -1.7730
  115OSM   C11S11997   6.551   5.629   7.420 -0.3593 -0.5542  0.1504
  115OSM   H11S11998   6.640   5.562   7.425 -0.8490 -1.2008  0.3905
  115OSM   H11T11999   6.458   5.567   7.418 -2.2839  2.0826 -3.1587
  115OSM   C12S12000   6.550   5.726   7.534 -0.0731 -0.3528 -0.5754
  115OSM   H12S12001   6.450   5.773   7.548 -0.6991 -1.4787 -1.1578
  115OSM   H12T12002   6.629   5.802   7.514 -2.7562  2.1018 -2.7458
  115OSM   C13S12003   6.600   5.659   7.666  0.1883  0.1553 -0.4024
  115OSM   H13S12004   6.691   5.601   7.642  1.6337  2.0355  0.2117
  115OSM   H13T12005   6.516   5.605   7.716 -0.3930 -0.1798 -1.7159
  115OSM   C14S12006   6.651   5.770   7.766 -0.6006  0.3306  0.3100
  115OSM   H14S12007   6.598   5.864   7.739  1.1758  0.6772 -2.3930
  115OSM   H14T12008   6.749   5.806   7.728 -0.9229 -0.4920 -1.4128
  115OSM   C15S12009   6.656   5.743   7.913  1.1003 -0.5620 -1.4636
  115OSM   H15S12010   6.697   5.826   7.975 -1.4198 -0.1464 -0.2457
  115OSM   H15T12011   6.716   5.651   7.932  0.6192 -0.2539  2.3298
  115OSM   C16S12012   6.523   5.716   7.984 -0.2070  0.1960  1.0409
  115OSM   H16S12013   6.498   5.614   7.947  2.2498 -0.4589  1.0426
  115OSM   H16T12014   6.448   5.791   7.950  1.4108  1.2745 -0.3103
  115OSM   C17S12015   6.543   5.708   8.134  0.2688 -1.4172 -0.1353
  115OSM   H17S12016   6.491   5.799   8.173 -0.5953 -1.0080 -2.1204
  115OSM   H17T12017   6.649   5.726   8.161 -0.4812  1.6124  1.2162
  115OSM   C18S12018   6.507   5.573   8.195  0.4263  0.2554 -0.0049
  115OSM   H18S12019   6.544   5.492   8.128 -0.0687  0.0720 -0.0614
  115OSM   H18T12020   6.397   5.567   8.182  0.4011  1.4478 -0.3830
  115OSM   H18U12021   6.547   5.561   8.298  0.9290 -0.8142 -0.3035
  115OSM    C1F12022   6.225   5.769   6.779  0.0424 -0.7822 -0.0291
  115OSM     OF12023   6.186   5.676   6.712  0.2735  0.6794 -0.2131
  115OSM    C2F12024   6.179   5.785   6.926 -0.0613 -0.8028  0.4039
  115OSM    H2F12025   6.075   5.823   6.927  0.4652  0.7231 -0.3724
  115OSM    H2G12026   6.229   5.858   6.993 -0.1273 -1.2243  0.9203
  115OSM    C3F12027   6.167   5.651   7.010 -0.2886  0.1597 -0.3219
  115OSM    H3F12028   6.268   5.606   7.002 -0.4332 -0.9563  2.8941
  115OSM    H3G12029   6.096   5.580   6.961 -0.9292 -0.8261  1.9202
  115OSM    C4F12030   6.125   5.670   7.155  0.3283 -0.3367 -0.0302
  115OSM    H4F12031   6.030   5.726   7.166  0.2184 -0.5407  0.0766
  115OSM    H4G12032   6.203   5.734   7.201  0.7401 -0.0549 -1.0942
  115OSM    C5F12033   6.114   5.533   7.223 -0.4674 -0.2798  0.1188
  115OSM    H5F12034   6.202   5.474   7.188 -1.3366 -1.8879  0.5082
  115OSM    H5G12035   6.027   5.474   7.187 -1.4624  1.6990 -0.8296
  115OSM    C6F12036   6.124   5.535   7.377 -0.0877  0.4767  0.3851
  115OSM    H6F12037   6.051   5.609   7.416 -2.9081 -2.5627  1.3015
  115OSM    H6G12038   6.227   5.554   7.414  1.2713 -0.2262 -2.7115
  115OSM    C7F12039   6.087   5.398   7.427  0.3648 -0.1007  0.4464
  115OSM    H7F12040   6.140   5.318   7.371  0.1103 -0.4499  0.6974
  115OSM    H7G12041   5.980   5.384   7.398  0.4615 -0.7246  0.3825
  115OSM    C8F12042   6.121   5.382   7.578  0.2391  0.1545 -0.2057
  115OSM    H8F12043   6.092   5.478   7.626  0.5373  0.1163  0.0553
  115OSM    H8G12044   6.231   5.375   7.595 -0.0396 -3.7299  0.9734
  115OSM    C9F12045   6.051   5.264   7.631  0.1062  0.1402  1.0705
  115OSM    H9F12046   5.997   5.206   7.555  1.0851  0.1603  0.3453
  115OSM   C10F12047   6.035   5.234   7.761  0.7511  0.0999 -0.4528
  115OSM   H10F12048   5.981   5.143   7.791  1.5639 -1.3317 -3.0711
  115OSM   C11F12049   6.078   5.322   7.883  0.0751  0.5507 -0.2431
  115OSM   H11F12050   5.986   5.356   7.936 -0.7919 -3.0997  0.9027
  115OSM   H11G12051   6.148   5.404   7.856 -0.2764  0.7128 -0.6757
  115OSM   C12F12052   6.154   5.228   7.984 -0.2677  0.1481  0.6500
  115OSM   H12F12053   6.243   5.178   7.941 -2.0776 -1.5801 -1.3048
  115OSM   H12G12054   6.079   5.150   8.010  1.0929 -2.1141 -1.7356
  115OSM   C13F12055   6.203   5.307   8.109 -0.7287  0.2163  0.2702
  115OSM   H13F12056   6.114   5.358   8.151 -2.7609 -4.1210  1.9101
  115OSM   H13G12057   6.279   5.382   8.078 -0.0579  0.3558  2.0792
  115OSM   C14F12058   6.264   5.207   8.214 -0.5017 -0.3202 -0.4343
  115OSM   H14F12059   6.357   5.164   8.170 -0.4494  0.6750 -1.3203
  115OSM   H14G12060   6.180   5.142   8.247  0.9036 -1.3575  1.2441
  115OSM   C15F12061   6.302   5.286   8.336 -0.4494  0.1115  0.3489
  115OSM   H15F12062   6.213   5.317   8.394 -1.0631 -0.8789 -0.0452
  115OSM   H15G12063   6.384   5.360   8.327  1.1278 -1.6586 -0.6536
  115OSM   C16F12064   6.374   5.182   8.431  0.1552  0.0214 -0.7453
  115OSM   H16F12065   6.457   5.125   8.384  1.6878  2.3221 -1.0170
  115OSM   H16G12066   6.303   5.104   8.466 -0.0282  0.1517 -0.8295
  115OSM   C17F12067   6.424   5.249   8.563 -0.6221  0.4562 -0.5024
  115OSM   H17F12068   6.520   5.295   8.530  1.1754 -1.9586  1.0069
  115OSM   H17G12069   6.455   5.170   8.635  0.3060  1.5536  0.3328
  115OSM   C18F12070   6.333   5.347   8.631 -1.0044 -0.4641 -0.6741
  115OSM   H18F12071   6.232   5.338   8.585 -1.5853  1.1017  0.2184
  115OSM   H18G12072   6.366   5.450   8.604  1.1113 -1.2463 -1.2974
  115OSM   H18H12073   6.338   5.344   8.742  0.8570 -0.3571 -0.7291
  116OSM      N12074   6.616   2.561   6.075 -0.2584  0.2183 -0.4036
  116OSM    C1512075   6.713   2.489   6.160  0.7682 -0.4649  1.1867
  116OSM   H15A12076   6.671   2.497   6.260  0.1606  0.8316  0.8557
  116OSM   H15B12077   6.813   2.528   6.168  0.6263  0.2908 -0.4012
  116OSM   H15C12078   6.716   2.385   6.134 -0.5788  0.0038 -1.1340
  116OSM    C1412079   6.683   2.602   5.944  0.5609 -0.5801 -0.3192
  116OSM   H14A12080   6.700   2.506   5.896 -2.5911 -2.6812  2.3058
  116OSM   H14B12081   6.779   2.641   5.976 -0.3082  0.3880  1.2204
  116OSM   H14C12082   6.628   2.680   5.894 -0.6242 -0.0468  1.7075
  116OSM    C1312083   6.499   2.476   6.041 -0.2227 -0.1236  0.2038
  116OSM   H13A12084   6.461   2.426   6.129 -2.2306 -2.5120 -1.8918
  116OSM   H13B12085   6.530   2.412   5.960  1.2005 -1.9944  2.1242
  116OSM   H13C12086   6.416   2.536   6.006 -0.5664 -1.1463 -0.7690
  116OSM    C1212087   6.575   2.685   6.151  0.4842 -0.6558  0.3729
  116OSM   H12A12088   6.514   2.750   6.090  1.7738 -0.4528 -0.7397
  116OSM   H12B12089   6.660   2.750   6.159  1.3939 -1.6791 -0.6406
  116OSM    C1112090   6.504   2.675   6.293 -0.4731  0.4867  0.3959
  116OSM   H11A12091   6.501   2.781   6.325  0.9588  1.6359 -2.8534
  116OSM   H11B12092   6.582   2.619   6.349  0.6437 -1.1243 -2.5260
  116OSM      P12093   6.246   2.693   6.291 -0.2027 -0.5064 -0.1608
  116OSM    O1312094   6.257   2.774   6.167 -0.1306 -0.1103 -0.1322
  116OSM    O1412095   6.125   2.616   6.300 -0.1223  0.8328 -0.0812
  116OSM    O1112096   6.247   2.786   6.422 -0.3701  0.1199 -0.3561
  116OSM    O1212097   6.379   2.600   6.296 -0.2218 -0.0126 -0.4947
  116OSM    C1S12098   6.217   2.728   6.550  0.3500 -0.1184 -0.4651
  116OSM    H1S12099   6.219   2.617   6.548  0.3686 -0.1167 -0.5269
  116OSM    H1T12100   6.116   2.761   6.583  2.4190  4.5119  2.3658
  116OSM     NF12101   6.259   2.739   6.805  0.2633 -0.1537 -0.4164
  116OSM    HNF12102   6.190   2.791   6.855 -0.4053 -0.9507 -0.4852
  116OSM    C2S12103   6.304   2.781   6.669 -0.7186 -0.2113 -0.0252
  116OSM    H2S12104   6.407   2.742   6.660 -0.6139  0.3775 -1.8592
  116OSM    C3S12105   6.317   2.936   6.661 -0.0368 -0.0386  0.6222
  116OSM    H3S12106   6.220   2.990   6.666  0.8013  1.4060  1.7795
  116OSM     O312107   6.375   2.979   6.539 -0.7441  0.0840  0.0244
  116OSM    HO312108   6.380   2.899   6.486  2.1634  0.0306  0.2269
  116OSM    C4S12109   6.395   2.984   6.776 -0.4861  0.1864  0.5733
  116OSM    H4S12110   6.500   2.953   6.781 -0.1924  1.0290 -0.1258
  116OSM    C5S12111   6.336   3.045   6.886  0.0619 -0.4720 -0.4081
  116OSM    H5S12112   6.228   3.068   6.887 -0.1102 -1.1561 -1.8207
  116OSM    C6S12113   6.412   3.092   7.009 -0.0883 -0.3739 -0.5292
  116OSM    H6S12114   6.414   3.203   7.009  0.5957 -0.3746 -0.7511
  116OSM    H6T12115   6.520   3.068   6.992  0.2253  0.7223 -0.1771
  116OSM    C7S12116   6.358   3.039   7.142 -0.4683 -0.0004 -0.0383
  116OSM    H7S12117   6.324   2.935   7.122  1.2550 -0.3221 -1.6276
  116OSM    H7T12118   6.270   3.097   7.176 -1.1329 -1.3069  0.5381
  116OSM    C8S12119   6.457   3.048   7.255  0.0905  0.2545 -0.4353
  116OSM    H8S12120   6.521   3.138   7.249  3.0568 -1.7680 -4.5058
  116OSM    H8T12121   6.525   2.961   7.246 -2.3988 -1.7373 -1.2337
  116OSM    C9S12122   6.394   3.039   7.393  0.0952  0.8510 -0.0489
  116OSM    H9S12123   6.324   2.953   7.392 -0.9210  1.6374 -1.7888
  116OSM    H9T12124   6.324   3.124   7.402 -2.7812 -1.4415  0.8405
  116OSM   C10S12125   6.492   3.018   7.509 -0.4863 -0.1580 -0.1779
  116OSM   H10S12126   6.580   3.085   7.498 -0.2785 -0.4068 -0.0457
  116OSM   H10T12127   6.532   2.915   7.499  0.1804  0.2777 -2.5080
  116OSM   C11S12128   6.424   3.056   7.640  0.8265  0.7284  0.9361
  116OSM   H11S12129   6.341   2.985   7.658 -0.4762  1.2924 -2.1447
  116OSM   H11T12130   6.381   3.158   7.629 -0.4679  0.1172  0.0369
  116OSM   C12S12131   6.514   3.043   7.764  0.6622 -0.9498  0.1470
  116OSM   H12S12132   6.605   3.104   7.743 -0.5951  0.5112 -1.2837
  116OSM   H12T12133   6.547   2.937   7.757 -0.1976 -1.1637 -0.9092
  116OSM   C13S12134   6.447   3.080   7.892  0.6623  0.4890 -0.3648
  116OSM   H13S12135   6.355   3.019   7.909  1.3251 -1.0618 -1.9613
  116OSM   H13T12136   6.421   3.187   7.877  0.5955  0.1984 -2.7610
  116OSM   C14S12137   6.540   3.074   8.009 -0.2377 -0.6833 -0.4476
  116OSM   H14S12138   6.640   3.104   7.972  0.4529 -0.8002  1.1993
  116OSM   H14T12139   6.553   2.970   8.046 -1.7606  0.1927  2.9305
  116OSM   C15S12140   6.493   3.157   8.134 -0.3701 -0.5604  0.3651
  116OSM   H15S12141   6.575   3.133   8.205  0.3602 -0.5825 -0.4587
  116OSM   H15T12142   6.396   3.126   8.178 -0.1352  0.1805  1.4208
  116OSM   C16S12143   6.482   3.307   8.105  0.0028 -0.3834  0.5394
  116OSM   H16S12144   6.391   3.314   8.042  0.7828 -1.5169 -0.7690
  116OSM   H16T12145   6.563   3.351   8.042  0.6528 -0.3376  1.3803
  116OSM   C17S12146   6.464   3.385   8.233  0.1694 -0.9130 -0.0410
  116OSM   H17S12147   6.548   3.383   8.306 -0.3868  2.2919  0.8437
  116OSM   H17T12148   6.378   3.341   8.286 -1.2115  1.3043 -0.2925
  116OSM   C18S12149   6.439   3.533   8.211  0.2766 -0.1740 -0.3389
  116OSM   H18S12150   6.461   3.585   8.306 -0.0121  0.7038 -0.7343
  116OSM   H18T12151   6.340   3.555   8.166  1.0774  0.5300 -1.8521
  116OSM   H18U12152   6.508   3.568   8.131 -0.6145 -0.6220 -1.3395
  116OSM    C1F12153   6.275   2.613   6.847 -0.2491 -1.0958 -0.3571
  116OSM     OF12154   6.359   2.533   6.798  0.3030 -0.2048  0.2216
  116OSM    C2F12155   6.198   2.580   6.970  0.0993 -0.2539  0.1749
  116OSM    H2F12156   6.090   2.600   6.952 -0.3891 -2.3690  0.5271
  116OSM    H2G12157   6.238   2.627   7.062  0.0818  0.2798 -0.0848
  116OSM    C3F12158   6.203   2.429   7.009  0.2988 -0.1662  0.3475
  116OSM    H3F12159   6.306   2.404   7.042 -0.4198 -0.9875  2.1298
  116OSM    H3G12160   6.186   2.383   6.909 -2.5203  1.9814 -0.3021
  116OSM    C4F12161   6.108   2.372   7.115 -0.3288 -0.3207  0.3198
  116OSM    H4F12162   6.009   2.383   7.065  1.3950  3.3025 -2.7638
  116OSM    H4G12163   6.109   2.427   7.212 -0.2610  0.6517 -0.2214
  116OSM    C5F12164   6.124   2.228   7.151 -0.3834  0.1649 -0.0045
  116OSM    H5F12165   6.139   2.172   7.056  0.9266 -1.7638  1.2636
  116OSM    H5G12166   6.037   2.194   7.211  0.3428  0.9060  1.5085
  116OSM    C6F12167   6.250   2.212   7.246 -0.2831  0.2910  0.1737
  116OSM    H6F12168   6.231   2.147   7.334  2.4536  0.1292  0.7188
  116OSM    H6G12169   6.275   2.316   7.276 -0.9266  0.0812  1.5183
  116OSM    C7F12170   6.370   2.148   7.170  0.0092  0.3014 -0.0174
  116OSM    H7F12171   6.400   2.202   7.077  0.1772 -0.3711 -0.3577
  116OSM    H7G12172   6.326   2.056   7.127  0.2913 -1.8732  3.8867
  116OSM    C8F12173   6.496   2.104   7.258  0.7421  0.3426 -0.4404
  116OSM    H8F12174   6.565   2.035   7.205  0.8963  1.7380 -2.1548
  116OSM    H8G12175   6.461   2.053   7.350 -2.3662  0.1850 -1.5879
  116OSM    C9F12176   6.562   2.230   7.302 -0.2133  0.1364  0.2829
  116OSM    H9F12177   6.569   2.301   7.218  0.7832 -2.1634 -1.6970
  116OSM   C10F12178   6.617   2.255   7.419 -0.1351 -0.7845 -0.3859
  116OSM   H10F12179   6.665   2.353   7.432  0.4787 -1.2406  1.0161
  116OSM   C11F12180   6.632   2.163   7.535  0.2425 -0.1357 -0.3364
  116OSM   H11F12181   6.737   2.174   7.572 -0.3521 -1.6543  2.0448
  116OSM   H11G12182   6.625   2.058   7.500  2.5611  0.4069 -2.8529
  116OSM   C12F12183   6.551   2.190   7.669 -0.0770 -0.5442  0.3874
  116OSM   H12F12184   6.451   2.142   7.662  0.2019 -1.3324  1.5696
  116OSM   H12G12185   6.543   2.299   7.687 -0.7245 -0.0148 -2.5387
  116OSM   C13F12186   6.622   2.129   7.792 -0.1375 -0.2748  0.4349
  116OSM   H13F12187   6.729   2.161   7.797 -0.4814  1.2206 -0.9849
  116OSM   H13G12188   6.614   2.020   7.774  1.6114 -0.7913  2.2876
  116OSM   C14F12189   6.543   2.162   7.925  0.0302 -0.7669  0.5314
  116OSM   H14F12190   6.437   2.129   7.918 -0.4263  0.7626 -0.0290
  116OSM   H14G12191   6.556   2.272   7.935  2.2313 -0.5496 -3.0303
  116OSM   C15F12192   6.606   2.098   8.053  0.2339  0.2528  0.4262
  116OSM   H15F12193   6.717   2.103   8.051  0.2098  0.8506  0.3854
  116OSM   H15G12194   6.580   1.992   8.033  2.5196  0.0665 -2.1106
  116OSM   C16F12195   6.545   2.157   8.180  0.6410  0.1799 -0.0578
  116OSM   H16F12196   6.436   2.172   8.160  0.5515  0.4743  0.6268
  116OSM   H16G12197   6.588   2.259   8.185 -1.2131  0.9876  0.1673
  116OSM   C17F12198   6.555   2.077   8.314 -0.7835  0.2231  0.2416
  116OSM   H17F12199   6.663   2.068   8.339 -0.2406 -3.5569 -2.4995
  116OSM   H17G12200   6.525   1.972   8.292 -1.0932  0.4589 -0.5000
  116OSM   C18F12201   6.465   2.129   8.427  0.7196  0.0068 -0.5584
  116OSM   H18F12202   6.498   2.227   8.467  0.6045  0.5737 -1.7944
  116OSM   H18G12203   6.447   2.061   8.512 -0.8035  1.0504  0.0046
  116OSM   H18H12204   6.367   2.151   8.378  0.1943  0.4311  0.6228
  117OSM      N12205   2.821   5.453   6.135  0.3209 -0.5631 -0.4039
  117OSM    C1512206   2.807   5.600   6.081  0.5222 -0.7687  0.1568
  117OSM   H15A12207   2.702   5.627   6.086 -0.0974 -2.8584 -0.5138
  117OSM   H15B12208   2.825   5.608   5.975 -2.3489  1.7120 -0.2803
  117OSM   H15C12209   2.871   5.662   6.142  1.6343 -1.4336 -0.2972
  117OSM    C1412210   2.727   5.359   6.057  0.2900 -0.7074 -0.3607
  117OSM   H14A12211   2.638   5.350   6.117  0.0048  1.1925 -0.4282
  117OSM   H14B12212   2.777   5.263   6.054  1.1559 -0.3209  1.0497
  117OSM   H14C12213   2.709   5.385   5.953 -1.9208  0.5120  0.2524
  117OSM    C1312214   2.965   5.414   6.104  0.5332  0.0134  0.2948
  117OSM   H13A12215   3.035   5.490   6.135 -0.6095  1.6035 -0.8390
  117OSM   H13B12216   2.973   5.394   5.998  0.2277  2.4784 -0.2518
  117OSM   H13C12217   2.997   5.320   6.146  2.1298 -1.2025 -3.2852
  117OSM    C1212218   2.783   5.445   6.282 -0.4390 -0.0292 -0.1603
  117OSM   H12A12219   2.793   5.344   6.317 -0.0414 -0.3281 -1.0965
  117OSM   H12B12220   2.680   5.475   6.293  0.1190  2.1806 -0.4406
  117OSM    C1112221   2.869   5.524   6.379 -0.3468 -0.2891  0.3525
  117OSM   H11A12222   2.972   5.486   6.362  0.3455  2.0143 -1.0969
  117OSM   H11B12223   2.840   5.494   6.482 -0.4393 -1.2396  0.0551
  117OSM      P12224   2.785   5.770   6.446 -0.0549  0.0263  0.0120
  117OSM    O1312225   2.822   5.906   6.408 -0.2684 -0.1119 -0.3246
  117OSM    O1412226   2.643   5.723   6.432 -0.7475  0.2468  0.0923
  117OSM    O1112227   2.846   5.734   6.588 -0.2073  0.2885 -0.1105
  117OSM    O1212228   2.872   5.666   6.361  0.0508  0.4857  0.1249
  117OSM    C1S12229   2.769   5.775   6.705 -0.0666 -0.0803  0.9935
  117OSM    H1S12230   2.666   5.734   6.698 -0.6203  0.7849  3.2341
  117OSM    H1T12231   2.771   5.884   6.723  1.2520  0.2417 -0.8089
  117OSM     NF12232   2.735   5.747   6.944 -0.0780  0.2519  0.4994
  117OSM    HNF12233   2.737   5.839   6.984  0.1806  1.0519 -1.2373
  117OSM    C2S12234   2.824   5.715   6.836 -0.2495 -0.2956  0.1806
  117OSM    H2S12235   2.831   5.605   6.823 -2.2352 -0.6946  1.8480
  117OSM    C3S12236   2.974   5.765   6.854  0.9735  0.5967  0.3802
  117OSM    H3S12237   2.974   5.876   6.850  1.3512  0.5989  0.4573
  117OSM     O312238   3.070   5.728   6.755 -0.0311 -0.2705 -0.1872
  117OSM    HO312239   3.017   5.703   6.678  0.7585 -1.7096 -0.2934
  117OSM    C4S12240   3.023   5.710   6.989 -0.3215 -0.3994  0.0523
  117OSM    H4S12241   3.019   5.601   7.005 -0.6488 -0.4213 -0.1610
  117OSM    C5S12242   3.067   5.791   7.081 -0.7174 -0.3548  0.2612
  117OSM    H5S12243   3.075   5.901   7.074 -0.7210 -0.4074 -0.7183
  117OSM    C6S12244   3.102   5.735   7.220 -0.2198  0.3913  0.1714
  117OSM    H6S12245   3.194   5.672   7.221 -0.2974  0.2739  0.9954
  117OSM    H6T12246   3.025   5.663   7.254  1.0564 -1.4223 -0.5532
  117OSM    C7S12247   3.114   5.848   7.332 -0.1326 -0.2988  0.1225
  117OSM    H7S12248   3.011   5.885   7.350  0.2649  0.2470  1.3388
  117OSM    H7T12249   3.175   5.929   7.287 -1.6596  0.5494 -0.5096
  117OSM    C8S12250   3.176   5.792   7.454 -0.0679  0.1579  0.0446
  117OSM    H8S12251   3.277   5.751   7.433  0.6091  1.1404  1.2379
  117OSM    H8T12252   3.105   5.717   7.495  0.4460 -0.6521 -0.5157
  117OSM    C9S12253   3.186   5.898   7.573  0.1167 -0.0242 -0.0305
  117OSM    H9S12254   3.090   5.953   7.560 -0.8976 -1.7043  0.1040
  117OSM    H9T12255   3.279   5.959   7.569 -0.6122  1.1513  0.4689
  117OSM   C10S12256   3.202   5.833   7.705 -0.6161  0.5170 -0.2407
  117OSM   H10S12257   3.281   5.757   7.721 -2.0683 -0.7119  1.5510
  117OSM   H10T12258   3.119   5.764   7.733  0.7706 -0.3026  2.1454
  117OSM   C11S12259   3.236   5.931   7.828  0.4835  0.4205  0.7861
  117OSM   H11S12260   3.153   6.005   7.820 -0.2233 -0.5377 -1.4932
  117OSM   H11T12261   3.330   5.990   7.818  0.5901  0.2378  0.7251
  117OSM   C12S12262   3.264   5.853   7.966  0.2622  0.1595 -0.1563
  117OSM   H12S12263   3.326   5.765   7.940 -2.1183 -0.9805 -2.4641
  117OSM   H12T12264   3.161   5.821   7.995  0.7014 -0.2721  0.9784
  117OSM   C13S12265   3.332   5.945   8.060  0.4751  0.1606  0.8251
  117OSM   H13S12266   3.280   6.038   8.090  0.2753  0.3634 -0.1206
  117OSM   H13T12267   3.426   5.975   8.009  1.0444 -1.3625  0.9171
  117OSM   C14S12268   3.362   5.878   8.198 -0.2648  0.4674 -0.1998
  117OSM   H14S12269   3.273   5.824   8.236 -1.0694  1.9864  0.1459
  117OSM   H14T12270   3.370   5.959   8.273  0.7976 -0.0295  0.2584
  117OSM   C15S12271   3.480   5.786   8.197 -0.2638  0.5736  0.0846
  117OSM   H15S12272   3.556   5.820   8.123 -1.0264  1.4192 -0.3297
  117OSM   H15T12273   3.446   5.683   8.172  0.7908  0.6137 -1.7341
  117OSM   C16S12274   3.543   5.762   8.329  0.3029  0.2487  0.6256
  117OSM   H16S12275   3.613   5.845   8.353  1.4366 -0.6482  0.5114
  117OSM   H16T12276   3.607   5.671   8.328  1.1879  0.8584  0.7642
  117OSM   C17S12277   3.442   5.746   8.451 -0.6448  0.3006 -0.2053
  117OSM   H17S12278   3.382   5.834   8.482  0.4039  0.1005  2.6930
  117OSM   H17T12279   3.506   5.734   8.540 -0.1703  2.2167 -0.2471
  117OSM   C18S12280   3.363   5.622   8.436 -0.8037  0.2973  0.3518
  117OSM   H18S12281   3.428   5.543   8.392  0.8213  1.3863  0.7412
  117OSM   H18T12282   3.268   5.641   8.381 -0.1080  4.4019  0.2691
  117OSM   H18U12283   3.332   5.585   8.536  0.4854 -2.2940 -0.1188
  117OSM    C1F12284   2.620   5.681   6.953  0.5409 -0.1649  0.6301
  117OSM     OF12285   2.611   5.569   6.903 -0.0542 -0.0150 -0.4699
  117OSM    C2F12286   2.505   5.746   7.021  0.7135  0.3490 -0.5716
  117OSM    H2F12287   2.424   5.773   6.950 -1.4507 -1.0990  1.1912
  117OSM    H2G12288   2.532   5.834   7.084 -0.4462 -0.6973  1.4951
  117OSM    C3F12289   2.427   5.639   7.107 -0.2293 -0.1701  0.1158
  117OSM    H3F12290   2.492   5.590   7.183 -1.2416 -0.9486  0.5075
  117OSM    H3G12291   2.404   5.554   7.039  0.4545  0.9128 -1.5434
  117OSM    C4F12292   2.307   5.697   7.174  0.8946  0.2995 -0.0888
  117OSM    H4F12293   2.243   5.749   7.100  1.4500  3.0145  1.2399
  117OSM    H4G12294   2.338   5.772   7.250 -2.1590 -0.2127  1.8462
  117OSM    C5F12295   2.224   5.597   7.250  0.1334  0.5702  0.1951
  117OSM    H5F12296   2.197   5.519   7.176 -1.6042  2.2376 -0.9969
  117OSM    H5G12297   2.128   5.645   7.277 -1.4492  0.2920 -4.1762
  117OSM    C6F12298   2.282   5.539   7.384 -0.1712  0.1500 -0.3122
  117OSM    H6F12299   2.381   5.491   7.368  0.4353  1.2335  0.0190
  117OSM    H6G12300   2.211   5.465   7.425 -0.0780  0.5383  0.5679
  117OSM    C7F12301   2.323   5.649   7.491  0.5265 -0.4708 -0.0338
  117OSM    H7F12302   2.241   5.724   7.498 -0.8274 -1.7256 -1.5169
  117OSM    H7G12303   2.402   5.718   7.455 -1.5472  1.7114 -0.6045
  117OSM    C8F12304   2.371   5.602   7.629  0.2267 -0.5722 -0.4388
  117OSM    H8F12305   2.282   5.571   7.688 -0.1452 -1.6383 -1.5284
  117OSM    H8G12306   2.409   5.697   7.673 -1.6105  1.3467 -2.7127
  117OSM    C9F12307   2.470   5.491   7.658 -0.0800 -0.0026  0.0912
  117OSM    H9F12308   2.533   5.461   7.573 -0.6213  0.6195 -0.5376
  117OSM   C10F12309   2.475   5.422   7.771  0.2665  0.1792 -0.2222
  117OSM   H10F12310   2.559   5.351   7.779  0.6452  0.5872 -0.5337
  117OSM   C11F12311   2.402   5.466   7.899  0.2759  0.0245  0.5981
  117OSM   H11F12312   2.327   5.389   7.928 -0.8440  1.5948  2.0438
  117OSM   H11G12313   2.356   5.567   7.902  2.5672  1.1553  0.4710
  117OSM   C12F12314   2.502   5.469   8.013 -0.0936 -0.1078 -0.2380
  117OSM   H12F12315   2.569   5.557   8.000 -1.4525  1.6251  3.1536
  117OSM   H12G12316   2.568   5.381   8.029 -1.0033 -0.5815  1.0999
  117OSM   C13F12317   2.427   5.504   8.146 -0.7353 -0.6829  0.8586
  117OSM   H13F12318   2.373   5.416   8.186 -0.5038 -1.6018 -0.7627
  117OSM   H13G12319   2.348   5.581   8.135  0.2223  0.3107  0.7373
  117OSM   C14F12320   2.533   5.571   8.236  0.0415 -0.5511  0.3311
  117OSM   H14F12321   2.589   5.648   8.177 -0.5452 -0.2915  0.1033
  117OSM   H14G12322   2.613   5.500   8.265  2.0503  0.3445 -2.5881
  117OSM   C15F12323   2.481   5.641   8.361 -0.4107  0.3169 -0.5445
  117OSM   H15F12324   2.566   5.692   8.410 -0.4260  0.1517 -0.3499
  117OSM   H15G12325   2.444   5.559   8.425  0.0771  0.2579 -0.3439
  117OSM   C16F12326   2.370   5.748   8.348 -0.8559  0.8931  0.1587
  117OSM   H16F12327   2.344   5.791   8.447 -0.0567 -1.5970  1.5499
  117OSM   H16G12328   2.276   5.708   8.307  0.5134 -0.2143 -2.0945
  117OSM   C17F12329   2.420   5.871   8.260  0.1032 -0.3285  0.2428
  117OSM   H17F12330   2.461   5.835   8.162  1.4947 -0.7281  0.9366
  117OSM   H17G12331   2.328   5.922   8.226 -1.1646 -1.8872  1.2250
  117OSM   C18F12332   2.507   5.979   8.334  0.6145 -0.2019 -0.2278
  117OSM   H18F12333   2.538   6.071   8.280  3.6583 -1.0067 -0.0710
  117OSM   H18G12334   2.603   5.932   8.365  0.7980  0.6828  0.5693
  117OSM   H18H12335   2.454   6.011   8.425  2.6681  3.1710 -0.0248
  118OSM      N12336   0.436   5.757   6.339  0.3462  0.3888  0.0004
  118OSM    C1512337   0.514   5.655   6.415 -0.0196 -0.8327  0.9292
  118OSM   H15A12338   0.515   5.562   6.361 -1.5941  0.6709 -1.9324
  118OSM   H15B12339   0.471   5.641   6.513 -0.5062 -3.2136  0.4181
  118OSM   H15C12340   0.615   5.690   6.433 -0.2242  1.5833 -1.7801
  118OSM    C1412341   0.502   5.782   6.211  0.2588  0.7307  0.2081
  118OSM   H14A12342   0.609   5.797   6.219  0.7794 -1.7730 -0.9639
  118OSM   H14B12343   0.470   5.864   6.148 -1.1905 -0.7313 -1.0611
  118OSM   H14C12344   0.483   5.698   6.145 -0.1878  0.9310  0.0800
  118OSM    C1312345   0.300   5.708   6.309  0.5318  0.4535 -0.0959
  118OSM   H13A12346   0.308   5.620   6.247  0.2755  2.4709 -3.2260
  118OSM   H13B12347   0.238   5.783   6.262 -1.3180 -0.5785  0.5864
  118OSM   H13C12348   0.247   5.674   6.397  1.0540 -2.2800 -0.7412
  118OSM    C1212349   0.426   5.891   6.416  0.2348  0.5710 -0.8365
  118OSM   H12A12350   0.377   5.872   6.510 -0.3453  2.1083 -0.7868
  118OSM   H12B12351   0.363   5.962   6.364  0.2526  0.2168 -1.3480
  118OSM    C1112352   0.561   5.961   6.445 -0.0929  0.3347  0.0055
  118OSM   H11A12353   0.627   5.883   6.487  0.2005  0.0076 -1.0341
  118OSM   H11B12354   0.554   6.039   6.523  3.2383 -0.4888  1.2648
  118OSM      P12355   0.573   6.146   6.247 -0.4638  0.3471  0.3091
  118OSM    O1312356   0.653   6.150   6.123  0.6396 -0.1552 -0.3385
  118OSM    O1412357   0.430   6.137   6.222 -0.2522 -0.2363 -0.1395
  118OSM    O1112358   0.611   6.278   6.334 -0.2678 -0.2511  0.0918
  118OSM    O1212359   0.622   6.020   6.331 -0.0445 -0.8562  0.1120
  118OSM    C1S12360   0.531   6.348   6.424  0.0474 -0.0368 -0.5018
  118OSM    H1S12361   0.439   6.287   6.428  0.9607 -1.4077  1.2094
  118OSM    H1T12362   0.513   6.452   6.389 -0.0370  0.2551  0.3846
  118OSM     NF12363   0.485   6.394   6.651  0.9036  0.2919  0.0605
  118OSM    HNF12364   0.479   6.489   6.681  0.6631  0.2672  0.0888
  118OSM    C2S12365   0.594   6.351   6.565 -0.3644 -0.2663  0.2766
  118OSM    H2S12366   0.617   6.247   6.596  0.4093  0.5615  2.7189
  118OSM    C3S12367   0.726   6.433   6.567  0.2662 -0.2549  0.5016
  118OSM    H3S12368   0.709   6.535   6.527  0.3778 -0.2739  0.4065
  118OSM     O312369   0.827   6.384   6.477  0.0182 -0.1058 -0.2769
  118OSM    HO312370   0.789   6.322   6.415  1.8098 -1.3462 -0.1965
  118OSM    C4S12371   0.788   6.427   6.705 -0.3953 -0.1032  0.1155
  118OSM    H4S12372   0.802   6.324   6.740  1.4315  0.4654  1.1929
  118OSM    C5S12373   0.804   6.528   6.802  0.0741 -0.1620  0.8127
  118OSM    H5S12374   0.782   6.628   6.763  1.8440  0.1339  0.4856
  118OSM    C6S12375   0.854   6.512   6.940 -0.3709 -0.0675 -0.3781
  118OSM    H6S12376   0.896   6.612   6.966 -0.2058 -0.6082  1.6247
  118OSM    H6T12377   0.936   6.437   6.936 -0.2606  0.1090 -2.6432
  118OSM    C7S12378   0.753   6.487   7.051  0.6885 -0.3940 -0.2696
  118OSM    H7S12379   0.701   6.581   7.078 -1.5202 -1.9092  1.0764
  118OSM    H7T12380   0.820   6.460   7.135  0.2025 -1.1953 -0.1288
  118OSM    C8S12381   0.654   6.380   7.013  0.7051  0.1114  0.2640
  118OSM    H8S12382   0.686   6.300   6.943 -0.6272  0.5564 -0.8925
  118OSM    H8T12383   0.571   6.425   6.954  0.1320 -1.5998 -0.2929
  118OSM    C9S12384   0.589   6.314   7.138  0.1260  0.0720  0.2605
  118OSM    H9S12385   0.665   6.260   7.199  1.8599  3.4650  1.3678
  118OSM    H9T12386   0.518   6.241   7.093  1.4765 -1.1588  0.0432
  118OSM   C10S12387   0.506   6.419   7.219  0.0591  0.1941 -1.0318
  118OSM   H10S12388   0.418   6.437   7.154  0.9931  0.6227 -2.2216
  118OSM   H10T12389   0.571   6.509   7.230  0.2338 -0.0501 -0.0141
  118OSM   C11S12390   0.466   6.367   7.357  0.0079 -0.7689 -0.4876
  118OSM   H11S12391   0.427   6.263   7.350  0.9546 -1.2204  0.5591
  118OSM   H11T12392   0.388   6.435   7.399 -0.5158 -0.6605 -1.6112
  118OSM   C12S12393   0.580   6.373   7.465  0.2136 -0.4564  0.2478
  118OSM   H12S12394   0.594   6.483   7.470 -1.4008 -0.1578 -1.1184
  118OSM   H12T12395   0.682   6.343   7.435  1.0983 -1.1142  3.4606
  118OSM   C13S12396   0.544   6.312   7.607  0.4903  0.8961  0.2254
  118OSM   H13S12397   0.545   6.201   7.598 -2.2640  0.8424 -0.2405
  118OSM   H13T12398   0.441   6.347   7.632  0.8914  1.1019  1.7218
  118OSM   C14S12399   0.644   6.351   7.719  0.2623 -0.2252  0.4080
  118OSM   H14S12400   0.657   6.461   7.730  0.9661 -0.4938  2.8395
  118OSM   H14T12401   0.736   6.305   7.678  1.2805  1.1698  1.0348
  118OSM   C15S12402   0.608   6.280   7.849  0.3308  0.6089 -0.0588
  118OSM   H15S12403   0.589   6.174   7.822 -1.1723  1.2106 -1.5610
  118OSM   H15T12404   0.508   6.311   7.886  1.2420  2.5893  0.8493
  118OSM   C16S12405   0.705   6.280   7.965 -0.1356  0.5084  0.3894
  118OSM   H16S12406   0.757   6.375   7.993  1.7013 -1.4534  4.4707
  118OSM   H16T12407   0.787   6.216   7.927  0.1604 -0.6428  2.8185
  118OSM   C17S12408   0.647   6.208   8.091  0.3747  0.3862  0.0500
  118OSM   H17S12409   0.730   6.157   8.144 -0.0274  0.2244  0.5210
  118OSM   H17T12410   0.575   6.131   8.057  0.0741 -0.2622  2.0430
  118OSM   C18S12411   0.565   6.285   8.189  0.4854 -0.3726 -0.1959
  118OSM   H18S12412   0.520   6.215   8.262  1.1759 -1.0232 -0.3874
  118OSM   H18T12413   0.478   6.322   8.131 -0.6402  1.4398  2.4474
  118OSM   H18U12414   0.632   6.364   8.231  1.0843  1.0223 -3.4896
  118OSM    C1F12415   0.383   6.311   6.695 -0.1984 -0.3789  0.9319
  118OSM     OF12416   0.375   6.192   6.673 -0.1293 -0.3469  0.1899
  118OSM    C2F12417   0.264   6.378   6.766  0.1126  0.4501 -0.4678
  118OSM    H2F12418   0.173   6.335   6.719 -0.1826  0.4518  0.0901
  118OSM    H2G12419   0.279   6.485   6.739  1.9167  0.1292 -0.8383
  118OSM    C3F12420   0.250   6.354   6.915 -0.3201 -0.1480 -0.7441
  118OSM    H3F12421   0.174   6.422   6.958 -0.6242 -0.0032 -1.5013
  118OSM    H3G12422   0.354   6.374   6.950  0.1841  3.5994 -3.7451
  118OSM    C4F12423   0.201   6.209   6.943 -0.0939  0.5434 -0.2441
  118OSM    H4F12424   0.289   6.142   6.946  1.3623  2.3757  0.1322
  118OSM    H4G12425   0.153   6.181   6.847  0.0740  0.7006 -0.3749
  118OSM    C5F12426   0.108   6.200   7.065 -0.7617 -0.5923 -0.7151
  118OSM    H5F12427   0.049   6.106   7.054  0.2662 -1.4922  0.9989
  118OSM    H5G12428   0.050   6.294   7.072  2.1856  1.2438  2.5173
  118OSM    C6F12429   0.186   6.184   7.197  0.2095 -0.6341 -0.0415
  118OSM    H6F12430   0.250   6.274   7.209 -2.4234  1.6244 -1.6559
  118OSM    H6G12431   0.252   6.096   7.206  0.4849 -0.3585  0.7529
  118OSM    C7F12432   0.088   6.181   7.315  0.3388 -0.4517 -0.8799
  118OSM    H7F12433   0.025   6.092   7.291  2.0811 -2.7364  2.2842
  118OSM    H7G12434   0.033   6.277   7.301 -0.2345 -0.4798  0.9825
  118OSM    C8F12435   0.138   6.170   7.456 -0.2053  0.3464  0.2592
  118OSM    H8F12436   0.061   6.205   7.528  0.6706  1.2753  0.7569
  118OSM    H8G12437   0.227   6.230   7.486  0.0907  0.7327 -1.3311
  118OSM    C9F12438   0.169   6.030   7.498  0.3147  0.2682 -0.3784
  118OSM    H9F12439   0.144   5.958   7.419  1.0501 -1.5952  0.9998
  118OSM   C10F12440   0.223   5.989   7.610 -0.2661  1.3324  0.5857
  118OSM   H10F12441   0.226   5.881   7.628 -0.1675  1.5386  1.8751
  118OSM   C11F12442   0.261   6.069   7.732  0.1322  0.0329 -0.1453
  118OSM   H11F12443   0.213   6.169   7.736  1.6445  0.8276 -1.0080
  118OSM   H11G12444   0.368   6.097   7.744  0.4649 -0.0350 -2.4500
  118OSM   C12F12445   0.220   5.994   7.860  0.0498 -0.0781 -0.1864
  118OSM   H12F12446   0.286   5.905   7.871  0.7596  0.6765  2.3568
  118OSM   H12G12447   0.116   5.959   7.844  0.0107 -0.6918  1.3370
  118OSM   C13F12448   0.231   6.073   7.991  0.0116  0.5999 -0.9934
  118OSM   H13F12449   0.190   6.175   7.973 -1.2280  0.4080  0.5064
  118OSM   H13G12450   0.338   6.087   8.014 -0.3788 -0.4844  1.9307
  118OSM   C14F12451   0.155   6.020   8.112  0.2257 -0.1162 -0.9146
  118OSM   H14F12452   0.202   5.921   8.134  0.4794 -0.0075 -0.9710
  118OSM   H14G12453   0.050   6.006   8.077 -0.1907 -0.5723  0.4215
  118OSM   C15F12454   0.170   6.115   8.228  0.7066  0.4265 -0.2119
  118OSM   H15F12455   0.103   6.201   8.207 -1.7536 -0.9497  1.5360
  118OSM   H15G12456   0.279   6.139   8.234  0.9433 -0.0995 -1.8147
  118OSM   C16F12457   0.117   6.065   8.364 -0.1371  0.1595  0.1657
  118OSM   H16F12458   0.162   5.968   8.396 -0.3615  0.0550  0.1691
  118OSM   H16G12459   0.007   6.049   8.354 -0.1230 -0.0818  0.3859
  118OSM   C17F12460   0.137   6.173   8.470  0.5097 -0.0399  0.3240
  118OSM   H17F12461   0.087   6.268   8.442  0.6647 -0.9611 -3.7298
  118OSM   H17G12462   0.245   6.201   8.473  0.8962 -1.3266 -0.5878
  118OSM   C18F12463   0.104   6.124   8.611  0.4408 -0.2045 -0.2850
  118OSM   H18F12464   0.105   6.207   8.685 -0.5014 -0.5427  0.1184
  118OSM   H18G12465   0.181   6.045   8.631  0.4299  0.1910  1.5353
  118OSM   H18H12466   0.003   6.079   8.614 -1.1170  3.0950 -0.0477
  119OSM      N12467   3.148   6.520   6.392  0.1857  0.2060 -0.8419
  119OSM    C1512468   3.257   6.464   6.308  0.2934  0.5250  0.4093
  119OSM   H15A12469   3.262   6.356   6.311 -0.6410  0.4156 -1.1310
  119OSM   H15B12470   3.345   6.497   6.361  1.4322  1.9549 -2.1633
  119OSM   H15C12471   3.265   6.502   6.207  0.0234  2.5788  1.1002
  119OSM    C1412472   3.004   6.482   6.346  0.6134  0.1456  0.3099
  119OSM   H14A12473   2.987   6.376   6.348 -0.9069  0.3502 -0.1098
  119OSM   H14B12474   2.997   6.517   6.244 -1.9337 -2.2176 -0.4555
  119OSM   H14C12475   2.918   6.524   6.398  0.9693 -0.5485  1.4817
  119OSM    C1312476   3.183   6.476   6.534 -0.0734  0.0205 -0.4575
  119OSM   H13A12477   3.271   6.528   6.569 -0.1570  0.5602 -1.0242
  119OSM   H13B12478   3.204   6.370   6.538 -0.7038 -0.1921 -2.0380
  119OSM   H13C12479   3.101   6.499   6.601 -0.5982 -1.2806 -0.6332
  119OSM    C1212480   3.156   6.677   6.384  0.4321  0.1065 -0.3419
  119OSM   H12A12481   3.246   6.715   6.430 -0.7967  1.1442  1.3383
  119OSM   H12B12482   3.074   6.712   6.445 -0.2483 -2.5877  0.4160
  119OSM    C1112483   3.143   6.742   6.242  0.3615 -0.3417  0.0734
  119OSM   H11A12484   3.222   6.699   6.176 -0.6734 -1.7733 -0.2897
  119OSM   H11B12485   3.151   6.852   6.241  0.8203 -0.3693  0.3174
  119OSM      P12486   2.929   6.808   6.112  0.0414  0.1228 -0.0372
  119OSM    O1312487   3.001   6.890   6.012  0.6734  0.3110 -0.0297
  119OSM    O1412488   2.805   6.748   6.070 -0.6489 -0.1237  0.2974
  119OSM    O1112489   2.901   6.900   6.242  0.1519  0.3021 -0.3299
  119OSM    O1212490   3.028   6.701   6.174  0.1656 -0.3058  0.6071
  119OSM    C1S12491   2.787   6.855   6.330 -0.0765 -0.2504  0.1452
  119OSM    H1S12492   2.784   6.747   6.356  1.0906 -0.0065  1.3950
  119OSM    H1T12493   2.689   6.875   6.281  0.4143  2.7338  0.1600
  119OSM     NF12494   2.660   6.885   6.530  0.5623 -0.4135  0.6986
  119OSM    HNF12495   2.574   6.924   6.500  2.1240  2.4132 -0.4998
  119OSM    C2S12496   2.778   6.937   6.460  0.0651  0.0325 -0.1356
  119OSM    H2S12497   2.872   6.917   6.517 -0.7382 -2.2437  0.4675
  119OSM    C3S12498   2.760   7.088   6.430 -0.3197 -0.2421 -0.3249
  119OSM    H3S12499   2.656   7.099   6.391 -0.4488  0.7563  0.2461
  119OSM     O312500   2.836   7.150   6.324 -0.2312  0.1273  0.1545
  119OSM    HO312501   2.870   7.066   6.292 -2.1864 -0.2068 -1.2402
  119OSM    C4S12502   2.771   7.158   6.568 -0.1053  0.4910  0.3368
  119OSM    H4S12503   2.676   7.206   6.596 -0.5531  2.3404 -3.6247
  119OSM    C5S12504   2.883   7.183   6.637  0.0448 -0.2562 -0.3947
  119OSM    H5S12505   2.978   7.136   6.609  0.2674 -1.0797  1.5512
  119OSM    C6S12506   2.872   7.279   6.756  0.0616 -0.3278  0.0350
  119OSM    H6S12507   2.780   7.341   6.760  0.9301  1.0608 -0.6218
  119OSM    H6T12508   2.960   7.346   6.757 -0.3641  0.5136 -3.3667
  119OSM    C7S12509   2.893   7.205   6.894 -0.1588 -0.1749 -0.0361
  119OSM    H7S12510   2.992   7.155   6.899  0.8241  1.5244 -1.4570
  119OSM    H7T12511   2.812   7.129   6.898 -0.7899  0.5096  0.5791
  119OSM    C8S12512   2.873   7.293   7.020  0.2575  0.9584  0.3959
  119OSM    H8S12513   2.777   7.343   6.997 -0.8098 -1.3741 -0.5064
  119OSM    H8T12514   2.952   7.367   7.046  2.6414 -1.2551 -0.1364
  119OSM    C9S12515   2.814   7.215   7.140  0.8063  0.1284 -0.4635
  119OSM    H9S12516   2.909   7.171   7.176  2.4302  1.1572 -3.1701
  119OSM    H9T12517   2.752   7.128   7.111  0.4464 -0.3862  1.7108
  119OSM   C10S12518   2.753   7.303   7.245 -0.5659  0.4751  0.5427
  119OSM   H10S12519   2.645   7.321   7.225 -0.1788  0.0652 -2.2343
  119OSM   H10T12520   2.796   7.405   7.236 -0.3181  0.5191  1.9079
  119OSM   C11S12521   2.781   7.255   7.388 -0.4857 -0.2281 -0.0440
  119OSM   H11S12522   2.885   7.216   7.397 -1.2732 -2.3846  0.1593
  119OSM   H11T12523   2.711   7.174   7.417  1.2417 -1.3595  1.1976
  119OSM   C12S12524   2.757   7.361   7.493 -0.2213  0.2755  0.3588
  119OSM   H12S12525   2.651   7.390   7.478  0.4341  1.8706 -1.6224
  119OSM   H12T12526   2.811   7.453   7.462  2.5339 -0.6830  1.9745
  119OSM   C13S12527   2.797   7.307   7.630  0.2991  0.3282 -0.1927
  119OSM   H13S12528   2.906   7.294   7.649 -0.2429 -1.5684  2.0846
  119OSM   H13T12529   2.750   7.209   7.650  0.5935  0.2379  0.0742
  119OSM   C14S12530   2.756   7.402   7.743  0.3306  0.1301 -0.1466
  119OSM   H14S12531   2.645   7.406   7.754  0.2239  0.3306 -1.1417
  119OSM   H14T12532   2.781   7.502   7.701  0.0281 -0.1847 -1.1059
  119OSM   C15S12533   2.842   7.368   7.866 -0.0556 -0.9467 -0.1923
  119OSM   H15S12534   2.950   7.378   7.840 -0.1736  3.8288  0.2094
  119OSM   H15T12535   2.823   7.262   7.893  0.0729 -0.3764  2.4216
  119OSM   C16S12536   2.813   7.443   7.997  0.3847  0.4911  1.2977
  119OSM   H16S12537   2.705   7.424   8.017  0.4964 -0.4306  1.1026
  119OSM   H16T12538   2.824   7.549   7.968  2.2822  0.0060  0.0926
  119OSM   C17S12539   2.893   7.407   8.122 -0.4357  0.0473  0.8298
  119OSM   H17S12540   3.000   7.402   8.095 -0.6109 -0.4659  0.1779
  119OSM   H17T12541   2.856   7.309   8.159  2.1840 -1.6503 -0.7301
  119OSM   C18S12542   2.882   7.511   8.229 -0.4544 -0.3412  0.0381
  119OSM   H18S12543   2.771   7.517   8.227 -0.4180  0.3461 -0.2378
  119OSM   H18T12544   2.922   7.613   8.207  0.6226 -1.1196 -1.7839
  119OSM   H18U12545   2.930   7.474   8.321 -0.3187  0.2606  0.2176
  119OSM    C1F12546   2.670   6.773   6.596  0.0132 -0.0960  0.3096
  119OSM     OF12547   2.781   6.715   6.604 -0.1488  0.0565  0.1516
  119OSM    C2F12548   2.548   6.718   6.666 -0.3331 -0.1224  0.1210
  119OSM    H2F12549   2.530   6.615   6.628  1.6060 -0.5601  0.2758
  119OSM    H2G12550   2.460   6.784   6.648  1.1510  2.0656  0.4772
  119OSM    C3F12551   2.585   6.719   6.820 -0.2117  0.1281 -0.2066
  119OSM    H3F12552   2.607   6.824   6.848  4.0210 -0.5044 -0.3718
  119OSM    H3G12553   2.679   6.660   6.833 -1.8566 -2.7670 -0.6199
  119OSM    C4F12554   2.475   6.654   6.904 -0.7937 -0.1617 -0.2747
  119OSM    H4F12555   2.439   6.567   6.844  0.7608 -0.2248 -1.1730
  119OSM    H4G12556   2.388   6.720   6.925 -0.5651  0.1060 -0.1791
  119OSM    C5F12557   2.537   6.604   7.034 -0.3340  0.1759 -0.0507
  119OSM    H5F12558   2.607   6.673   7.086 -0.3993 -0.0286  0.3109
  119OSM    H5G12559   2.588   6.506   7.019 -1.4788 -0.4578  0.0547
  119OSM    C6F12560   2.420   6.586   7.129  0.6034  0.4518  0.3550
  119OSM    H6F12561   2.357   6.501   7.096  0.4151  0.2654  1.1789
  119OSM    H6G12562   2.365   6.683   7.131 -0.5449 -0.1725  0.2735
  119OSM    C7F12563   2.452   6.550   7.276  0.0618  0.1657  0.3994
  119OSM    H7F12564   2.504   6.453   7.271 -0.2689  0.0134 -0.1201
  119OSM    H7G12565   2.360   6.530   7.337  0.9393 -0.5019  1.5414
  119OSM    C8F12566   2.544   6.633   7.368  0.1124 -0.4298  0.2543
  119OSM    H8F12567   2.482   6.712   7.416 -2.4023 -3.4593  2.3804
  119OSM    H8G12568   2.621   6.686   7.308  0.0539  0.0752  0.6198
  119OSM    C9F12569   2.626   6.567   7.471 -0.4529 -0.1513 -0.2800
  119OSM    H9F12570   2.723   6.527   7.437 -0.3677 -0.0747 -0.1285
  119OSM   C10F12571   2.606   6.588   7.601  0.1749 -0.2096 -0.5321
  119OSM   H10F12572   2.676   6.540   7.672  0.1595  1.3375  0.5683
  119OSM   C11F12573   2.496   6.664   7.673 -0.1020  0.6058 -0.3173
  119OSM   H11F12574   2.397   6.657   7.623 -1.0301 -0.9199  1.6008
  119OSM   H11G12575   2.529   6.769   7.663 -0.7985  0.8367 -0.2710
  119OSM   C12F12576   2.469   6.639   7.820  0.7730  0.8457 -0.0920
  119OSM   H12F12577   2.413   6.725   7.863 -1.6609 -0.1539 -1.0947
  119OSM   H12G12578   2.569   6.639   7.869  1.0233 -1.9034 -0.4238
  119OSM   C13F12579   2.406   6.502   7.854  0.2637  0.5901  0.6759
  119OSM   H13F12580   2.470   6.427   7.802 -1.0240  0.0937 -0.2301
  119OSM   H13G12581   2.312   6.515   7.796  0.6675  2.8054  0.4087
  119OSM   C14F12582   2.388   6.464   7.998  0.1518 -0.5691 -0.8248
  119OSM   H14F12583   2.334   6.546   8.048 -2.8687 -1.2259 -2.7578
  119OSM   H14G12584   2.488   6.457   8.047 -0.7045  1.6277  1.3970
  119OSM   C15F12585   2.312   6.335   8.021  0.0970 -0.3612 -0.0350
  119OSM   H15F12586   2.377   6.253   7.983 -0.3965 -0.3473 -0.9196
  119OSM   H15G12587   2.224   6.322   7.956 -0.1425 -2.2452  0.6040
  119OSM   C16F12588   2.255   6.310   8.162  0.4508  0.1814  0.4441
  119OSM   H16F12589   2.223   6.404   8.213  1.0773  1.0650 -0.7220
  119OSM   H16G12590   2.333   6.265   8.226 -1.1002 -3.0988  0.2139
  119OSM   C17F12591   2.137   6.210   8.171 -0.1414  0.5112  0.1275
  119OSM   H17F12592   2.172   6.113   8.129  0.7820  0.6497  0.5584
  119OSM   H17G12593   2.063   6.251   8.099  0.6505  0.6167 -0.6435
  119OSM   C18F12594   2.079   6.192   8.310  1.0937  0.2413 -0.3619
  119OSM   H18F12595   2.062   6.294   8.352  2.8100  0.6454 -0.5589
  119OSM   H18G12596   2.146   6.130   8.373 -1.6907 -2.3985  0.2351
  119OSM   H18H12597   1.983   6.136   8.308  1.2547 -0.2492  1.9949
  120OSM      N12598   6.430   3.964   6.329 -0.5566 -0.0972 -0.2387
  120OSM    C1512599   6.438   4.104   6.274  0.2530  0.5582 -0.3833
  120OSM   H15A12600   6.500   4.167   6.336 -1.9837  1.4271  1.0758
  120OSM   H15B12601   6.341   4.151   6.280  0.0104  0.0007  0.2936
  120OSM   H15C12602   6.474   4.104   6.172 -1.0904  0.8132 -0.8820
  120OSM    C1412603   6.318   3.897   6.257  0.3245  0.2010 -0.3605
  120OSM   H14A12604   6.304   3.792   6.280 -0.5291  0.4309  0.2274
  120OSM   H14B12605   6.331   3.890   6.150 -0.3183 -1.7873 -0.3629
  120OSM   H14C12606   6.225   3.949   6.270  0.0451 -0.1575 -0.8530
  120OSM    C1312607   6.545   3.880   6.283  0.0760  0.0872  0.2599
  120OSM   H13A12608   6.643   3.921   6.300  0.3269 -0.3551 -0.1033
  120OSM   H13B12609   6.541   3.865   6.176 -2.0271  1.6308  0.0570
  120OSM   H13C12610   6.540   3.783   6.331 -1.0660  0.4113  0.8540
  120OSM    C1212611   6.413   3.950   6.482  0.2613  0.4197  0.2128
  120OSM   H12A12612   6.507   3.964   6.534 -0.3175  1.3703  1.0446
  120OSM   H12B12613   6.388   3.848   6.509  2.7084  0.6439  4.1914
  120OSM    C1112614   6.295   4.034   6.548 -0.4054  0.9686  0.0264
  120OSM   H11A12615   6.305   4.144   6.535  0.9645  1.1786  2.3976
  120OSM   H11B12616   6.277   4.017   6.656 -1.9313  1.8359 -0.0608
  120OSM      P12617   6.086   3.872   6.523  0.2774  0.2728 -0.0387
  120OSM    O1312618   5.968   3.869   6.433 -0.0511 -0.0144 -0.2829
  120OSM    O1412619   6.166   3.755   6.532  0.4947  0.3119 -0.0348
  120OSM    O1112620   6.035   3.881   6.670 -0.1910 -0.6606  0.1333
  120OSM    O1212621   6.175   3.999   6.489 -0.0378  0.0466  0.7392
  120OSM    C1S12622   5.972   4.003   6.719  0.0370  0.4658 -0.0266
  120OSM    H1S12623   5.869   4.000   6.676  1.0434  1.7856 -2.7790
  120OSM    H1T12624   6.030   4.094   6.691  1.2557 -0.3824 -0.3117
  120OSM     NF12625   5.891   4.124   6.924 -0.0718 -0.3225 -0.6656
  120OSM    HNF12626   5.943   4.187   6.981  0.8822  0.1537 -2.0145
  120OSM    C2S12627   5.967   4.014   6.877 -0.0751  1.2108  0.3522
  120OSM    H2S12628   5.910   3.923   6.907  0.6647  0.2196 -1.1471
  120OSM    C3S12629   6.113   4.011   6.938  0.4871  0.4641  0.0695
  120OSM    H3S12630   6.160   4.109   6.917 -0.1274  0.6309 -0.5548
  120OSM     O312631   6.191   3.903   6.889 -0.4928  1.3327  0.2802
  120OSM    HO312632   6.145   3.868   6.812  1.9100 -2.0532  0.1610
  120OSM    C4S12633   6.111   4.008   7.090 -0.2414 -0.0223 -1.0701
  120OSM    H4S12634   6.091   4.107   7.133 -2.6677 -0.6928 -0.5065
  120OSM    C5S12635   6.134   3.906   7.187 -0.0912  0.4023  0.3585
  120OSM    H5S12636   6.175   3.809   7.156 -0.5849  0.8827 -1.9563
  120OSM    C6S12637   6.132   3.927   7.338  0.4134 -0.1810 -0.6815
  120OSM    H6S12638   6.225   3.908   7.395  0.5316  1.6129 -0.2035
  120OSM    H6T12639   6.051   3.865   7.381 -1.1498  1.7729 -0.6487
  120OSM    C7S12640   6.098   4.070   7.386 -0.2473  0.0536  0.4206
  120OSM    H7S12641   6.002   4.107   7.345 -0.8421 -2.3259 -0.4569
  120OSM    H7T12642   6.182   4.136   7.356  0.5605 -1.7947 -1.6543
  120OSM    C8S12643   6.064   4.075   7.536 -0.4862  0.4885 -0.0113
  120OSM    H8S12644   5.956   4.085   7.558 -0.3690  1.7322  0.0961
  120OSM    H8T12645   6.105   4.171   7.575 -1.2578  0.1747  1.6397
  120OSM    C9S12646   6.126   3.966   7.626 -0.1617 -0.0703  0.3454
  120OSM    H9S12647   6.237   3.964   7.618 -0.1078  0.9856  0.7143
  120OSM    H9T12648   6.080   3.869   7.598 -1.6939  0.9622 -0.8415
  120OSM   C10S12649   6.091   3.987   7.773 -0.7743 -0.6369  0.2191
  120OSM   H10S12650   5.982   3.988   7.794 -0.6520  0.2225  0.9266
  120OSM   H10T12651   6.128   4.088   7.801  1.7286 -0.9866 -1.4814
  120OSM   C11S12652   6.147   3.887   7.869 -0.1566  0.0312 -0.0562
  120OSM   H11S12653   6.257   3.901   7.862 -0.3803  0.9333 -2.2725
  120OSM   H11T12654   6.138   3.785   7.825 -0.7425  0.5220 -1.0997
  120OSM   C12S12655   6.092   3.901   8.014 -0.2483 -0.5254  0.1358
  120OSM   H12S12656   5.993   3.851   8.021  0.5349 -2.2205 -0.3591
  120OSM   H12T12657   6.075   4.010   8.029  0.1143 -0.0920 -2.2030
  120OSM   C13S12658   6.187   3.859   8.125  0.1412 -0.2879  0.2937
  120OSM   H13S12659   6.284   3.906   8.100 -1.0596  1.1241 -2.0991
  120OSM   H13T12660   6.216   3.752   8.122 -0.8003 -0.5274 -2.6947
  120OSM   C14S12661   6.146   3.891   8.270 -0.1114  0.0543  0.2643
  120OSM   H14S12662   6.050   3.842   8.296 -0.1202  0.7167  1.5577
  120OSM   H14T12663   6.135   4.002   8.279  1.9705  0.6021 -2.4862
  120OSM   C15S12664   6.254   3.851   8.371 -0.6524  0.2818 -0.5204
  120OSM   H15S12665   6.274   3.744   8.348  0.1403  0.4038 -0.4261
  120OSM   H15T12666   6.215   3.846   8.475 -0.5860 -2.3610 -0.5487
  120OSM   C16S12667   6.391   3.923   8.372  0.5173 -0.7347  0.0159
  120OSM   H16S12668   6.373   4.033   8.372  1.7889 -0.4721 -2.4390
  120OSM   H16T12669   6.431   3.891   8.274 -1.4058 -0.2063 -0.9887
  120OSM   C17S12670   6.485   3.887   8.486 -0.0034 -0.0859 -0.7471
  120OSM   H17S12671   6.585   3.921   8.451 -0.8529  1.2484 -2.0113
  120OSM   H17T12672   6.481   3.778   8.503 -0.6904  0.1167  0.4426
  120OSM   C18S12673   6.455   3.967   8.612  0.3454  0.0634  0.4393
  120OSM   H18S12674   6.498   3.927   8.707  0.6795 -0.3401  0.1179
  120OSM   H18T12675   6.349   3.993   8.634  0.2154  0.5421 -0.7178
  120OSM   H18U12676   6.507   4.064   8.599  4.3870 -1.8154  1.0090
  120OSM    C1F12677   5.763   4.146   6.909 -0.0471  0.0847  0.0188
  120OSM     OF12678   5.693   4.071   6.836  0.1321 -0.0422  0.3311
  120OSM    C2F12679   5.710   4.259   6.990  0.5559  0.4918  0.1187
  120OSM    H2F12680   5.702   4.352   6.931  2.2821  2.0737  2.2262
  120OSM    H2G12681   5.787   4.276   7.068  1.3528 -0.0792 -0.5273
  120OSM    C3F12682   5.577   4.208   7.047 -0.0489 -0.1956 -0.0257
  120OSM    H3F12683   5.594   4.106   7.086 -0.0858  0.2859  1.3087
  120OSM    H3G12684   5.494   4.211   6.973 -1.8148  1.1715  1.9068
  120OSM    C4F12685   5.528   4.292   7.170  0.1072  0.1635 -0.2041
  120OSM    H4F12686   5.419   4.311   7.154 -0.0141  0.7377  1.1991
  120OSM    H4G12687   5.559   4.398   7.161 -1.3163  0.6749  0.5732
  120OSM    C5F12688   5.561   4.247   7.315  0.4883  0.5561  0.2385
  120OSM    H5F12689   5.669   4.264   7.334  0.4562  1.3785 -0.2638
  120OSM    H5G12690   5.540   4.138   7.313  1.1775  0.4284 -0.2340
  120OSM    C6F12691   5.483   4.321   7.421 -0.2360 -0.3151 -0.1687
  120OSM    H6F12692   5.375   4.321   7.397 -0.2909 -1.2943  0.0555
  120OSM    H6G12693   5.512   4.428   7.420  0.9614 -0.5027  2.7306
  120OSM    C7F12694   5.507   4.262   7.557  0.2952  0.5546 -0.5874
  120OSM    H7F12695   5.616   4.254   7.577  0.0829  0.1305  0.4875
  120OSM    H7G12696   5.463   4.160   7.558  0.4808  0.4114 -2.6997
  120OSM    C8F12697   5.438   4.330   7.675  0.0369 -0.0858 -0.5018
  120OSM    H8F12698   5.494   4.422   7.704 -0.8565  0.1289  0.6055
  120OSM    H8G12699   5.444   4.262   7.762  0.6290 -0.3214 -0.7241
  120OSM    C9F12700   5.295   4.373   7.657  0.2148  0.7761  0.2623
  120OSM    H9F12701   5.265   4.391   7.553  1.0089  3.3854  0.4121
  120OSM   C10F12702   5.206   4.388   7.753  0.5711  0.0448 -0.6210
  120OSM   H10F12703   5.108   4.424   7.718  1.6823  1.7454 -2.1246
  120OSM   C11F12704   5.236   4.391   7.900  0.1552 -0.2428  0.0634
  120OSM   H11F12705   5.199   4.490   7.937  0.2514 -0.1203 -0.1688
  120OSM   H11G12706   5.345   4.407   7.915  1.0487 -3.2495 -2.2310
  120OSM   C12F12707   5.181   4.270   7.982  0.0216  0.0347 -0.1754
  120OSM   H12F12708   5.192   4.177   7.922  1.8711 -0.6584  1.1433
  120OSM   H12G12709   5.081   4.302   8.019  0.2590 -1.8697  2.3556
  120OSM   C13F12710   5.268   4.240   8.110 -0.0201  0.0439 -0.1367
  120OSM   H13F12711   5.367   4.218   8.065 -0.5347 -2.3347 -0.2487
  120OSM   H13G12712   5.229   4.156   8.171 -0.3238 -0.9893 -1.6904
  120OSM   C14F12713   5.278   4.363   8.199 -0.6890 -0.6627 -0.4711
  120OSM   H14F12714   5.321   4.451   8.147  1.1962 -0.8488  0.6653
  120OSM   H14G12715   5.354   4.332   8.275  0.2926 -1.2069 -1.6353
  120OSM   C15F12716   5.152   4.395   8.272 -0.1332  0.0879 -0.7480
  120OSM   H15F12717   5.088   4.310   8.305  0.7332 -0.9688 -1.7288
  120OSM   H15G12718   5.081   4.441   8.201 -0.3228 -0.1715 -0.7291
  120OSM   C16F12719   5.182   4.476   8.396  0.0067  0.0319  0.1016
  120OSM   H16F12720   5.224   4.568   8.349 -0.7922  1.0386  1.2921
  120OSM   H16G12721   5.272   4.437   8.447 -0.9906 -2.2609  0.2079
  120OSM   C17F12722   5.062   4.489   8.493 -0.2587  0.1335  0.4322
  120OSM   H17F12723   5.079   4.405   8.563  0.5825 -0.5655 -0.5784
  120OSM   H17G12724   4.969   4.476   8.434 -0.3978 -2.2036  1.0914
  120OSM   C18F12725   5.062   4.620   8.579 -0.1425 -0.2007  0.0558
  120OSM   H18F12726   4.988   4.600   8.660 -0.0498 -4.8248 -0.7034
  120OSM   H18G12727   5.049   4.711   8.517  1.7971  0.4965  0.6084
  120OSM   H18H12728   5.163   4.631   8.623 -0.9054  2.2017  1.3796
  121OSM      N12729   1.600   5.779   5.749  0.6496  0.0127 -0.5007
  121OSM    C1512730   1.728   5.730   5.692  0.0385 -0.0466  0.2848
  121OSM   H15A12731   1.807   5.800   5.712 -0.6290  1.3069 -1.5132
  121OSM   H15B12732   1.717   5.715   5.586 -1.2367 -0.6878  0.4789
  121OSM   H15C12733   1.764   5.634   5.728  0.6451 -1.1311 -2.9153
  121OSM    C1412734   1.559   5.904   5.679 -0.5281  0.3398 -0.1145
  121OSM   H14A12735   1.626   5.985   5.703 -0.2800 -0.0858  0.6569
  121OSM   H14B12736   1.455   5.925   5.697 -1.0298 -0.8965 -1.3347
  121OSM   H14C12737   1.546   5.888   5.573  0.7319 -2.0703  0.0210
  121OSM    C1312738   1.491   5.675   5.712  1.0145  0.5125  0.2974
  121OSM   H13A12739   1.503   5.642   5.610  1.5213 -1.5437  0.9734
  121OSM   H13B12740   1.391   5.707   5.734  0.3161 -0.5653 -1.1388
  121OSM   H13C12741   1.508   5.591   5.778  1.5631  0.9660  0.7462
  121OSM    C1212742   1.612   5.810   5.891 -0.4880 -0.0324 -0.7108
  121OSM   H12A12743   1.516   5.852   5.918 -0.7570  2.5205 -4.7219
  121OSM   H12B12744   1.683   5.891   5.897  1.2462 -1.4157 -1.7644
  121OSM    C1112745   1.661   5.704   5.998  0.0781  0.0958  0.2711
  121OSM   H11A12746   1.702   5.759   6.086 -0.8696 -0.6096  1.1810
  121OSM   H11B12747   1.744   5.648   5.951 -0.0876  0.1953 -0.1459
  121OSM      P12748   1.430   5.654   6.103  0.0027 -0.1096 -0.3148
  121OSM    O1312749   1.356   5.749   6.010 -0.3487  0.3775 -0.4667
  121OSM    O1412750   1.354   5.534   6.151 -0.2724  0.6136 -0.2203
  121OSM    O1112751   1.502   5.733   6.221  0.1737 -0.1675 -0.3982
  121OSM    O1212752   1.561   5.604   6.030  0.1138  0.4618 -0.5847
  121OSM    C1S12753   1.449   5.706   6.357 -0.8074 -0.4700 -0.2803
  121OSM    H1S12754   1.467   5.597   6.370 -0.0567 -0.4617 -1.1800
  121OSM    H1T12755   1.338   5.715   6.361 -0.8831 -1.3158 -0.1879
  121OSM     NF12756   1.525   5.730   6.592 -0.8493 -0.1544  0.2775
  121OSM    HNF12757   1.449   5.755   6.652 -0.1402 -1.7440  1.9682
  121OSM    C2S12758   1.525   5.793   6.464 -0.1931 -0.8577 -0.5775
  121OSM    H2S12759   1.629   5.806   6.427  0.2225 -2.3159  0.0128
  121OSM    C3S12760   1.451   5.934   6.459 -0.4038  0.0315 -0.3491
  121OSM    H3S12761   1.352   5.912   6.504  0.3469  0.7514  1.7740
  121OSM     O312762   1.421   5.994   6.336 -0.2881  0.2093 -0.2430
  121OSM    HO312763   1.445   5.915   6.287 -0.0422 -1.5563  2.5051
  121OSM    C4S12764   1.526   6.039   6.552  0.4076  0.5794  0.1616
  121OSM    H4S12765   1.502   6.019   6.657 -0.6235  1.2617  0.0717
  121OSM    C5S12766   1.613   6.136   6.520 -0.7608 -0.5330  0.5315
  121OSM    H5S12767   1.630   6.158   6.414 -0.3758 -3.4799 -0.0808
  121OSM    C6S12768   1.691   6.221   6.616  0.6309 -0.3667 -0.5633
  121OSM    H6S12769   1.654   6.325   6.605 -0.5773 -0.8186 -1.0122
  121OSM    H6T12770   1.801   6.208   6.608  0.6558  0.6008 -2.0468
  121OSM    C7S12771   1.657   6.183   6.760 -0.4711 -0.1476  0.4344
  121OSM    H7S12772   1.679   6.075   6.773  0.9709  0.0050 -0.4653
  121OSM    H7T12773   1.553   6.210   6.789 -0.4917  0.1630  0.0766
  121OSM    C8S12774   1.741   6.259   6.865 -0.3130  0.3081  0.0029
  121OSM    H8S12775   1.697   6.361   6.865 -0.9856  0.0433 -1.3826
  121OSM    H8T12776   1.845   6.263   6.826 -0.2251 -1.7905 -0.0877
  121OSM    C9S12777   1.718   6.194   7.002 -0.5530 -0.3851 -0.0368
  121OSM    H9S12778   1.776   6.100   7.004  2.3572  1.3249  0.9725
  121OSM    H9T12779   1.609   6.169   7.001 -1.5742  3.2560 -2.6274
  121OSM   C10S12780   1.755   6.286   7.122 -0.6857  0.1656  0.2830
  121OSM   H10S12781   1.730   6.393   7.111 -1.1221  0.0280 -0.1385
  121OSM   H10T12782   1.865   6.281   7.130 -0.5808  1.1745 -0.3404
  121OSM   C11S12783   1.674   6.244   7.247 -0.0718  0.0392  0.3390
  121OSM   H11S12784   1.686   6.138   7.277 -1.2108 -0.1036  0.3076
  121OSM   H11T12785   1.567   6.262   7.225 -0.4274 -1.1382  1.0603
  121OSM   C12S12786   1.710   6.334   7.366  0.7429 -0.0283 -0.1047
  121OSM   H12S12787   1.706   6.442   7.342  1.1363 -0.2695 -1.3140
  121OSM   H12T12788   1.816   6.310   7.389  0.2773 -2.0233  0.1231
  121OSM   C13S12789   1.624   6.295   7.489  0.5399 -0.5649 -0.5134
  121OSM   H13S12790   1.609   6.185   7.492 -1.2695 -0.4086 -1.9766
  121OSM   H13T12791   1.527   6.347   7.476  0.9756  0.0392 -1.4178
  121OSM   C14S12792   1.681   6.351   7.617  0.0462 -0.2949 -0.3350
  121OSM   H14S12793   1.663   6.460   7.622 -2.3625 -0.6672  0.7237
  121OSM   H14T12794   1.789   6.324   7.618  0.7501  2.0798 -2.5740
  121OSM   C15S12795   1.612   6.293   7.746 -0.9102 -0.2104 -0.2197
  121OSM   H15S12796   1.620   6.182   7.741 -0.0179 -0.2308  1.1261
  121OSM   H15T12797   1.505   6.321   7.746 -1.5125 -2.3043  0.0175
  121OSM   C16S12798   1.685   6.337   7.875 -0.1787 -0.1721  0.2216
  121OSM   H16S12799   1.672   6.446   7.887  0.4281  0.2355 -2.2400
  121OSM   H16T12800   1.795   6.324   7.867  0.2901  2.6556  0.9168
  121OSM   C17S12801   1.638   6.261   8.000 -0.5459  0.8012 -1.0757
  121OSM   H17S12802   1.667   6.154   7.992  1.4762  1.3393 -1.4871
  121OSM   H17T12803   1.527   6.275   7.997 -0.5854  0.4800 -3.1938
  121OSM   C18S12804   1.693   6.296   8.137 -0.3217 -0.2976 -0.2067
  121OSM   H18S12805   1.650   6.231   8.216 -1.8076  0.5575 -0.2693
  121OSM   H18T12806   1.671   6.401   8.167 -0.4907 -0.5931  0.7472
  121OSM   H18U12807   1.802   6.274   8.135 -0.4917 -1.2682  0.2754
  121OSM    C1F12808   1.600   5.622   6.620 -0.3289  0.0922  0.1218
  121OSM     OF12809   1.675   5.575   6.535 -0.1957 -0.0557 -0.0114
  121OSM    C2F12810   1.581   5.564   6.757 -1.1547  0.0359 -0.0445
  121OSM    H2F12811   1.478   5.591   6.790 -0.8465  0.3017  0.7089
  121OSM    H2G12812   1.657   5.598   6.830  1.0718 -3.0491 -0.7099
  121OSM    C3F12813   1.579   5.410   6.746  1.1870  0.7601 -0.0871
  121OSM    H3F12814   1.674   5.359   6.717 -0.1982 -2.2399  0.2714
  121OSM    H3G12815   1.497   5.379   6.677 -0.4678  1.5975  1.4403
  121OSM    C4F12816   1.557   5.347   6.887 -0.1267 -1.5784  0.1754
  121OSM    H4F12817   1.460   5.383   6.929 -0.4516 -2.5434  0.2670
  121OSM    H4G12818   1.635   5.385   6.956 -0.9490  0.1289  0.2362
  121OSM    C5F12819   1.540   5.199   6.891 -0.1326 -0.6553 -0.3063
  121OSM    H5F12820   1.591   5.164   6.799 -0.0922  2.3063 -1.5302
  121OSM    H5G12821   1.433   5.170   6.883 -0.2957 -0.4377  0.8097
  121OSM    C6F12822   1.610   5.138   7.007  0.3685  0.5426 -0.6968
  121OSM    H6F12823   1.718   5.162   7.006  0.4356  0.2499 -0.7738
  121OSM    H6G12824   1.615   5.028   6.993 -1.4306  0.5870 -2.0513
  121OSM    C7F12825   1.552   5.159   7.148  0.0382 -0.5462  0.4288
  121OSM    H7F12826   1.447   5.129   7.130 -0.1173  0.4052 -0.3137
  121OSM    H7G12827   1.540   5.269   7.160 -1.4348 -0.4016 -1.8095
  121OSM    C8F12828   1.629   5.094   7.262  0.2995 -0.1248 -0.3145
  121OSM    H8F12829   1.720   5.155   7.281  0.1110  0.3062 -0.7913
  121OSM    H8G12830   1.655   4.988   7.239  2.0449 -0.3229  2.1196
  121OSM    C9F12831   1.548   5.090   7.389 -0.8469 -0.4830 -0.1657
  121OSM    H9F12832   1.440   5.076   7.375 -0.6020 -1.3546 -1.3642
  121OSM   C10F12833   1.595   5.103   7.515 -0.2185 -0.1094  1.0844
  121OSM   H10F12834   1.525   5.094   7.599 -1.6156  2.5660  0.3119
  121OSM   C11F12835   1.744   5.112   7.560 -0.4167 -0.0466 -0.1293
  121OSM   H11F12836   1.777   5.217   7.578  0.3158  0.4532 -3.7553
  121OSM   H11G12837   1.818   5.072   7.489  0.0133 -0.6392  0.6343
  121OSM   C12F12838   1.780   5.020   7.682 -0.7958 -0.1097  0.9706
  121OSM   H12F12839   1.891   5.017   7.690 -0.4430  0.4255 -2.3384
  121OSM   H12G12840   1.758   4.914   7.655  0.6718 -0.5194  1.2817
  121OSM   C13F12841   1.719   5.070   7.810 -0.2113 -0.3472  0.7469
  121OSM   H13F12842   1.610   5.080   7.793  0.0148 -2.1910 -2.6374
  121OSM   H13G12843   1.774   5.163   7.834  0.0854 -0.4768  0.5728
  121OSM   C14F12844   1.754   4.976   7.925 -0.0269 -0.0877 -0.2189
  121OSM   H14F12845   1.724   5.029   8.018  0.8047  0.0247 -0.0070
  121OSM   H14G12846   1.864   4.968   7.928 -0.1211 -1.1184  1.0690
  121OSM   C15F12847   1.675   4.845   7.916  0.2055  0.5952 -0.4315
  121OSM   H15F12848   1.712   4.787   7.828 -0.1649  0.4944 -0.5218
  121OSM   H15G12849   1.568   4.875   7.915 -0.0646 -0.2253  1.2137
  121OSM   C16F12850   1.702   4.767   8.046 -0.2258 -0.6140 -0.1738
  121OSM   H16F12851   1.636   4.678   8.049 -0.3203 -0.5354  2.4376
  121OSM   H16G12852   1.679   4.838   8.129 -0.9761 -0.3300 -0.6067
  121OSM   C17F12853   1.839   4.706   8.057 -0.4985  0.4399 -0.1414
  121OSM   H17F12854   1.906   4.795   8.057  1.9651 -1.0850  4.3243
  121OSM   H17G12855   1.862   4.653   7.963 -2.8178  2.7979 -2.1866
  121OSM   C18F12856   1.854   4.635   8.190 -0.0270  0.3629 -0.1265
  121OSM   H18F12857   1.805   4.699   8.267  1.9750  1.7815  0.0331
  121OSM   H18G12858   1.962   4.619   8.213 -0.0449  1.0210  0.4458
  121OSM   H18H12859   1.789   4.545   8.200  1.9740 -0.9947  1.7781
  122OSM      N12860   0.752   6.528   6.098  0.0041  0.2545  0.3483
  122OSM    C1512861   0.853   6.513   6.206  0.6593  0.3179  0.7176
  122OSM   H15A12862   0.868   6.604   6.262 -0.9921 -1.1149  3.7818
  122OSM   H15B12863   0.949   6.480   6.168  0.2973 -0.6655  0.6163
  122OSM   H15C12864   0.828   6.436   6.279  2.2122 -1.2746 -0.3363
  122OSM    C1412865   0.790   6.656   6.031  0.4314 -0.4777  1.2155
  122OSM   H14A12866   0.758   6.680   5.931 -0.4172  1.6074  1.9290
  122OSM   H14B12867   0.897   6.671   6.029  0.0447  2.9204 -0.1787
  122OSM   H14C12868   0.752   6.736   6.093 -1.1813 -0.5261  0.3478
  122OSM    C1312869   0.758   6.414   6.003  0.1017 -0.1822 -0.0322
  122OSM   H13A12870   0.862   6.388   5.983  0.2050 -0.2522  0.5954
  122OSM   H13B12871   0.688   6.421   5.921  0.9302  2.1775 -0.6236
  122OSM   H13C12872   0.725   6.328   6.060  0.3066  0.0647  0.4550
  122OSM    C1212873   0.610   6.533   6.155  0.5589 -0.4957  0.2997
  122OSM   H12A12874   0.604   6.596   6.242 -0.4861 -3.2416  2.3463
  122OSM   H12B12875   0.588   6.437   6.200  0.8458 -1.1548 -0.9094
  122OSM    C1112876   0.495   6.581   6.053 -0.6965 -0.0646 -0.2427
  122OSM   H11A12877   0.396   6.561   6.099 -1.6107  3.6536 -0.2277
  122OSM   H11B12878   0.505   6.528   5.956  0.3949 -0.6634  0.1795
  122OSM      P12879   0.446   6.836   6.127 -0.0988 -0.2240  0.0489
  122OSM    O1312880   0.495   6.963   6.071  0.1342  0.3253  0.6796
  122OSM    O1412881   0.299   6.821   6.152 -0.3900  0.0838 -0.3012
  122OSM    O1112882   0.533   6.803   6.251 -0.4153  0.4617  0.3247
  122OSM    O1212883   0.497   6.724   6.032 -0.2586 -0.1107 -0.0516
  122OSM    C1S12884   0.511   6.865   6.371  0.1817 -0.9127 -0.0585
  122OSM    H1S12885   0.417   6.825   6.414  0.3746 -1.4129 -0.0953
  122OSM    H1T12886   0.501   6.976   6.365  1.0772 -0.4362  4.2976
  122OSM     NF12887   0.597   6.877   6.594 -0.1024  0.2533  0.4809
  122OSM    HNF12888   0.640   6.959   6.631  0.7304 -1.3840  3.5131
  122OSM    C2S12889   0.621   6.828   6.460  0.0424  0.0066  0.2519
  122OSM    H2S12890   0.628   6.717   6.465  0.7784  0.1113  1.8947
  122OSM    C3S12891   0.759   6.891   6.401  0.0817  0.1212  0.4548
  122OSM    H3S12892   0.746   6.999   6.378  0.6935 -0.3789 -2.7373
  122OSM     O312893   0.813   6.831   6.282 -0.0593  0.3825  0.1283
  122OSM    HO312894   0.737   6.816   6.225  1.8542 -1.4868 -2.1626
  122OSM    C4S12895   0.871   6.895   6.498 -0.2488  0.4346 -0.3035
  122OSM    H4S12896   0.851   6.972   6.574 -2.1740  0.4496 -0.7893
  122OSM    C5S12897   0.950   6.794   6.530 -0.8800 -0.4328  0.9466
  122OSM    H5S12898   0.945   6.700   6.473 -0.2202  0.0533  0.0619
  122OSM    C6S12899   1.049   6.793   6.641  0.0152 -0.5377  0.0149
  122OSM    H6S12900   1.135   6.854   6.605 -0.1309 -0.3074  0.0520
  122OSM    H6T12901   1.078   6.689   6.667  1.1198 -0.2999 -0.2224
  122OSM    C7S12902   0.999   6.865   6.773 -0.2585 -0.3537 -0.0166
  122OSM    H7S12903   0.921   6.810   6.829  0.1613  1.0998  2.1243
  122OSM    H7T12904   0.966   6.969   6.751  5.1940  1.8891  0.6281
  122OSM    C8S12905   1.119   6.878   6.868 -0.0978 -0.4373  0.2916
  122OSM    H8S12906   1.198   6.935   6.816 -0.5980 -0.5906 -0.6702
  122OSM    H8T12907   1.151   6.773   6.890 -0.8806 -0.7078  0.1698
  122OSM    C9S12908   1.089   6.936   7.010  0.2795  0.3710  0.1725
  122OSM    H9S12909   1.087   7.047   7.004  0.0781  0.4385  1.2893
  122OSM    H9T12910   1.178   6.912   7.070  0.8297 -0.7466 -1.0477
  122OSM   C10S12911   0.959   6.871   7.077  0.1031  0.1808  0.0709
  122OSM   H10S12912   0.986   6.768   7.045 -0.2697  0.2045 -0.3238
  122OSM   H10T12913   0.878   6.914   7.016  0.3096  1.2155  0.5070
  122OSM   C11S12914   0.936   6.895   7.226 -0.1352 -0.2778 -0.2171
  122OSM   H11S12915   0.906   7.002   7.237 -0.8103 -0.3987 -0.7751
  122OSM   H11T12916   1.025   6.897   7.292 -1.5006  1.6692  1.7200
  122OSM   C12S12917   0.833   6.799   7.269  0.6594 -0.1482 -0.6019
  122OSM   H12S12918   0.881   6.700   7.289 -0.6910 -0.6189  0.4477
  122OSM   H12T12919   0.760   6.773   7.188 -1.2578 -1.9303  1.5513
  122OSM   C13S12920   0.771   6.855   7.396 -0.9253 -0.1062 -0.6709
  122OSM   H13S12921   0.779   6.965   7.412 -1.9137 -0.2802  1.3191
  122OSM   H13T12922   0.835   6.798   7.466 -1.7483 -0.0257  0.1510
  122OSM   C14S12923   0.628   6.807   7.431  0.8107 -0.0831  0.3682
  122OSM   H14S12924   0.616   6.702   7.399  0.1334  0.2972 -0.6568
  122OSM   H14T12925   0.555   6.874   7.380 -0.7535 -0.0057  2.5643
  122OSM   C15S12926   0.588   6.811   7.580 -1.2959 -0.0265  0.7977
  122OSM   H15S12927   0.633   6.906   7.617 -0.0727  0.2410 -1.2679
  122OSM   H15T12928   0.646   6.728   7.626  1.2023 -0.0465 -2.0812
  122OSM   C16S12929   0.437   6.793   7.615  0.7361  0.0197  0.0372
  122OSM   H16S12930   0.385   6.880   7.570  2.4605  0.0599 -2.0290
  122OSM   H16T12931   0.430   6.808   7.725  2.0437 -1.4041  0.3523
  122OSM   C17S12932   0.379   6.658   7.572  0.0391  0.3078  0.6841
  122OSM   H17S12933   0.433   6.579   7.628 -0.2878 -0.0721  0.4667
  122OSM   H17T12934   0.402   6.650   7.464 -1.0670 -1.7635  0.5555
  122OSM   C18S12935   0.238   6.648   7.611 -0.6902 -0.0362  0.1861
  122OSM   H18S12936   0.170   6.707   7.546  1.6564 -0.0907 -2.4916
  122OSM   H18T12937   0.229   6.680   7.717  0.4530 -2.9823  1.2924
  122OSM   H18U12938   0.191   6.547   7.607 -0.0504 -0.3296  0.0036
  122OSM    C1F12939   0.520   6.809   6.679  0.2434 -0.1981 -0.1619
  122OSM     OF12940   0.458   6.707   6.639  0.4083 -0.1861  0.2546
  122OSM    C2F12941   0.497   6.867   6.818 -0.1122 -0.3988  0.6697
  122OSM    H2F12942   0.421   6.947   6.812  0.5403  0.1738 -0.3773
  122OSM    H2G12943   0.593   6.914   6.848  0.5483 -0.5477 -1.0769
  122OSM    C3F12944   0.458   6.751   6.911 -0.4563 -0.3443  0.5859
  122OSM    H3F12945   0.519   6.659   6.897 -2.0033 -1.4627  0.9162
  122OSM    H3G12946   0.362   6.706   6.878 -1.0348  0.5001  1.0835
  122OSM    C4F12947   0.447   6.793   7.058 -0.3634  0.1329 -0.5444
  122OSM    H4F12948   0.545   6.841   7.081 -0.3896  1.3544 -2.6617
  122OSM    H4G12949   0.450   6.697   7.113  0.9448  0.7618  0.5288
  122OSM    C5F12950   0.323   6.880   7.098 -0.3571  1.0932 -0.3318
  122OSM    H5F12951   0.311   6.960   7.023 -0.1184  0.7768 -0.7117
  122OSM    H5G12952   0.346   6.929   7.195  2.6673 -0.3022 -0.2389
  122OSM    C6F12953   0.189   6.796   7.102 -0.0486  0.2459  0.6975
  122OSM    H6F12954   0.143   6.788   7.001  0.8415  0.1009  0.2980
  122OSM    H6G12955   0.119   6.856   7.164 -0.5818  0.3039  0.0455
  122OSM    C7F12956   0.194   6.662   7.172 -0.4274 -0.3248  0.3279
  122OSM    H7F12957   0.223   6.677   7.278 -2.1948  0.0754  0.7911
  122OSM    H7G12958   0.257   6.591   7.113  0.4430 -0.3208  1.2321
  122OSM    C8F12959   0.053   6.607   7.175 -0.1183  0.1429  0.2911
  122OSM    H8F12960   0.053   6.497   7.194  0.4246  0.2913  1.2177
  122OSM    H8G12961   0.033   6.604   7.066  2.3767  0.7175 -0.2504
  122OSM    C9F12962  -0.049   6.677   7.260 -0.5036 -0.1111  0.1987
  122OSM    H9F12963  -0.054   6.786   7.255 -0.0821 -0.1177 -0.6128
  122OSM   C10F12964  -0.130   6.624   7.351  0.1419  0.5565  1.4408
  122OSM   H10F12965  -0.200   6.691   7.403 -0.1457  0.6607  0.9224
  122OSM   C11F12966  -0.151   6.478   7.379  0.2846  0.3357  0.7230
  122OSM   H11F12967  -0.147   6.411   7.290  2.1625 -1.7550  2.2670
  122OSM   H11G12968  -0.252   6.464   7.425  1.0442  0.4612  2.5164
  122OSM   C12F12969  -0.056   6.414   7.488 -0.1698  0.3916  0.0916
  122OSM   H12F12970   0.051   6.429   7.462  0.0568 -0.5917  0.4068
  122OSM   H12G12971  -0.078   6.306   7.478  0.5266  0.3958 -2.1486
  122OSM   C13F12972  -0.097   6.454   7.631  0.0498  0.5146  1.6528
  122OSM   H13F12973  -0.205   6.437   7.651  0.1262 -0.5307  1.1990
  122OSM   H13G12974  -0.075   6.563   7.631 -0.7025  0.6917 -0.0328
  122OSM   C14F12975  -0.023   6.366   7.737  0.6313 -0.2178 -1.1124
  122OSM   H14F12976   0.086   6.359   7.714  1.0865 -0.0404  0.7864
  122OSM   H14G12977  -0.056   6.263   7.715 -0.4888 -1.3377  4.2568
  122OSM   C15F12978  -0.053   6.399   7.885 -0.3848  0.4807  1.1786
  122OSM   H15F12979   0.004   6.324   7.945 -1.9349 -3.7208 -2.1241
  122OSM   H15G12980  -0.159   6.388   7.913 -0.7409  1.5780  0.3610
  122OSM   C16F12981  -0.012   6.541   7.908 -0.1722 -0.3025 -0.2490
  122OSM   H16F12982  -0.102   6.598   7.875 -1.4900 -1.6796  0.8210
  122OSM   H16G12983   0.070   6.553   7.834 -2.3912 -0.3989 -2.8588
  122OSM   C17F12984   0.040   6.575   8.052 -0.9066  0.3833  0.2842
  122OSM   H17F12985  -0.032   6.543   8.130 -1.1336 -0.8648 -0.4226
  122OSM   H17G12986   0.049   6.686   8.049 -0.7905  0.3506 -2.5334
  122OSM   C18F12987   0.179   6.513   8.091 -1.0656 -0.0807 -0.6173
  122OSM   H18F12988   0.249   6.544   8.011 -0.6464 -1.5599 -0.8542
  122OSM   H18G12989   0.184   6.402   8.082  2.4907 -0.1880  1.1803
  122OSM   H18H12990   0.205   6.541   8.195 -0.6598 -0.0631 -0.7222
  123OSM      N12991   4.834   2.695   6.271  0.7197 -0.4979  0.3533
  123OSM    C1512992   4.807   2.750   6.137 -0.0871  0.0917 -0.0075
  123OSM   H15A12993   4.717   2.707   6.095  0.9363  0.3670 -2.6853
  123OSM   H15B12994   4.885   2.731   6.064 -0.3876  0.6526 -0.4878
  123OSM   H15C12995   4.800   2.858   6.138  3.2729  0.5246 -2.9971
  123OSM    C1412996   4.870   2.548   6.257 -0.1891  0.2583 -0.3204
  123OSM   H14A12997   4.887   2.508   6.356  0.4389 -0.7366 -0.8115
  123OSM   H14B12998   4.965   2.540   6.207  0.6949 -3.4370  1.6092
  123OSM   H14C12999   4.797   2.483   6.210 -0.7043 -1.5519  2.7425
  123OSM    C1313000   4.942   2.782   6.323  0.1221  0.4050  0.0009
  123OSM   H13A13001   5.038   2.781   6.274 -0.3938  2.1998 -1.1523
  123OSM   H13B13002   4.951   2.757   6.428  0.2564 -1.1914 -0.3583
  123OSM   H13C13003   4.920   2.886   6.304  2.6036  0.6093 -2.2962
  123OSM    C1213004   4.707   2.720   6.348 -0.8730 -0.2870 -0.4467
  123OSM   H12A13005   4.626   2.667   6.301  0.8926 -1.5491 -2.2468
  123OSM   H12B13006   4.686   2.825   6.335  1.5134  0.2757 -0.2895
  123OSM    C1113007   4.707   2.696   6.506  0.5535 -0.1010  0.1484
  123OSM   H11A13008   4.752   2.595   6.513 -0.0326 -0.6242 -2.3963
  123OSM   H11B13009   4.607   2.682   6.550  0.0534 -1.9044 -1.4435
  123OSM      P13010   4.757   2.948   6.566 -0.4210  0.1082  0.2874
  123OSM    O1313011   4.885   3.024   6.562  0.5187  0.1997  0.3713
  123OSM    O1413012   4.652   2.973   6.465  0.3064  0.5110  0.0092
  123OSM    O1113013   4.686   2.982   6.702 -0.4443  0.3713  0.2076
  123OSM    O1213014   4.780   2.792   6.569 -0.5920  0.0919  0.4509
  123OSM    C1S13015   4.754   2.945   6.823 -0.2299 -0.1187  0.9125
  123OSM    H1S13016   4.839   3.011   6.852 -1.1284  0.3171  2.6913
  123OSM    H1T13017   4.796   2.843   6.815  0.2820  0.0981  0.7606
  123OSM     NF13018   4.733   2.910   7.077  0.0083  0.1835  0.5425
  123OSM    HNF13019   4.703   2.823   7.115  4.2979 -0.8779  2.0145
  123OSM    C2S13020   4.661   2.939   6.951 -0.6715 -0.1517 -0.9168
  123OSM    H2S13021   4.605   3.035   6.956 -1.1112 -0.4643  1.1845
  123OSM    C3S13022   4.542   2.833   6.917 -0.4421 -0.1104 -0.2387
  123OSM    H3S13023   4.599   2.738   6.919  3.1473  1.7992 -1.7903
  123OSM     O313024   4.475   2.850   6.793 -0.0070  0.4242 -0.0092
  123OSM    HO313025   4.549   2.885   6.743 -1.2259  1.4175 -1.1876
  123OSM    C4S13026   4.447   2.819   7.031  0.0639 -0.1769 -0.1282
  123OSM    H4S13027   4.478   2.735   7.094 -1.7511 -1.0207 -0.2909
  123OSM    C5S13028   4.336   2.895   7.045 -0.0927 -0.2825 -0.9194
  123OSM    H5S13029   4.324   2.970   6.966  1.0377  1.3974  0.4325
  123OSM    C6S13030   4.223   2.895   7.143 -0.3476  1.1946 -0.5629
  123OSM    H6S13031   4.126   2.875   7.092 -1.5684  1.7892  1.4381
  123OSM    H6T13032   4.203   2.994   7.190  0.0897  0.1644  1.9237
  123OSM    C7S13033   4.244   2.797   7.256  0.3461  0.1372  0.5506
  123OSM    H7S13034   4.344   2.810   7.302  0.2366 -1.7848  1.4377
  123OSM    H7T13035   4.236   2.687   7.243  0.7737  0.1857 -0.1383
  123OSM    C8S13036   4.149   2.816   7.375  0.4349  0.3243  0.1549
  123OSM    H8S13037   4.046   2.781   7.353  0.2962 -0.2637  1.6007
  123OSM    H8T13038   4.138   2.925   7.398 -1.6759  0.5942 -1.7641
  123OSM    C9S13039   4.209   2.748   7.499 -0.9201  0.2539  0.8330
  123OSM    H9S13040   4.301   2.809   7.514  0.5549 -1.1409 -1.9132
  123OSM    H9T13041   4.247   2.647   7.476  1.3923  1.3227 -0.3237
  123OSM   C10S13042   4.113   2.742   7.620 -0.6572 -0.7096  0.2399
  123OSM   H10S13043   4.021   2.691   7.584 -2.4237  1.4378  1.4702
  123OSM   H10T13044   4.089   2.847   7.646 -1.6883 -0.5922 -1.0477
  123OSM   C11S13045   4.178   2.666   7.732  0.6052 -0.1889 -0.9356
  123OSM   H11S13046   4.269   2.724   7.761 -1.1946  1.9292  0.7757
  123OSM   H11T13047   4.210   2.563   7.708 -1.0661 -1.2227  1.0503
  123OSM   C12S13048   4.084   2.645   7.857 -0.5794  0.2181  0.4554
  123OSM   H12S13049   4.109   2.548   7.905 -1.8459 -0.6324 -0.5546
  123OSM   H12T13050   3.981   2.625   7.822  0.5880 -3.8255 -1.1538
  123OSM   C13S13051   4.091   2.762   7.955  0.2980 -0.0663  0.0108
  123OSM   H13S13052   4.064   2.858   7.907  0.7136 -0.7146 -1.5669
  123OSM   H13T13053   4.193   2.765   8.000  0.2512 -2.0487  0.3693
  123OSM   C14S13054   3.984   2.735   8.065  0.0390 -0.2693 -0.1011
  123OSM   H14S13055   4.014   2.652   8.132 -4.2767 -1.0441  1.1673
  123OSM   H14T13056   3.895   2.699   8.008  1.2612  0.7425 -2.7897
  123OSM   C15S13057   3.944   2.855   8.156 -0.7455 -0.5152 -0.2949
  123OSM   H15S13058   3.850   2.833   8.210  0.3657  0.3221  2.1405
  123OSM   H15T13059   3.926   2.941   8.088 -0.9069  0.2695  0.7183
  123OSM   C16S13060   4.057   2.911   8.242  0.8797  0.3730 -0.9532
  123OSM   H16S13061   4.135   2.947   8.171  1.0794  0.5426 -0.6477
  123OSM   H16T13062   4.093   2.819   8.292  1.0585  0.0223 -1.7031
  123OSM   C17S13063   4.006   3.015   8.344  0.5010  0.0475 -0.1788
  123OSM   H17S13064   3.911   2.989   8.394  0.5105  2.1258  1.0425
  123OSM   H17T13065   3.972   3.101   8.283  0.4769  0.5304  0.5045
  123OSM   C18S13066   4.111   3.054   8.445  0.2839 -0.3199 -0.1886
  123OSM   H18S13067   4.184   3.128   8.406 -1.5080  2.0140  0.6809
  123OSM   H18T13068   4.158   2.966   8.494 -0.2978 -0.1133  0.7794
  123OSM   H18U13069   4.058   3.106   8.528  0.7391  0.9811 -0.6908
  123OSM    C1F13070   4.796   3.010   7.136 -0.4075 -0.1573  0.0215
  123OSM     OF13071   4.788   3.129   7.102 -0.2548  0.1279 -0.1159
  123OSM    C2F13072   4.879   2.975   7.254 -0.4584 -0.5530  0.2518
  123OSM    H2F13073   4.898   2.866   7.243  0.8790 -0.4381  1.1486
  123OSM    H2G13074   4.821   2.975   7.349 -1.2657 -0.1733 -0.2382
  123OSM    C3F13075   5.003   3.069   7.268 -0.2681  0.8036  0.2125
  123OSM    H3F13076   4.967   3.174   7.277  0.1606  0.9227  0.5314
  123OSM    H3G13077   5.068   3.076   7.178 -2.3993  0.9700 -1.4084
  123OSM    C4F13078   5.094   3.028   7.389 -0.1171 -0.8609 -0.2003
  123OSM    H4F13079   5.196   3.069   7.375 -0.3628 -0.5456 -1.1986
  123OSM    H4G13080   5.101   2.919   7.372  0.1259 -1.0538  1.0526
  123OSM    C5F13081   5.037   3.062   7.527  0.5477  1.4370  0.3502
  123OSM    H5F13082   4.927   3.050   7.525  0.6791  0.0522  0.5347
  123OSM    H5G13083   5.051   3.170   7.552  1.5782  1.3911  0.0182
  123OSM    C6F13084   5.090   2.986   7.646 -0.3492  0.3161 -0.4945
  123OSM    H6F13085   5.199   3.008   7.654 -0.2383  0.5432 -2.2787
  123OSM    H6G13086   5.064   2.879   7.633 -1.2585  0.4027  0.4930
  123OSM    C7F13087   5.014   3.019   7.774  0.5053 -0.0657 -0.0580
  123OSM    H7F13088   5.026   2.931   7.841  0.1920 -1.9519 -2.3669
  123OSM    H7G13089   4.908   3.033   7.744  1.3127  1.1476 -2.6333
  123OSM    C8F13090   5.055   3.150   7.846  0.3882  0.1828  0.5785
  123OSM    H8F13091   5.055   3.233   7.771 -0.7178 -1.5437 -1.4490
  123OSM    H8G13092   5.156   3.128   7.887 -0.7305 -4.1661  1.4484
  123OSM    C9F13093   4.966   3.184   7.958 -0.1311  0.1005 -0.3493
  123OSM    H9F13094   4.894   3.263   7.929 -1.0067 -0.6206 -0.1896
  123OSM   C10F13095   4.957   3.140   8.084  0.1734 -0.2711 -0.9573
  123OSM   H10F13096   4.873   3.185   8.139  0.6549  0.8559 -1.1050
  123OSM   C11F13097   5.042   3.036   8.149  0.4907  0.2584 -0.6745
  123OSM   H11F13098   5.140   3.007   8.106  0.5945 -0.4912  0.0500
  123OSM   H11G13099   4.985   2.942   8.137  0.8737 -0.4025  1.9444
  123OSM   C12F13100   5.086   3.056   8.300 -0.4045  0.2413  0.1980
  123OSM   H12F13101   4.991   3.087   8.349  0.3262  0.9974  1.1868
  123OSM   H12G13102   5.147   3.149   8.305 -1.0877  0.6053  3.1404
  123OSM   C13F13103   5.157   2.927   8.348 -0.1457  0.9923  0.9705
  123OSM   H13F13104   5.243   2.923   8.279  0.5310  0.6221  1.8156
  123OSM   H13G13105   5.099   2.835   8.324  0.1967  0.3466  2.5265
  123OSM   C14F13106   5.203   2.920   8.499  0.4873  0.0958  0.9027
  123OSM   H14F13107   5.272   3.006   8.510 -1.2804  1.4170  2.3376
  123OSM   H14G13108   5.260   2.826   8.516  0.2137 -0.4785 -1.0834
  123OSM   C15F13109   5.087   2.939   8.598  0.5938 -0.1974 -0.3647
  123OSM   H15F13110   5.032   3.028   8.563  2.6394  1.1173 -0.4209
  123OSM   H15G13111   5.133   2.975   8.692 -0.0387 -0.2474 -0.0336
  123OSM   C16F13112   5.000   2.817   8.637 -0.0528 -0.5185 -0.6448
  123OSM   H16F13113   4.955   2.780   8.542 -0.1963 -1.0433 -0.3807
  123OSM   H16G13114   4.919   2.863   8.699  0.6799 -0.9045  0.6471
  123OSM   C17F13115   5.081   2.708   8.712  0.5479  0.2645  0.1244
  123OSM   H17F13116   5.176   2.677   8.664  1.4530 -2.2976  3.2381
  123OSM   H17G13117   5.014   2.620   8.710 -0.2206  0.8383 -1.7971
  123OSM   C18F13118   5.122   2.735   8.859 -0.0931  0.6803 -0.6004
  123OSM   H18F13119   5.158   2.838   8.878  1.4308  0.2360 -0.8689
  123OSM   H18G13120   5.220   2.682   8.869  0.2093  0.5711 -3.2579
  123OSM   H18H13121   5.037   2.710   8.926 -0.9429  2.1158 -1.0988
  124OSM      N13122   5.984   0.214   6.186 -0.4480 -0.7645 -0.4229
  124OSM    C1513123   6.022   0.368   6.167  0.4452  0.0243  0.3225
  124OSM   H15A13124   6.003   0.418   6.261  1.6831 -2.6591  2.0847
  124OSM   H15B13125   5.964   0.419   6.090 -1.4846 -0.7036  1.2300
  124OSM   H15C13126   6.127   0.370   6.141  0.6479  1.3539  1.1671
  124OSM    C1413127   5.848   0.203   6.145  0.1721 -0.6206  0.1979
  124OSM   H14A13128   5.809   0.111   6.186  0.3231  0.2877  2.5630
  124OSM   H14B13129   5.844   0.208   6.037 -0.7832  0.0552  0.2577
  124OSM   H14C13130   5.780   0.279   6.180  0.8198 -1.6674  4.2147
  124OSM    C1313131   6.069   0.137   6.100 -0.3013 -0.1338 -0.0908
  124OSM   H13A13132   6.048   0.032   6.109 -0.5930 -0.3179 -2.3203
  124OSM   H13B13133   6.171   0.152   6.133 -0.2419 -0.8914  0.0792
  124OSM   H13C13134   6.057   0.169   5.998  0.2252 -3.7616 -1.4069
  124OSM    C1213135   6.010   0.162   6.329 -0.3144 -0.3262  0.0771
  124OSM   H12A13136   5.992   0.056   6.335 -1.3358 -0.2908 -1.6676
  124OSM   H12B13137   5.937   0.207   6.395 -1.7587 -0.2951 -1.4680
  124OSM    C1113138   6.145   0.195   6.399  0.2157  0.2199  0.4847
  124OSM   H11A13139   6.141   0.176   6.508  0.2055  2.3135  0.8883
  124OSM   H11B13140   6.161   0.305   6.403  4.1799 -0.1083 -1.3975
  124OSM      P13141   6.279  -0.020   6.341 -0.4989  0.1797  0.1554
  124OSM    O1313142   6.164  -0.090   6.285  0.3185 -0.4957  0.5632
  124OSM    O1413143   6.411  -0.056   6.281  0.0572 -0.2174  0.4712
  124OSM    O1113144   6.289  -0.053   6.496 -0.6841  0.3424 -0.8287
  124OSM    O1213145   6.259   0.139   6.341 -0.3204  0.0770 -0.7063
  124OSM    C1S13146   6.381   0.019   6.580 -0.2867 -0.1466 -0.0952
  124OSM    H1S13147   6.335   0.116   6.609 -0.2805  0.1468 -1.0343
  124OSM    H1T13148   6.475   0.047   6.527 -1.8401  2.1742 -1.8369
  124OSM     NF13149   6.495   0.014   6.808  0.0294  0.3837  0.6232
  124OSM    HNF13150   6.588  -0.017   6.823  0.2992 -0.5624 -2.2460
  124OSM    C2S13151   6.422  -0.061   6.704 -0.5597  0.3960  0.2113
  124OSM    H2S13152   6.335  -0.106   6.758  0.9141 -1.6755  0.9836
  124OSM    C3S13153   6.498  -0.188   6.655 -1.0143  0.5387  0.3530
  124OSM    H3S13154   6.592  -0.170   6.599  0.2023 -2.5378  1.2169
  124OSM     O313155   6.429  -0.285   6.574 -0.0101  0.0583  1.0931
  124OSM    HO313156   6.348  -0.239   6.549  0.1705 -0.2262 -0.0736
  124OSM    C4S13157   6.540  -0.265   6.783  0.3126  0.3353 -0.4139
  124OSM    H4S13158   6.647  -0.245   6.800  0.5338 -0.1869 -1.1329
  124OSM    C5S13159   6.465  -0.344   6.862  0.1638  0.0976 -0.5449
  124OSM    H5S13160   6.357  -0.351   6.841 -0.2149 -0.4800  1.4680
  124OSM    C6S13161   6.527  -0.401   6.985  0.6407 -0.0719  0.7706
  124OSM    H6S13162   6.482  -0.353   7.075 -0.0135  2.6293 -0.8991
  124OSM    H6T13163   6.638  -0.397   6.989  0.8003 -2.7617  0.8576
  124OSM    C7S13164   6.497  -0.552   6.987  0.8266  0.2822 -1.0315
  124OSM    H7S13165   6.563  -0.598   6.910  0.7993  0.4578 -1.1614
  124OSM    H7T13166   6.390  -0.576   6.973  0.4563  1.4114 -0.2521
  124OSM    C8S13167   6.530  -0.615   7.122  0.1939  0.5680  0.4137
  124OSM    H8S13168   6.633  -0.605   7.164  0.5645 -0.9065 -0.0859
  124OSM    H8T13169   6.520  -0.726   7.117 -0.0869  0.3808  3.4108
  124OSM    C9S13170   6.425  -0.577   7.235 -0.0495  0.9410 -0.8475
  124OSM    H9S13171   6.325  -0.598   7.192  0.6089  0.5515 -2.2206
  124OSM    H9T13172   6.437  -0.466   7.240  0.3665  0.9264 -1.4584
  124OSM   C10S13173   6.465  -0.644   7.371 -0.6019 -0.0733  0.5014
  124OSM   H10S13174   6.572  -0.622   7.392 -0.5017  0.2727 -0.3579
  124OSM   H10T13175   6.450  -0.754   7.368 -2.4662  0.0797  1.8248
  124OSM   C11S13176   6.397  -0.585   7.492  0.2863 -0.2074 -0.9992
  124OSM   H11S13177   6.286  -0.584   7.480  0.1167  1.0326  0.3288
  124OSM   H11T13178   6.416  -0.476   7.508 -0.4002 -0.4965  2.5891
  124OSM   C12S13179   6.444  -0.652   7.620  0.3658  0.1020 -0.4207
  124OSM   H12S13180   6.552  -0.628   7.637  0.5511 -0.4712 -0.7597
  124OSM   H12T13181   6.435  -0.762   7.611 -0.9029 -0.0232  1.6918
  124OSM   C13S13182   6.372  -0.611   7.748 -0.3016 -0.1631 -0.1661
  124OSM   H13S13183   6.265  -0.639   7.738 -0.2975 -1.4027  2.4607
  124OSM   H13T13184   6.377  -0.500   7.755 -1.1353  0.0143 -1.8049
  124OSM   C14S13185   6.433  -0.665   7.884  0.5723  0.2516  0.7997
  124OSM   H14S13186   6.541  -0.643   7.899  0.8616 -2.0040  2.6982
  124OSM   H14T13187   6.427  -0.776   7.877 -0.7781  0.3467  0.1948
  124OSM   C15S13188   6.360  -0.605   8.011 -0.1577  0.2460 -0.2214
  124OSM   H15S13189   6.253  -0.598   7.980 -0.7589 -2.5156  0.8927
  124OSM   H15T13190   6.393  -0.503   8.038  1.1964 -0.6077  1.5790
  124OSM   C16S13191   6.382  -0.702   8.134 -0.3109  0.4889  0.3030
  124OSM   H16S13192   6.485  -0.696   8.176 -0.0370  4.1471 -0.5278
  124OSM   H16T13193   6.376  -0.806   8.095  0.9206  0.1857  0.8686
  124OSM   C17S13194   6.273  -0.686   8.235 -0.3915  0.4445 -0.1518
  124OSM   H17S13195   6.180  -0.675   8.174 -1.4681  2.5898  1.7482
  124OSM   H17T13196   6.292  -0.592   8.290 -1.7371 -0.2066  1.5172
  124OSM   C18S13197   6.267  -0.790   8.347  0.2937 -0.0273 -0.3092
  124OSM   H18S13198   6.359  -0.769   8.406  1.3429 -0.7029 -1.6634
  124OSM   H18T13199   6.271  -0.895   8.314 -0.8946  0.1341 -1.0227
  124OSM   H18U13200   6.180  -0.756   8.408 -0.0279 -0.6195 -0.4340
  124OSM    C1F13201   6.448   0.124   6.871  0.2414  0.6747  0.3043
  124OSM     OF13202   6.324   0.146   6.867 -0.2966 -0.1278 -0.1422
  124OSM    C2F13203   6.540   0.214   6.948  1.2725  0.2108  0.0084
  124OSM    H2F13204   6.528   0.310   6.895  2.9422  1.0599  1.0677
  124OSM    H2G13205   6.646   0.180   6.943  1.8095  1.9407 -1.0801
  124OSM    C3F13206   6.497   0.230   7.102  0.5424 -0.5165 -0.6689
  124OSM    H3F13207   6.462   0.132   7.141 -2.7113 -0.0872 -2.1424
  124OSM    H3G13208   6.414   0.302   7.119  0.2451 -0.7531 -1.0888
  124OSM    C4F13209   6.611   0.294   7.190  0.6665 -0.5421  0.1668
  124OSM    H4F13210   6.641   0.386   7.135 -1.6106  0.0361 -0.2115
  124OSM    H4G13211   6.699   0.226   7.190  0.9787 -0.2525 -2.3765
  124OSM    C5F13212   6.570   0.319   7.335  0.9355 -0.3205  0.7504
  124OSM    H5F13213   6.509   0.412   7.338 -0.2753 -0.9399 -1.8526
  124OSM    H5G13214   6.665   0.355   7.380  0.7761  3.3577 -1.4351
  124OSM    C6F13215   6.497   0.205   7.404 -0.3383  0.3191  0.6635
  124OSM    H6F13216   6.561   0.114   7.404 -0.6299  0.1149  0.4913
  124OSM    H6G13217   6.404   0.189   7.346  1.4095  1.3017 -2.6995
  124OSM    C7F13218   6.462   0.230   7.557  0.3514 -0.6142  0.1489
  124OSM    H7F13219   6.408   0.326   7.543 -3.1623 -2.3428  0.6468
  124OSM    H7G13220   6.559   0.241   7.609  2.1423 -0.2070 -3.0059
  124OSM    C8F13221   6.363   0.138   7.628  0.1558  0.7597 -0.3516
  124OSM    H8F13222   6.268   0.141   7.570 -1.4031 -1.4339  1.8323
  124OSM    H8G13223   6.333   0.181   7.726  0.3425 -0.8793  0.4747
  124OSM    C9F13224   6.409  -0.007   7.639  0.2804  0.9664  0.7437
  124OSM    H9F13225   6.408  -0.075   7.552  1.0031  0.8036  0.8567
  124OSM   C10F13226   6.472  -0.057   7.744  0.4114  0.5441 -0.4799
  124OSM   H10F13227   6.494  -0.165   7.747  1.4117  0.7513 -0.1061
  124OSM   C11F13228   6.492   0.021   7.874  0.5922  0.1756 -0.8418
  124OSM   H11F13229   6.475   0.131   7.870  0.5265  0.2071  0.0581
  124OSM   H11G13230   6.597   0.018   7.910  0.3354  2.2471  0.1960
  124OSM   C12F13231   6.400  -0.039   7.981 -0.2101  0.1962 -0.2600
  124OSM   H12F13232   6.423  -0.146   7.998 -1.2636 -0.1585 -0.9362
  124OSM   H12G13233   6.291  -0.038   7.957 -0.1933 -0.9079 -0.4053
  124OSM   C13F13234   6.405   0.041   8.116  0.3778  0.6061  0.4058
  124OSM   H13F13235   6.354  -0.022   8.192 -1.1333 -1.0350 -1.8301
  124OSM   H13G13236   6.350   0.137   8.106  1.0720  0.9784  0.1301
  124OSM   C14F13237   6.542   0.089   8.156  0.3908 -0.7253 -0.8626
  124OSM   H14F13238   6.579   0.185   8.112 -2.4505  1.7818  1.7350
  124OSM   H14G13239   6.619   0.012   8.134  2.4653  1.5112 -1.9320
  124OSM   C15F13240   6.531   0.116   8.309  0.2102 -0.5382 -0.2389
  124OSM   H15F13241   6.507   0.016   8.352  1.7001 -0.9994 -0.4021
  124OSM   H15G13242   6.459   0.195   8.336  2.7800  1.8068  0.1905
  124OSM   C16F13243   6.668   0.154   8.370 -0.1817 -0.3394  0.1639
  124OSM   H16F13244   6.701   0.257   8.345 -0.5771  0.1658  1.6260
  124OSM   H16G13245   6.739   0.080   8.325 -0.7980 -1.0005  0.2649
  124OSM   C17F13246   6.659   0.143   8.520  0.0879 -0.0161  0.4876
  124OSM   H17F13247   6.642   0.039   8.555 -1.1467  0.9792  3.1253
  124OSM   H17G13248   6.579   0.205   8.567  0.1489  0.0355  0.5240
  124OSM   C18F13249   6.795   0.179   8.576 -0.5863  0.6080  0.5786
  124OSM   H18F13250   6.797   0.148   8.682  0.3342 -2.0303 -0.1452
  124OSM   H18G13251   6.817   0.288   8.564  0.4081  0.1696 -2.4668
  124OSM   H18H13252   6.880   0.119   8.536 -1.1240 -1.7711  2.7485
  125OSM      N13253   0.744   3.455   5.909 -0.2269  0.1261 -0.5746
  125OSM    C1513254   0.657   3.570   5.953  0.4006 -0.3905  0.0781
  125OSM   H15A13255   0.613   3.624   5.870  0.0806 -0.7084  0.0362
  125OSM   H15B13256   0.718   3.632   6.018 -1.7553 -0.5531  2.4030
  125OSM   H15C13257   0.581   3.538   6.022  2.7076  1.7254  3.9515
  125OSM    C1413258   0.671   3.357   5.817 -0.2632  0.5474 -0.5171
  125OSM   H14A13259   0.625   3.279   5.875  3.4206 -0.9424  0.7140
  125OSM   H14B13260   0.748   3.298   5.768  0.1638 -0.4214  1.2496
  125OSM   H14C13261   0.601   3.399   5.746  0.2293  0.3005 -1.1671
  125OSM    C1313262   0.857   3.497   5.823  0.0225  0.0312  0.1181
  125OSM   H13A13263   0.913   3.413   5.785  1.0087 -0.1820  1.9189
  125OSM   H13B13264   0.920   3.574   5.863 -1.3408  1.3617 -0.1979
  125OSM   H13C13265   0.797   3.546   5.747 -2.2030  0.0138  1.7690
  125OSM    C1213266   0.804   3.390   6.035 -0.3441  0.1215  0.1166
  125OSM   H12A13267   0.863   3.458   6.094 -3.7824  1.4975  2.2816
  125OSM   H12B13268   0.876   3.316   6.003  0.2822 -0.4025  2.5390
  125OSM    C1113269   0.712   3.319   6.140  0.4287  0.4348 -0.1798
  125OSM   H11A13270   0.782   3.258   6.201  0.7683  0.4721 -0.5260
  125OSM   H11B13271   0.643   3.246   6.091  0.7237  0.1145 -0.1277
  125OSM      P13272   0.726   3.513   6.318 -0.1345  0.4016 -0.3910
  125OSM    O1313273   0.841   3.573   6.243 -0.3235 -0.9401 -0.1336
  125OSM    O1413274   0.635   3.602   6.388  0.0128 -0.4732 -0.1890
  125OSM    O1113275   0.798   3.409   6.411 -0.1406  0.1325  0.0515
  125OSM    O1213276   0.647   3.423   6.216 -0.1303 -0.9322 -0.2300
  125OSM    C1S13277   0.878   3.433   6.524  0.3126  0.1311  0.0054
  125OSM    H1S13278   0.894   3.542   6.537  0.7927  0.2599 -1.4364
  125OSM    H1T13279   0.976   3.381   6.513  1.6722  2.3932  0.7426
  125OSM     NF13280   0.899   3.402   6.778 -0.3560 -0.3609  0.5294
  125OSM    HNF13281   0.979   3.341   6.777 -2.9559 -4.2953 -2.7953
  125OSM    C2S13282   0.814   3.377   6.660 -0.2907 -0.3232 -0.2046
  125OSM    H2S13283   0.711   3.417   6.674 -0.1494  0.2372 -0.6922
  125OSM    C3S13284   0.789   3.223   6.647  0.0981 -0.0703  1.0219
  125OSM    H3S13285   0.889   3.176   6.661  0.6927  0.6374 -0.6379
  125OSM     O313286   0.738   3.189   6.518  0.1188 -0.0328 -0.9250
  125OSM    HO313287   0.730   3.272   6.472 -0.0954 -0.0196 -0.8661
  125OSM    C4S13288   0.699   3.178   6.753 -0.7655  0.2061  0.2931
  125OSM    H4S13289   0.611   3.241   6.772 -3.1947 -2.7856 -0.2009
  125OSM    C5S13290   0.713   3.059   6.824  0.6685 -0.9082  0.3246
  125OSM    H5S13291   0.788   2.985   6.791  1.0226  0.0210 -1.0429
  125OSM    C6S13292   0.623   3.016   6.933  0.3251  0.5492 -0.5658
  125OSM    H6S13293   0.564   2.926   6.906 -2.3899  2.0102  0.1079
  125OSM    H6T13294   0.545   3.091   6.958 -2.7288 -2.3184 -0.9245
  125OSM    C7S13295   0.708   2.977   7.054  0.0195 -0.2585  0.1475
  125OSM    H7S13296   0.763   3.069   7.085  0.9597 -0.2877 -1.3577
  125OSM    H7T13297   0.778   2.893   7.036  1.2193  1.1161 -1.9273
  125OSM    C8S13298   0.627   2.956   7.181 -0.4647 -0.5334 -0.1269
  125OSM    H8S13299   0.558   2.869   7.172 -1.0698 -0.0783  0.0761
  125OSM    H8T13300   0.566   3.046   7.201  0.0466  0.1301 -1.4949
  125OSM    C9S13301   0.715   2.942   7.306  0.1222  0.0546  0.0714
  125OSM    H9S13302   0.786   3.026   7.315 -1.8355  1.7633  0.3560
  125OSM    H9T13303   0.770   2.846   7.308 -0.4245 -0.3393 -1.8051
  125OSM   C10S13304   0.624   2.936   7.434 -0.7069  0.4372 -0.0104
  125OSM   H10S13305   0.550   2.854   7.422  0.7372 -1.1746  1.4549
  125OSM   H10T13306   0.571   3.031   7.457  0.5975  1.3258 -0.5269
  125OSM   C11S13307   0.711   2.905   7.566  0.0749  0.1148  0.8754
  125OSM   H11S13308   0.774   2.995   7.581  0.4885  0.1401 -0.7952
  125OSM   H11T13309   0.768   2.810   7.554 -0.3798 -0.3750  2.3858
  125OSM   C12S13310   0.623   2.890   7.688  0.4025  0.3172 -0.3204
  125OSM   H12S13311   0.560   2.799   7.678  1.0691  0.0071 -2.0948
  125OSM   H12T13312   0.549   2.973   7.695 -0.3985 -0.4973  1.3868
  125OSM   C13S13313   0.694   2.892   7.826  0.3146  0.5978 -0.0101
  125OSM   H13S13314   0.741   2.991   7.845 -0.6384  1.1559 -0.5097
  125OSM   H13T13315   0.767   2.808   7.835 -0.6265 -0.2112  0.2368
  125OSM   C14S13316   0.585   2.889   7.936 -0.6727  0.7452  0.8432
  125OSM   H14S13317   0.560   2.785   7.964  0.8152  0.5416  1.4916
  125OSM   H14T13318   0.492   2.937   7.900  0.1420  2.0664  0.3994
  125OSM   C15S13319   0.622   2.965   8.064 -0.3481 -0.6039 -1.0024
  125OSM   H15S13320   0.593   3.072   8.062 -1.0355 -0.7835 -1.0295
  125OSM   H15T13321   0.731   2.955   8.078 -0.6027 -1.0052  1.0707
  125OSM   C16S13322   0.538   2.904   8.179 -0.2637  0.6729 -0.0523
  125OSM   H16S13323   0.566   2.798   8.195 -1.2985  0.4248  0.1573
  125OSM   H16T13324   0.428   2.909   8.163 -0.4189 -1.7727 -0.1442
  125OSM   C17S13325   0.576   2.966   8.322  0.4991  0.3932  0.5040
  125OSM   H17S13326   0.684   2.991   8.326  0.2257  2.0420 -1.1295
  125OSM   H17T13327   0.562   2.888   8.400  1.4549  0.4660  0.7617
  125OSM   C18S13328   0.491   3.088   8.349  0.7468 -0.0484 -0.5130
  125OSM   H18S13329   0.496   3.163   8.267 -0.3417 -0.2119 -0.7483
  125OSM   H18T13330   0.501   3.143   8.446 -2.3436  0.7796 -0.5455
  125OSM   H18U13331   0.388   3.046   8.360  0.4922  0.7488  0.3378
  125OSM    C1F13332   0.908   3.526   6.816  0.4246 -0.3006 -0.6176
  125OSM     OF13333   0.844   3.622   6.763 -0.0262 -0.0763 -0.1340
  125OSM    C2F13334   1.000   3.554   6.934 -0.3191 -0.1267  1.2915
  125OSM    H2F13335   1.104   3.564   6.898 -0.3269 -1.3215  0.8720
  125OSM    H2G13336   1.000   3.465   7.002  0.0936 -1.9732 -0.9941
  125OSM    C3F13337   0.966   3.687   7.004  0.7726 -0.1361 -0.4246
  125OSM    H3F13338   0.870   3.664   7.054  0.1777  0.6568 -1.1679
  125OSM    H3G13339   0.937   3.765   6.931 -2.0260  1.2530  1.9790
  125OSM    C4F13340   1.072   3.746   7.101 -0.1359  0.2655 -0.3109
  125OSM    H4F13341   1.050   3.854   7.110  0.7502  0.4156  0.2451
  125OSM    H4G13342   1.170   3.739   7.048  0.2116 -1.4768  0.4608
  125OSM    C5F13343   1.083   3.681   7.240  0.4447  0.0715 -0.0711
  125OSM    H5F13344   1.103   3.572   7.233 -1.3908 -0.2772 -0.3158
  125OSM    H5G13345   0.981   3.685   7.284 -0.5215  0.1428 -2.1974
  125OSM    C6F13346   1.186   3.757   7.331  0.4687 -0.8919  0.4051
  125OSM    H6F13347   1.164   3.865   7.345 -1.3479 -1.1360 -0.3056
  125OSM    H6G13348   1.278   3.752   7.269 -0.6086 -1.5292 -1.2386
  125OSM    C7F13349   1.201   3.684   7.465 -0.4461 -0.0474  0.1603
  125OSM    H7F13350   1.184   3.574   7.457 -0.6181 -0.1043  1.2028
  125OSM    H7G13351   1.115   3.709   7.530 -1.1670 -1.8355 -0.0547
  125OSM    C8F13352   1.329   3.720   7.541  0.8486 -0.2228 -0.4040
  125OSM    H8F13353   1.321   3.828   7.567 -0.2776 -1.1491  3.9009
  125OSM    H8G13354   1.417   3.702   7.476 -0.4372 -1.1427 -1.9351
  125OSM    C9F13355   1.355   3.632   7.661  0.3885 -0.0463 -0.3523
  125OSM    H9F13356   1.371   3.529   7.626 -2.3569 -0.9394  0.6684
  125OSM   C10F13357   1.350   3.661   7.790 -0.3101  0.3821 -0.0289
  125OSM   H10F13358   1.392   3.587   7.860  1.0540  2.0036  0.9406
  125OSM   C11F13359   1.320   3.794   7.846  0.6179  0.2859 -0.2319
  125OSM   H11F13360   1.257   3.781   7.937 -0.2438  1.5157 -0.6337
  125OSM   H11G13361   1.272   3.855   7.767  1.0271 -0.4940 -1.0977
  125OSM   C12F13362   1.445   3.881   7.894 -0.7462  0.3130  0.2264
  125OSM   H12F13363   1.489   3.834   7.985  1.5405 -0.8235 -1.3656
  125OSM   H12G13364   1.404   3.983   7.907 -0.8237  0.4652 -1.1145
  125OSM   C13F13365   1.561   3.874   7.796  0.3996 -0.3264 -0.2134
  125OSM   H13F13366   1.527   3.877   7.691  0.0071 -0.8484 -0.1058
  125OSM   H13G13367   1.611   3.777   7.813  1.1553  0.1617  0.4302
  125OSM   C14F13368   1.661   3.986   7.822 -0.4336 -0.0870  0.1009
  125OSM   H14F13369   1.687   3.996   7.929 -0.3044  0.9191 -0.0125
  125OSM   H14G13370   1.612   4.082   7.793 -2.6394 -1.3522 -0.5921
  125OSM   C15F13371   1.800   3.970   7.746 -0.2039 -0.2019  0.3568
  125OSM   H15F13372   1.779   3.976   7.637 -0.9950 -2.5494  0.3104
  125OSM   H15G13373   1.835   3.865   7.760  2.8899  0.8738  1.5893
  125OSM   C16F13374   1.911   4.076   7.789 -0.0347  0.1422  0.6088
  125OSM   H16F13375   1.984   4.089   7.706  2.1624 -0.1783  2.3947
  125OSM   H16G13376   1.976   4.033   7.868  1.4503 -0.1330 -0.6910
  125OSM   C17F13377   1.856   4.221   7.820  0.2520 -0.2994 -0.7007
  125OSM   H17F13378   1.833   4.226   7.928  2.8204 -2.2417  0.0396
  125OSM   H17G13379   1.762   4.230   7.760  0.7722  0.9805 -1.3658
  125OSM   C18F13380   1.947   4.341   7.797  0.1825 -0.5083  0.1329
  125OSM   H18F13381   1.912   4.434   7.847  1.0643  1.4215 -2.5850
  125OSM   H18G13382   1.954   4.364   7.689  3.7393 -1.7409 -0.0621
  125OSM   H18H13383   2.046   4.328   7.847 -0.2027 -0.3733  0.9333
  126OSM      N13384   5.447   3.337   6.806 -0.2582 -0.1903  0.8079
  126OSM    C1513385   5.330   3.241   6.829  0.0043 -0.4298  0.1471
  126OSM   H15A13386   5.242   3.260   6.769  0.4130  2.9701  0.4482
  126OSM   H15B13387   5.308   3.223   6.933 -1.3856 -2.5288 -0.4380
  126OSM   H15C13388   5.367   3.147   6.791  1.6840 -1.2776  3.4941
  126OSM    C1413389   5.490   3.323   6.666  0.8379 -0.0083  0.0563
  126OSM   H14A13390   5.573   3.387   6.641  0.4173  0.4739 -0.1325
  126OSM   H14B13391   5.414   3.349   6.593  2.9625  3.4568 -1.1409
  126OSM   H14C13392   5.527   3.222   6.655  0.1765 -0.2460 -0.0618
  126OSM    C1313393   5.393   3.479   6.829  0.6996 -0.2307  0.6168
  126OSM   H13A13394   5.321   3.503   6.752  1.5972 -1.1231 -0.5414
  126OSM   H13B13395   5.470   3.554   6.822  1.5550 -1.2049 -1.1581
  126OSM   H13C13396   5.330   3.482   6.917 -0.5516 -3.9292  0.0261
  126OSM    C1213397   5.562   3.311   6.900  0.2839  0.0607 -0.1168
  126OSM   H12A13398   5.535   3.348   6.998 -1.4174 -0.6137 -0.3006
  126OSM   H12B13399   5.648   3.365   6.861  1.6931 -0.8949  1.5554
  126OSM    C1113400   5.596   3.166   6.925  0.6956 -0.7681  0.0587
  126OSM   H11A13401   5.520   3.111   6.984  0.4431 -1.6927 -1.0940
  126OSM   H11B13402   5.691   3.152   6.980 -0.0114  0.0886  1.5785
  126OSM      P13403   5.550   2.960   6.762  0.0874 -0.3548  0.1616
  126OSM    O1313404   5.435   2.994   6.675 -0.0025  0.3424  0.0853
  126OSM    O1413405   5.653   2.869   6.711 -0.4461  0.4567 -0.1447
  126OSM    O1113406   5.494   2.898   6.890 -0.3494 -0.2710 -0.1885
  126OSM    O1213407   5.614   3.100   6.797 -0.2500 -0.5091  0.1674
  126OSM    C1S13408   5.521   2.766   6.941  0.3460 -0.0004 -0.3115
  126OSM    H1S13409   5.628   2.739   6.931 -0.2254 -4.0470  2.0949
  126OSM    H1T13410   5.471   2.685   6.883 -0.9096  1.7230 -1.7588
  126OSM     NF13411   5.545   2.624   7.135 -0.2106  0.6782 -0.7196
  126OSM    HNF13412   5.489   2.544   7.116  1.2364 -0.6313  0.2211
  126OSM    C2S13413   5.493   2.753   7.092  0.6560 -0.7482 -0.1478
  126OSM    H2S13414   5.539   2.838   7.147 -0.7096 -0.2316  0.2522
  126OSM    C3S13415   5.342   2.784   7.110  0.6260  0.7086  0.1750
  126OSM    H3S13416   5.290   2.709   7.047  2.1302  1.6759 -2.3733
  126OSM     O313417   5.297   2.912   7.059 -0.1582 -0.4995  0.3131
  126OSM    HO313418   5.377   2.942   7.015 -1.5749  1.3121 -1.2641
  126OSM    C4S13419   5.312   2.760   7.255  0.5092 -0.2720  0.2926
  126OSM    H4S13420   5.366   2.837   7.312  0.4956 -0.3941  0.4721
  126OSM    C5S13421   5.224   2.674   7.308  0.4706 -0.2463 -0.6580
  126OSM    H5S13422   5.158   2.614   7.243 -0.8746 -1.6034  1.8071
  126OSM    C6S13423   5.188   2.658   7.456 -0.1903  0.4024 -0.0902
  126OSM    H6S13424   5.183   2.550   7.484  2.8612 -0.2045 -1.4594
  126OSM    H6T13425   5.093   2.711   7.476 -0.6660 -0.4222 -0.0911
  126OSM    C7S13426   5.302   2.714   7.552  0.4256 -0.3689 -0.3455
  126OSM    H7S13427   5.326   2.822   7.539 -0.8287  0.1330  1.1324
  126OSM    H7T13428   5.398   2.660   7.536  0.5481  0.4527 -2.8834
  126OSM    C8S13429   5.251   2.694   7.698  0.8592  0.0147 -0.5263
  126OSM    H8S13430   5.246   2.584   7.713 -0.3197 -0.0123 -1.0218
  126OSM    H8T13431   5.146   2.727   7.708  0.9125  0.0554 -0.0816
  126OSM    C9S13432   5.340   2.758   7.808  0.9071  0.1539  0.3719
  126OSM    H9S13433   5.325   2.867   7.793  2.3485  0.6982  2.4463
  126OSM    H9T13434   5.450   2.743   7.807  0.9557  0.4676  0.7454
  126OSM   C10S13435   5.289   2.737   7.957 -0.7520 -0.8498  0.5205
  126OSM   H10S13436   5.178   2.737   7.963 -0.7294 -1.0444  0.9675
  126OSM   H10T13437   5.334   2.816   8.020  0.2449 -1.7142  0.9185
  126OSM   C11S13438   5.343   2.602   8.016  0.3029 -0.5962  0.4770
  126OSM   H11S13439   5.453   2.608   8.005  0.3472  0.3407  1.2644
  126OSM   H11T13440   5.297   2.522   7.955 -0.3007  1.4060 -1.8655
  126OSM   C12S13441   5.309   2.603   8.163 -0.0018  0.6193  0.3574
  126OSM   H12S13442   5.205   2.616   8.200  0.4225  1.8299  1.1899
  126OSM   H12T13443   5.356   2.686   8.219  0.1134 -0.4537  1.9269
  126OSM   C13S13444   5.368   2.473   8.222  0.0095 -0.3336  0.1045
  126OSM   H13S13445   5.480   2.473   8.219  0.0674 -0.4537  1.5786
  126OSM   H13T13446   5.324   2.383   8.177 -1.6759  0.1636  0.6966
  126OSM   C14S13447   5.336   2.463   8.376 -0.0354 -0.2684  0.4944
  126OSM   H14S13448   5.228   2.484   8.390  0.1094  1.4381 -0.5641
  126OSM   H14T13449   5.384   2.548   8.430  0.4822 -0.5560  0.4884
  126OSM   C15S13450   5.382   2.328   8.431  0.3720  0.7835  0.0289
  126OSM   H15S13451   5.331   2.249   8.372 -2.1296  2.9173 -0.9231
  126OSM   H15T13452   5.339   2.329   8.533 -0.2324 -4.0606  0.0233
  126OSM   C16S13453   5.536   2.302   8.436  0.3709  0.2498  0.0782
  126OSM   H16S13454   5.591   2.396   8.457 -0.3389  0.9716 -1.1424
  126OSM   H16T13455   5.569   2.273   8.334  0.3903  1.8024 -0.3875
  126OSM   C17S13456   5.580   2.201   8.542 -1.0851  0.3157 -0.4438
  126OSM   H17S13457   5.536   2.220   8.642 -1.4586 -1.1109 -0.3210
  126OSM   H17T13458   5.691   2.208   8.541 -0.8351 -2.5685 -0.2189
  126OSM   C18S13459   5.529   2.059   8.507  0.1951 -0.0858  0.1230
  126OSM   H18S13460   5.599   1.989   8.557 -0.8293 -2.5722 -1.7397
  126OSM   H18T13461   5.524   2.034   8.399 -1.9333  1.9396 -0.3320
  126OSM   H18U13462   5.430   2.044   8.555  0.3650  0.7663  0.7712
  126OSM    C1F13463   5.670   2.583   7.159 -0.4228 -0.1644  0.0387
  126OSM     OF13464   5.766   2.665   7.154  0.0777 -0.1932  0.0890
  126OSM    C2F13465   5.692   2.438   7.171 -0.1427 -0.1281 -0.1554
  126OSM    H2F13466   5.786   2.417   7.115 -0.6884 -1.6624 -0.5526
  126OSM    H2G13467   5.609   2.382   7.123  0.4625 -1.7068  0.5665
  126OSM    C3F13468   5.708   2.405   7.321 -0.6135  0.4892  0.4822
  126OSM    H3F13469   5.786   2.464   7.374  1.4588 -2.3826  0.8231
  126OSM    H3G13470   5.734   2.297   7.324  0.2475  0.7118  1.4177
  126OSM    C4F13471   5.578   2.430   7.396 -0.0154 -0.3795  0.3065
  126OSM    H4F13472   5.518   2.350   7.347 -0.3510  0.6596 -1.0161
  126OSM    H4G13473   5.514   2.516   7.369  0.7826  0.3410  0.6864
  126OSM    C5F13474   5.572   2.397   7.546 -0.5262 -0.4560  0.3079
  126OSM    H5F13475   5.464   2.376   7.564 -1.0368 -0.4171 -2.3964
  126OSM    H5G13476   5.603   2.482   7.611  0.0268 -0.4454  0.0297
  126OSM    C6F13477   5.659   2.281   7.583  0.4483 -0.0757 -0.5120
  126OSM    H6F13478   5.765   2.314   7.585  1.2392 -2.4793 -0.0377
  126OSM    H6G13479   5.656   2.197   7.510  0.2069 -0.6601  0.1689
  126OSM    C7F13480   5.625   2.230   7.729  0.1347 -0.3365  0.2417
  126OSM    H7F13481   5.695   2.148   7.756  2.9983  1.2235 -1.8722
  126OSM    H7G13482   5.521   2.191   7.727  0.1369 -0.4993  1.8783
  126OSM    C8F13483   5.634   2.336   7.839  0.8681  0.2776  0.3370
  126OSM    H8F13484   5.576   2.426   7.807  0.3037 -0.6038 -1.2399
  126OSM    H8G13485   5.734   2.383   7.837 -0.3758  3.1523 -0.0993
  126OSM    C9F13486   5.596   2.280   7.979 -0.0208 -0.1995  0.4015
  126OSM    H9F13487   5.489   2.280   8.003 -0.0624  0.2537  0.2215
  126OSM   C10F13488   5.678   2.224   8.067  0.7281  0.0186  0.0211
  126OSM   H10F13489   5.638   2.192   8.165 -0.5397 -0.0040 -0.4930
  126OSM   C11F13490   5.826   2.206   8.067 -0.0943  0.1072  0.9791
  126OSM   H11F13491   5.874   2.301   8.034  0.9185 -0.1402  1.6847
  126OSM   H11G13492   5.857   2.124   7.999 -0.0464  0.6849  0.2918
  126OSM   C12F13493   5.876   2.163   8.204  0.3030 -0.4973 -0.0918
  126OSM   H12F13494   5.981   2.131   8.188  1.1388  0.1171  3.4322
  126OSM   H12G13495   5.824   2.076   8.248  0.2817  0.1772  1.2643
  126OSM   C13F13496   5.873   2.276   8.313  0.4429  0.4709 -0.5988
  126OSM   H13F13497   5.768   2.299   8.339  0.6400 -0.4979  1.1906
  126OSM   H13G13498   5.908   2.374   8.274 -0.5914  1.1275  0.0582
  126OSM   C14F13499   5.965   2.244   8.430 -0.0683 -0.1112 -0.3402
  126OSM   H14F13500   6.054   2.187   8.396  0.5145 -0.5435  1.7473
  126OSM   H14G13501   5.917   2.176   8.504 -0.2328  0.2284 -0.1333
  126OSM   C15F13502   6.008   2.366   8.512 -0.5365 -0.0205  0.2471
  126OSM   H15F13503   6.057   2.452   8.462 -0.0743 -0.4327 -0.0210
  126OSM   H15G13504   6.070   2.337   8.599 -1.9756  2.0053  2.0514
  126OSM   C16F13505   5.886   2.431   8.583  0.2682 -0.5448 -0.2982
  126OSM   H16F13506   5.843   2.362   8.659 -0.5084  0.9795  0.7073
  126OSM   H16G13507   5.804   2.451   8.511 -0.3185 -3.9793 -0.7844
  126OSM   C17F13508   5.915   2.561   8.664  0.4152 -0.0443  0.0409
  126OSM   H17F13509   5.939   2.634   8.584  1.4202  1.0728  1.3272
  126OSM   H17G13510   6.004   2.539   8.726  0.5075 -1.0685 -0.4240
  126OSM   C18F13511   5.801   2.603   8.749  0.2366 -0.7860 -0.2923
  126OSM   H18F13512   5.816   2.697   8.806  2.4494 -0.7625 -0.8165
  126OSM   H18G13513   5.803   2.521   8.824  1.1196 -1.1932 -0.7415
  126OSM   H18H13514   5.708   2.607   8.688 -1.5626 -1.5800  2.2695
  127OSM      N13515   4.101   4.730   6.245  0.1039 -0.2297 -0.3635
  127OSM    C1513516   4.067   4.861   6.198 -0.4950 -0.1695 -0.6585
  127OSM   H15A13517   3.961   4.874   6.207 -0.6492 -1.5335 -0.2402
  127OSM   H15B13518   4.084   4.867   6.091 -2.7602 -3.6152 -1.3867
  127OSM   H15C13519   4.121   4.931   6.260  0.7887 -1.0500 -0.7430
  127OSM    C1413520   4.086   4.632   6.137 -0.3566  0.9174  0.1808
  127OSM   H14A13521   4.156   4.655   6.059 -1.8304 -1.3705 -1.9999
  127OSM   H14B13522   3.992   4.646   6.086 -0.4940  0.2649  0.2390
  127OSM   H14C13523   4.099   4.527   6.163  2.5922  0.8863 -1.0130
  127OSM    C1313524   4.239   4.725   6.296 -0.3371 -0.4649  0.2318
  127OSM   H13A13525   4.259   4.792   6.378 -0.1719 -0.7433  0.4209
  127OSM   H13B13526   4.307   4.756   6.218 -0.3420 -0.3957  0.2555
  127OSM   H13C13527   4.265   4.627   6.333  0.3577 -0.0738  0.7897
  127OSM    C1213528   4.007   4.686   6.356  0.1289 -0.1989 -1.1330
  127OSM   H12A13529   4.009   4.743   6.448  1.5251 -0.5807 -0.9086
  127OSM   H12B13530   4.050   4.592   6.387  0.4300 -0.2170 -1.6117
  127OSM    C1113531   3.859   4.659   6.304  0.7591 -0.2036  0.2121
  127OSM   H11A13532   3.801   4.614   6.387 -0.8976 -1.1596 -1.3777
  127OSM   H11B13533   3.848   4.585   6.223  0.9741 -0.1598  0.1421
  127OSM      P13534   3.735   4.880   6.374 -0.2857 -0.2016 -0.3075
  127OSM    O1313535   3.759   5.018   6.329 -0.5724  0.0306 -0.2333
  127OSM    O1413536   3.599   4.837   6.398  0.2868  0.3032  0.3305
  127OSM    O1113537   3.816   4.841   6.506  0.3293  0.4771 -0.6449
  127OSM    O1213538   3.799   4.783   6.260 -0.5224 -0.3555  0.8071
  127OSM    C1S13539   3.820   4.925   6.625  0.3242 -0.2473 -0.1609
  127OSM    H1S13540   3.800   5.034   6.614 -1.5602 -0.6917 -1.5358
  127OSM    H1T13541   3.925   4.905   6.653 -0.0659 -2.0138  0.1411
  127OSM     NF13542   3.734   4.986   6.838 -0.1924  0.2494 -0.0084
  127OSM    HNF13543   3.774   4.959   6.925  2.2248 -0.9845 -1.4038
  127OSM    C2S13544   3.714   4.889   6.738 -0.5408 -0.4715 -0.5340
  127OSM    H2S13545   3.611   4.886   6.695 -1.1212 -1.1141  0.8397
  127OSM    C3S13546   3.742   4.748   6.799  0.9817  0.1537  0.9053
  127OSM    H3S13547   3.841   4.736   6.849  1.4876 -1.0684 -0.3304
  127OSM     O313548   3.735   4.643   6.706  0.5102  0.1041 -0.0417
  127OSM    HO313549   3.716   4.691   6.625 -2.9997  0.4264  0.8160
  127OSM    C4S13550   3.633   4.719   6.900 -0.1753 -0.7630  0.5012
  127OSM    H4S13551   3.536   4.702   6.851  0.1920  0.0561 -0.5477
  127OSM    C5S13552   3.639   4.695   7.027  0.2848  0.0315  0.0569
  127OSM    H5S13553   3.736   4.700   7.078  0.1318  1.1644  0.2576
  127OSM    C6S13554   3.522   4.670   7.115  0.0155 -0.2309 -0.5267
  127OSM    H6S13555   3.520   4.563   7.148 -0.5063 -0.0259  0.1336
  127OSM    H6T13556   3.431   4.682   7.052  0.5049  1.0587 -1.0141
  127OSM    C7S13557   3.520   4.764   7.231  0.2283  0.1121  0.0425
  127OSM    H7S13558   3.529   4.870   7.200 -0.9927 -0.3134 -1.9350
  127OSM    H7T13559   3.610   4.751   7.295  0.4654  1.8216  0.1139
  127OSM    C8S13560   3.384   4.757   7.313 -1.0799  0.5283 -0.0954
  127OSM    H8S13561   3.382   4.673   7.385  3.9010  0.3149  0.1738
  127OSM    H8T13562   3.296   4.759   7.246  0.4053  0.7260 -2.1467
  127OSM    C9S13563   3.366   4.885   7.396 -0.0037  0.1302 -0.1921
  127OSM    H9S13564   3.263   4.889   7.437  0.5461  2.5767  1.1822
  127OSM    H9T13565   3.382   4.967   7.323  1.8108 -0.1351 -0.1448
  127OSM   C10S13566   3.471   4.901   7.508 -0.1345 -0.1528  0.5570
  127OSM   H10S13567   3.464   5.010   7.528  1.0747 -0.1385  0.9594
  127OSM   H10T13568   3.566   4.870   7.460  0.5746  1.3157  0.9600
  127OSM   C11S13569   3.435   4.826   7.625  0.5022 -0.3624 -0.4127
  127OSM   H11S13570   3.467   4.720   7.610 -1.1326 -0.6902 -2.0393
  127OSM   H11T13571   3.325   4.826   7.638  0.3711 -0.7820 -1.4282
  127OSM   C12S13572   3.488   4.879   7.759 -0.3657  0.1329  0.0015
  127OSM   H12S13573   3.452   4.984   7.770  1.3889  0.6179  1.5083
  127OSM   H12T13574   3.599   4.885   7.751 -0.0144  1.1638  3.7895
  127OSM   C13S13575   3.453   4.796   7.883 -0.1506 -0.7183 -0.1477
  127OSM   H13S13576   3.496   4.694   7.873  0.1191 -0.6050 -0.1488
  127OSM   H13T13577   3.342   4.797   7.889 -0.2370 -2.6204 -0.8910
  127OSM   C14S13578   3.495   4.867   8.010 -0.1371 -1.1658 -0.0282
  127OSM   H14S13579   3.452   4.969   8.004  0.8230 -0.6710  0.9534
  127OSM   H14T13580   3.606   4.874   8.013 -0.0625 -0.8530 -2.2223
  127OSM   C15S13581   3.441   4.795   8.136  0.5800 -0.1247 -0.2079
  127OSM   H15S13582   3.494   4.699   8.156  1.1144  0.4042  1.0077
  127OSM   H15T13583   3.336   4.761   8.121  0.2551 -0.3598  2.2346
  127OSM   C16S13584   3.447   4.880   8.265 -0.1659 -0.0646 -0.1562
  127OSM   H16S13585   3.370   4.960   8.257 -0.6183 -0.5121 -0.2556
  127OSM   H16T13586   3.545   4.933   8.272  0.8789 -2.1204  1.8799
  127OSM   C17S13587   3.432   4.802   8.400  0.6290 -0.1259 -0.0395
  127OSM   H17S13588   3.453   4.876   8.480 -2.5740  3.1570 -1.9321
  127OSM   H17T13589   3.509   4.722   8.405 -0.8436 -1.5328  3.0331
  127OSM   C18S13590   3.290   4.741   8.433  0.0974  0.8250  0.1557
  127OSM   H18S13591   3.256   4.669   8.355 -3.5725  0.3923  1.9525
  127OSM   H18T13592   3.213   4.821   8.435 -0.6576  0.3584 -3.2418
  127OSM   H18U13593   3.293   4.687   8.529  0.8377  2.2526  0.9661
  127OSM    C1F13594   3.684   5.106   6.826  0.0640 -0.0757 -0.6112
  127OSM     OF13595   3.625   5.138   6.725  0.0213 -0.3908  0.6951
  127OSM    C2F13596   3.679   5.194   6.944 -0.0450  0.0233 -0.2574
  127OSM    H2F13597   3.769   5.257   6.929 -0.4395  0.4960 -0.6593
  127OSM    H2G13598   3.684   5.143   7.043 -0.6241  0.6698  0.1133
  127OSM    C3F13599   3.568   5.295   6.944 -0.4556 -0.0085 -0.0809
  127OSM    H3F13600   3.471   5.246   6.969  0.2715 -0.7819  1.3141
  127OSM    H3G13601   3.563   5.327   6.838  0.4818 -2.2311 -0.8606
  127OSM    C4F13602   3.598   5.430   7.023  0.3567  0.6982  0.1770
  127OSM    H4F13603   3.705   5.452   7.008  0.1383  1.0043 -1.0666
  127OSM    H4G13604   3.584   5.423   7.133  0.5341  1.0007  0.2187
  127OSM    C5F13605   3.528   5.554   6.976  0.5274 -0.7310  0.1621
  127OSM    H5F13606   3.417   5.547   6.984  0.5822 -1.7386  0.0783
  127OSM    H5G13607   3.545   5.588   6.872  0.6351  1.1807  0.7622
  127OSM    C6F13608   3.571   5.676   7.051 -0.3142 -0.3147  0.0255
  127OSM    H6F13609   3.560   5.772   6.997 -1.1987  0.6026  1.7521
  127OSM    H6G13610   3.679   5.670   7.074  0.1771  3.7640 -0.5779
  127OSM    C7F13611   3.500   5.688   7.192 -0.6401  0.3281 -0.3438
  127OSM    H7F13612   3.556   5.616   7.256 -0.3002  0.7055 -0.2120
  127OSM    H7G13613   3.394   5.657   7.183 -0.7447  0.8363 -0.9054
  127OSM    C8F13614   3.504   5.835   7.252 -0.5973  0.3835 -0.5513
  127OSM    H8F13615   3.432   5.842   7.336  0.5621  0.4582  0.4600
  127OSM    H8G13616   3.465   5.907   7.178  1.5805  2.9166  0.5920
  127OSM    C9F13617   3.636   5.889   7.303 -0.6049  0.0682  0.4054
  127OSM    H9F13618   3.709   5.937   7.236  0.1008 -1.1892  0.2616
  127OSM   C10F13619   3.678   5.874   7.429 -0.5543 -0.0532 -0.1725
  127OSM   H10F13620   3.777   5.903   7.466 -1.0379 -1.0339  2.0617
  127OSM   C11F13621   3.609   5.791   7.531 -0.1996  0.4575  0.2782
  127OSM   H11F13622   3.685   5.717   7.565 -0.6475 -0.4880 -0.7350
  127OSM   H11G13623   3.525   5.727   7.498 -1.1282  0.4908  2.4193
  127OSM   C12F13624   3.570   5.877   7.659 -0.9365 -0.0589 -0.1230
  127OSM   H12F13625   3.533   5.796   7.725  1.1793 -0.0516  1.1776
  127OSM   H12G13626   3.497   5.954   7.627 -0.1450 -0.5787 -3.5555
  127OSM   C13F13627   3.694   5.942   7.724  0.0699  0.0305  0.1948
  127OSM   H13F13628   3.735   6.001   7.639 -1.0936 -0.2826 -0.6043
  127OSM   H13G13629   3.767   5.863   7.755  0.8416  0.7947  0.3612
  127OSM   C14F13630   3.644   6.035   7.839 -0.0725 -0.5717 -0.7984
  127OSM   H14F13631   3.572   5.970   7.893 -1.6572 -0.1841 -2.3397
  127OSM   H14G13632   3.577   6.112   7.795  0.5104 -0.0800 -0.8370
  127OSM   C15F13633   3.755   6.089   7.930  0.2252  0.1045  0.1057
  127OSM   H15F13634   3.699   6.160   7.994  1.6894  1.0652  0.3636
  127OSM   H15G13635   3.840   6.136   7.878  0.5377  1.1519  1.5203
  127OSM   C16F13636   3.824   5.980   8.012 -0.5284  0.7129  0.0682
  127OSM   H16F13637   3.862   5.902   7.943  0.5806  1.0391  0.3041
  127OSM   H16G13638   3.750   5.924   8.075 -1.0030 -0.3813 -1.4074
  127OSM   C17F13639   3.933   6.038   8.100  0.4922  0.0454 -0.0160
  127OSM   H17F13640   3.887   6.116   8.164  2.4201  0.0072  1.5413
  127OSM   H17G13641   4.010   6.081   8.033  0.3957 -0.6606 -0.5837
  127OSM   C18F13642   3.995   5.932   8.189 -0.5607 -0.1380 -0.2038
  127OSM   H18F13643   4.009   5.837   8.132 -2.5033  0.1417 -1.2146
  127OSM   H18G13644   3.926   5.908   8.273 -0.4098 -2.0279 -0.5678
  127OSM   H18H13645   4.092   5.971   8.228 -1.0954  2.1476 -1.0207
  128OSM      N13646   4.067   1.477   6.169 -0.0377 -0.0060 -0.3688
  128OSM    C1513647   4.011   1.490   6.308 -0.1908  0.2311  0.2392
  128OSM   H15A13648   3.943   1.407   6.312  1.1984 -0.9142  1.0976
  128OSM   H15B13649   3.963   1.586   6.322 -0.5595  0.1081 -0.1759
  128OSM   H15C13650   4.086   1.480   6.385  0.3668 -4.5797 -0.6450
  128OSM    C1413651   4.136   1.603   6.154 -0.3189 -0.2304  0.8372
  128OSM   H14A13652   4.198   1.589   6.066 -1.1449 -0.7968  0.3354
  128OSM   H14B13653   4.203   1.627   6.236  1.3090 -0.4357 -0.3645
  128OSM   H14C13654   4.062   1.680   6.141 -2.5500 -2.5398 -1.2300
  128OSM    C1313655   4.158   1.364   6.157 -0.2751  0.4711  0.6797
  128OSM   H13A13656   4.186   1.350   6.053  0.2150 -2.6580  1.1355
  128OSM   H13B13657   4.109   1.276   6.196  0.4195  0.8518  2.5051
  128OSM   H13C13658   4.248   1.371   6.216  1.6062 -0.2295 -1.9287
  128OSM    C1213659   3.954   1.465   6.063 -0.8509  0.0852 -0.4316
  128OSM   H12A13660   3.996   1.480   5.965 -1.5868 -0.1461 -0.7823
  128OSM   H12B13661   3.881   1.541   6.090  0.0163  2.4410 -3.9667
  128OSM    C1113662   3.877   1.328   6.064  0.6822  0.5443  1.0377
  128OSM   H11A13663   3.949   1.250   6.029  0.8898  0.2205  2.1434
  128OSM   H11B13664   3.798   1.342   5.988  1.6826 -1.3759 -0.4516
  128OSM      P13665   3.845   1.164   6.262  0.0116 -0.0618  0.4674
  128OSM    O1313666   3.716   1.083   6.255  0.6707 -0.6844  0.3902
  128OSM    O1413667   3.968   1.100   6.206 -0.1853  0.2607 -0.2526
  128OSM    O1113668   3.872   1.199   6.419  0.2996 -0.2395  0.7181
  128OSM    O1213669   3.820   1.306   6.194  0.5233 -0.0508  0.5865
  128OSM    C1S13670   3.779   1.279   6.491 -0.1167  0.5624  0.1976
  128OSM    H1S13671   3.674   1.251   6.466 -0.4905  2.2503 -0.2900
  128OSM    H1T13672   3.794   1.384   6.457 -0.3246 -0.0597 -2.0001
  128OSM     NF13673   3.697   1.332   6.720 -0.4580 -0.3008  0.3783
  128OSM    HNF13674   3.726   1.421   6.753  0.4788 -1.1702  2.0148
  128OSM    C2S13675   3.804   1.270   6.645 -0.4423  0.0694  0.5645
  128OSM    H2S13676   3.810   1.162   6.669  1.5536  0.2438  1.0374
  128OSM    C3S13677   3.945   1.326   6.679  0.0913 -0.6787  0.3522
  128OSM    H3S13678   3.939   1.430   6.643 -0.4470 -0.5371  0.8228
  128OSM     O313679   4.052   1.270   6.610 -0.4243 -0.6575 -0.8758
  128OSM    HO313680   4.012   1.217   6.540  0.8945 -1.0918 -1.3408
  128OSM    C4S13681   3.971   1.328   6.834 -0.3937  0.3037  0.8146
  128OSM    H4S13682   4.001   1.228   6.870 -0.1360 -0.5165 -1.5497
  128OSM    C5S13683   3.968   1.428   6.920  0.1753  0.0773 -0.1635
  128OSM    H5S13684   3.941   1.529   6.886 -1.3517  0.8917  3.0500
  128OSM    C6S13685   3.996   1.417   7.060  0.1524  0.5143 -0.1597
  128OSM    H6S13686   3.899   1.447   7.105 -0.6026 -1.1956 -0.5457
  128OSM    H6T13687   4.074   1.492   7.086 -0.2844  0.6084  0.9770
  128OSM    C7S13688   4.040   1.285   7.128  0.3755 -0.0571 -0.3694
  128OSM    H7S13689   4.136   1.263   7.077  0.3173 -1.6745  0.1672
  128OSM    H7T13690   3.967   1.204   7.107  1.8686 -1.2474 -1.1444
  128OSM    C8S13691   4.051   1.294   7.280  0.3545 -1.6488 -0.4655
  128OSM    H8S13692   3.956   1.337   7.319  0.7388 -1.8093  0.6826
  128OSM    H8T13693   4.132   1.358   7.321 -0.0430 -2.8968  2.5150
  128OSM    C9S13694   4.068   1.152   7.335 -0.5095  0.1850  0.4053
  128OSM    H9S13695   4.155   1.102   7.286  0.1374  0.8529  0.8370
  128OSM    H9T13696   3.983   1.087   7.307 -1.4982  0.9218  1.6398
  128OSM   C10S13697   4.096   1.137   7.484  0.3141 -0.6212 -0.5404
  128OSM   H10S13698   4.187   1.191   7.516  0.2274  0.1450 -1.5279
  128OSM   H10T13699   4.120   1.029   7.489  1.8143 -0.3043 -0.5863
  128OSM   C11S13700   3.972   1.166   7.570  0.2406 -0.4647 -0.0869
  128OSM   H11S13701   3.888   1.101   7.537 -0.5716  0.7040 -0.3458
  128OSM   H11T13702   3.949   1.272   7.546 -1.2052 -1.0211 -1.3183
  128OSM   C12S13703   3.989   1.141   7.722  0.1012 -0.2094 -0.4654
  128OSM   H12S13704   4.051   1.051   7.741 -1.6576 -1.2647  0.5363
  128OSM   H12T13705   3.885   1.114   7.749  0.3738  0.6683  1.6997
  128OSM   C13S13706   4.022   1.261   7.812  0.4330  0.0671 -0.2209
  128OSM   H13S13707   3.946   1.342   7.806  0.9000  0.4504 -1.1528
  128OSM   H13T13708   4.117   1.308   7.779  0.5096 -0.2140 -0.4015
  128OSM   C14S13709   4.033   1.214   7.962  0.8468  0.7797  0.6419
  128OSM   H14S13710   4.113   1.138   7.974  1.1570  0.6055 -1.8290
  128OSM   H14T13711   3.936   1.166   7.986  1.2744  0.5317  1.9358
  128OSM   C15S13712   4.045   1.322   8.066  0.1703 -0.3929 -0.0590
  128OSM   H15S13713   3.973   1.403   8.042  0.2534 -0.5358 -0.8298
  128OSM   H15T13714   4.144   1.372   8.056 -1.3658  3.0922  0.5045
  128OSM   C16S13715   4.034   1.274   8.211 -0.6427  0.4497 -0.1864
  128OSM   H16S13716   4.121   1.205   8.223 -0.5857  0.7078  1.0651
  128OSM   H16T13717   3.945   1.214   8.237 -0.9240  1.9501  2.7389
  128OSM   C17S13718   4.025   1.387   8.314  0.3631 -0.3762 -0.1162
  128OSM   H17S13719   3.963   1.461   8.257 -0.5279 -0.3673  0.8414
  128OSM   H17T13720   4.126   1.430   8.331  1.4388 -1.9346 -2.0681
  128OSM   C18S13721   3.943   1.338   8.433 -0.3505 -0.1659 -0.4934
  128OSM   H18S13722   3.834   1.347   8.416 -0.2267 -1.4427 -2.3102
  128OSM   H18T13723   3.968   1.411   8.512  1.0465 -0.0487 -1.0092
  128OSM   H18U13724   3.959   1.234   8.468 -0.2156 -0.1592 -0.5341
  128OSM    C1F13725   3.579   1.280   6.728  1.1739 -0.4230  0.9356
  128OSM     OF13726   3.560   1.165   6.689  0.1405 -0.4357  0.6771
  128OSM    C2F13727   3.463   1.360   6.780 -0.0288 -0.7831  0.4326
  128OSM    H2F13728   3.376   1.343   6.712 -1.3631  0.2973  1.8071
  128OSM    H2G13729   3.474   1.470   6.775 -2.2982 -0.5281 -0.3285
  128OSM    C3F13730   3.416   1.315   6.926  0.3014 -0.7786  0.2732
  128OSM    H3F13731   3.498   1.339   6.997  1.6276  1.3124 -1.8335
  128OSM    H3G13732   3.393   1.206   6.923  0.4659 -0.8188  0.4422
  128OSM    C4F13733   3.290   1.386   6.979  0.1914 -0.0075 -0.0508
  128OSM    H4F13734   3.200   1.373   6.915 -0.4404  2.5949  0.1982
  128OSM    H4G13735   3.317   1.492   6.994 -0.1360  0.1991 -0.8973
  128OSM    C5F13736   3.255   1.334   7.123 -0.6516 -0.0653  0.1132
  128OSM    H5F13737   3.347   1.323   7.185 -0.9156  1.7412  0.8608
  128OSM    H5G13738   3.208   1.233   7.114  0.1397 -0.7844  2.9708
  128OSM    C6F13739   3.157   1.424   7.202  0.0489 -0.1792  0.6457
  128OSM    H6F13740   3.079   1.455   7.130  0.0094 -1.4170  0.1174
  128OSM    H6G13741   3.208   1.519   7.230  1.1784  0.6652 -3.5947
  128OSM    C7F13742   3.121   1.357   7.335  0.2033 -0.0635 -0.2540
  128OSM    H7F13743   3.206   1.359   7.406 -0.7983  1.0491  0.9857
  128OSM    H7G13744   3.093   1.252   7.315 -0.8264  0.2718 -0.6656
  128OSM    C8F13745   2.999   1.421   7.403  0.1675 -0.1240 -0.1004
  128OSM    H8F13746   2.911   1.419   7.335  0.7049  0.9057 -0.8548
  128OSM    H8G13747   3.010   1.531   7.416  0.2238 -0.3182  1.7795
  128OSM    C9F13748   2.964   1.350   7.532 -0.7701 -0.3044 -0.4744
  128OSM    H9F13749   2.921   1.249   7.524  0.5172 -0.7666 -1.6972
  128OSM   C10F13750   2.981   1.382   7.666  0.3776  0.2081  0.5084
  128OSM   H10F13751   2.939   1.315   7.743 -0.4744  1.3754  1.0938
  128OSM   C11F13752   3.041   1.508   7.715  0.2978  1.1139 -0.0060
  128OSM   H11F13753   2.961   1.580   7.743 -2.9323 -1.7481 -1.2562
  128OSM   H11G13754   3.088   1.565   7.632 -2.1464  2.2506 -0.7113
  128OSM   C12F13755   3.148   1.481   7.828 -0.0348  0.0568  0.3401
  128OSM   H12F13756   3.204   1.576   7.840 -0.2035  0.0530  1.2945
  128OSM   H12G13757   3.213   1.394   7.804  0.4960  0.8474 -1.2248
  128OSM   C13F13758   3.076   1.445   7.966 -0.6129  0.0236 -0.2451
  128OSM   H13F13759   3.019   1.350   7.959  2.9695 -2.5865  2.1189
  128OSM   H13G13760   3.008   1.527   7.999  3.0622  2.2229  2.8215
  128OSM   C14F13761   3.175   1.433   8.080  0.1072  0.0826  0.1001
  128OSM   H14F13762   3.205   1.532   8.120 -0.9138  0.4213  0.0415
  128OSM   H14G13763   3.275   1.394   8.048  0.1341 -0.6717  1.0526
  128OSM   C15F13764   3.115   1.362   8.207  0.0771  0.1265  0.3743
  128OSM   H15F13765   3.012   1.401   8.227 -0.0246  0.0985 -0.0850
  128OSM   H15G13766   3.182   1.387   8.292  1.5865  0.2407 -0.8052
  128OSM   C16F13767   3.123   1.210   8.193 -0.2141 -0.6184  0.2124
  128OSM   H16F13768   3.226   1.184   8.159  0.1334  0.2067  0.6146
  128OSM   H16G13769   3.066   1.181   8.102  0.3262 -1.3799  0.1077
  128OSM   C17F13770   3.075   1.131   8.317 -0.9769 -0.8245  0.6503
  128OSM   H17F13771   3.054   1.024   8.293  0.6250 -0.9875 -0.1741
  128OSM   H17G13772   2.982   1.185   8.345  0.1473  0.5184  1.9267
  128OSM   C18F13773   3.179   1.131   8.429 -0.6801 -0.6974 -1.0146
  128OSM   H18F13774   3.185   1.239   8.457 -1.4834 -1.2884  1.7012
  128OSM   H18G13775   3.271   1.083   8.390  0.2500  0.0703  0.1818
  128OSM   H18H13776   3.146   1.077   8.520  2.4119 -0.1011  0.5868
  129OSM      N13777   0.265   1.735   6.063 -0.1032 -0.1961 -0.3985
  129OSM    C1513778   0.228   1.665   6.187  0.0149  0.9222  0.0961
  129OSM   H15A13779   0.149   1.596   6.163 -1.6911  3.1917 -1.1169
  129OSM   H15B13780   0.208   1.728   6.273  0.7642  1.5233 -0.1576
  129OSM   H15C13781   0.309   1.596   6.210  0.2570  1.4709  0.9238
  129OSM    C1413782   0.301   1.635   5.956 -0.5437 -0.2920  0.5987
  129OSM   H14A13783   0.334   1.685   5.866  0.1584 -0.3695  0.8095
  129OSM   H14B13784   0.217   1.576   5.921  0.3254 -0.3660 -1.5238
  129OSM   H14C13785   0.382   1.572   5.988  1.3779  0.3286 -2.5641
  129OSM    C1313786   0.153   1.820   6.022 -0.0798 -0.4179  0.1516
  129OSM   H13A13787   0.116   1.872   6.109  0.4952 -2.1585  1.5040
  129OSM   H13B13788   0.068   1.772   5.978  0.4006 -1.7938  0.6597
  129OSM   H13C13789   0.180   1.892   5.945  0.5564  1.9477  2.4280
  129OSM    C1213790   0.376   1.830   6.098  0.5743  0.3728  0.0508
  129OSM   H12A13791   0.338   1.914   6.153 -1.3380 -1.7045  2.0736
  129OSM   H12B13792   0.414   1.877   6.008  0.4272  0.4354  0.0220
  129OSM    C1113793   0.503   1.774   6.174  0.3506 -0.1312 -1.1356
  129OSM   H11A13794   0.462   1.742   6.272 -0.0187 -0.7268 -1.4730
  129OSM   H11B13795   0.576   1.854   6.198 -0.4136 -0.3135  2.3085
  129OSM      P13796   0.623   1.545   6.159  0.4587 -0.1906 -0.3147
  129OSM    O1313797   0.568   1.425   6.088 -0.6034  0.1609  0.2710
  129OSM    O1413798   0.767   1.575   6.148  0.2381  0.0335  0.3388
  129OSM    O1113799   0.580   1.537   6.309 -0.1543 -0.2012 -0.1541
  129OSM    O1213800   0.564   1.670   6.098  0.2554 -0.6043 -0.3399
  129OSM    C1S13801   0.675   1.519   6.420 -0.3390 -0.5975 -0.6450
  129OSM    H1S13802   0.761   1.590   6.413  0.5385 -1.5617 -0.0360
  129OSM    H1T13803   0.722   1.419   6.406 -0.7025 -0.5130 -2.7230
  129OSM     NF13804   0.720   1.519   6.670 -0.5432 -0.6178  0.5799
  129OSM    HNF13805   0.731   1.427   6.707 -1.0138 -0.8997  0.0544
  129OSM    C2S13806   0.620   1.540   6.564  0.0707  0.8081  0.3032
  129OSM    H2S13807   0.592   1.648   6.563  2.8412  1.5987 -0.8434
  129OSM    C3S13808   0.489   1.455   6.584  0.1859 -0.3032  0.4476
  129OSM    H3S13809   0.524   1.350   6.596 -1.0234 -0.7826 -0.0451
  129OSM     O313810   0.400   1.461   6.470  0.3571  0.3616 -0.2128
  129OSM    HO313811   0.453   1.490   6.396 -0.5782  0.5165 -0.8398
  129OSM    C4S13812   0.408   1.499   6.704  0.3779  0.5059  0.1148
  129OSM    H4S13813   0.393   1.607   6.716 -1.1499  0.4558 -1.0733
  129OSM    C5S13814   0.362   1.420   6.806  0.4140 -0.2176 -0.7341
  129OSM    H5S13815   0.386   1.313   6.799 -1.8169 -0.8150  0.1928
  129OSM    C6S13816   0.278   1.463   6.926 -0.0961 -0.3086  0.1148
  129OSM    H6S13817   0.173   1.426   6.925 -0.2455  0.0875  0.5378
  129OSM    H6T13818   0.278   1.574   6.933 -0.8663 -0.3784  1.6529
  129OSM    C7S13819   0.341   1.414   7.063  0.6757 -0.2719 -0.4928
  129OSM    H7S13820   0.449   1.436   7.059  0.5873  0.0974 -0.8700
  129OSM    H7T13821   0.323   1.304   7.073  1.9042 -0.5020 -0.7416
  129OSM    C8S13822   0.286   1.490   7.184  0.2957  0.1930  0.0638
  129OSM    H8S13823   0.175   1.491   7.177  0.1602 -1.5381  1.3796
  129OSM    H8T13824   0.312   1.597   7.194  0.0707  0.4051 -1.3938
  129OSM    C9S13825   0.312   1.415   7.312 -0.3965 -0.1435  0.0774
  129OSM    H9S13826   0.421   1.430   7.329 -0.1779  1.4074 -2.1781
  129OSM    H9T13827   0.289   1.307   7.307 -2.2962  0.1878  0.7371
  129OSM   C10S13828   0.240   1.481   7.420  1.1586  0.0451 -0.2622
  129OSM   H10S13829   0.131   1.496   7.403  1.3333  1.6181 -0.1519
  129OSM   H10T13830   0.282   1.584   7.428 -2.5114  1.6239  0.9086
  129OSM   C11S13831   0.253   1.411   7.558 -0.8098 -0.4625 -0.0343
  129OSM   H11S13832   0.224   1.484   7.636 -1.7364 -2.9571  2.1047
  129OSM   H11T13833   0.358   1.378   7.573 -0.7094 -0.3231 -0.4159
  129OSM   C12S13834   0.161   1.295   7.588 -0.2999 -0.3939  0.0016
  129OSM   H12S13835   0.163   1.234   7.496  1.8922  1.0383 -0.9848
  129OSM   H12T13836   0.063   1.340   7.614  0.2628  0.2138  1.1541
  129OSM   C13S13837   0.204   1.206   7.701  0.1615  0.0020  0.7883
  129OSM   H13S13838   0.313   1.185   7.701  0.1803 -0.6955 -3.1005
  129OSM   H13T13839   0.149   1.109   7.696  0.7450 -0.2624 -1.0239
  129OSM   C14S13840   0.150   1.267   7.824  0.4623 -0.7789 -0.2013
  129OSM   H14S13841   0.039   1.260   7.828  0.4881 -0.8856  0.4558
  129OSM   H14T13842   0.185   1.372   7.821 -0.6350 -0.4191 -1.5551
  129OSM   C15S13843   0.197   1.196   7.951 -0.1718  0.9985 -0.0658
  129OSM   H15S13844   0.306   1.213   7.962  0.2976 -0.2550 -2.1952
  129OSM   H15T13845   0.198   1.086   7.940  3.0423  0.9237  0.1469
  129OSM   C16S13846   0.132   1.234   8.083  0.4756 -0.2632  0.2738
  129OSM   H16S13847   0.022   1.227   8.069  0.4097  2.1969 -0.9529
  129OSM   H16T13848   0.161   1.339   8.105 -0.7560  0.3401 -0.8066
  129OSM   C17S13849   0.181   1.154   8.206 -0.5593  0.0591 -0.2936
  129OSM   H17S13850   0.292   1.144   8.204 -0.3800  1.8250 -0.2221
  129OSM   H17T13851   0.147   1.048   8.197 -1.4366  0.4314 -1.6977
  129OSM   C18S13852   0.147   1.215   8.335  1.0223  0.4354  0.4263
  129OSM   H18S13853   0.200   1.311   8.353  2.0324 -0.0701  0.2198
  129OSM   H18T13854   0.164   1.154   8.425 -1.7734 -0.8792  0.1452
  129OSM   H18U13855   0.038   1.236   8.333  0.1400 -3.5133 -0.6209
  129OSM    C1F13856   0.828   1.607   6.675  1.0862  0.3172 -1.0334
  129OSM     OF13857   0.835   1.706   6.605  0.2679  0.3457  0.7685
  129OSM    C2F13858   0.954   1.570   6.761  1.5215  0.7712 -0.8928
  129OSM    H2F13859   1.036   1.621   6.706  0.1675  2.3439 -1.5458
  129OSM    H2G13860   0.970   1.460   6.761  0.9610  0.5774  2.5257
  129OSM    C3F13861   0.939   1.628   6.906 -0.2513  0.3577 -0.7241
  129OSM    H3F13862   0.927   1.737   6.888 -0.3638  0.3954 -0.4253
  129OSM    H3G13863   1.033   1.607   6.960 -0.4758  1.1659  0.0142
  129OSM    C4F13864   0.823   1.580   6.991  0.7766 -0.0205  0.8591
  129OSM    H4F13865   0.821   1.469   7.003 -0.8704 -0.6382 -3.1987
  129OSM    H4G13866   0.729   1.601   6.936  1.9172  0.4214 -1.0072
  129OSM    C5F13867   0.825   1.656   7.116 -0.3169  0.3008  0.1818
  129OSM    H5F13868   0.788   1.760   7.099 -1.3339 -0.1222 -0.2843
  129OSM    H5G13869   0.932   1.669   7.144  0.5841 -0.9342 -2.3490
  129OSM    C6F13870   0.729   1.599   7.228  0.0478  0.4283 -0.7022
  129OSM    H6F13871   0.743   1.489   7.239 -1.3656  0.1575 -1.3243
  129OSM    H6G13872   0.628   1.609   7.182 -0.3330 -4.1858 -1.4048
  129OSM    C7F13873   0.740   1.674   7.362  0.2679  0.2545 -0.0168
  129OSM    H7F13874   0.733   1.782   7.339 -4.3843 -0.1821 -1.7456
  129OSM    H7G13875   0.842   1.661   7.405  0.0707 -0.5123  0.2468
  129OSM    C8F13876   0.633   1.634   7.469  0.0447 -1.0507 -0.3166
  129OSM    H8F13877   0.544   1.603   7.410 -0.3012 -0.9018  0.1231
  129OSM    H8G13878   0.607   1.719   7.535 -0.5391 -0.4508 -1.2937
  129OSM    C9F13879   0.677   1.520   7.544 -0.3030  0.1375 -0.2692
  129OSM    H9F13880   0.716   1.439   7.481  0.7405  1.0391 -0.8237
  129OSM   C10F13881   0.661   1.493   7.678 -0.4690  0.3445 -0.2083
  129OSM   H10F13882   0.703   1.398   7.715  1.7000  0.8514 -1.2429
  129OSM   C11F13883   0.594   1.586   7.772 -0.4100 -0.0287  0.1668
  129OSM   H11F13884   0.552   1.681   7.733  0.0385  0.1195  0.0340
  129OSM   H11G13885   0.676   1.613   7.843 -0.7804  1.7166 -0.0334
  129OSM   C12F13886   0.489   1.524   7.868  0.3750  0.5368 -0.3296
  129OSM   H12F13887   0.518   1.422   7.902 -0.4036  0.7278  0.9827
  129OSM   H12G13888   0.395   1.514   7.810 -0.8157 -2.0700  1.7864
  129OSM   C13F13889   0.471   1.607   7.996 -0.3611 -0.0555 -0.1183
  129OSM   H13F13890   0.391   1.683   7.989  1.0526  1.4405 -0.5180
  129OSM   H13G13891   0.562   1.670   8.005 -1.5534  1.8151 -0.6062
  129OSM   C14F13892   0.449   1.529   8.126 -0.6142 -0.5967 -0.5585
  129OSM   H14F13893   0.520   1.445   8.140 -1.6166 -1.7225 -1.9389
  129OSM   H14G13894   0.345   1.490   8.126 -1.4987  1.5360 -2.5046
  129OSM   C15F13895   0.461   1.616   8.255  0.4807  1.5993  0.5192
  129OSM   H15F13896   0.393   1.704   8.249 -1.8184 -0.0927 -0.1118
  129OSM   H15G13897   0.568   1.631   8.280  1.3510 -2.4076 -0.0463
  129OSM   C16F13898   0.419   1.534   8.380  0.2120 -0.2647  0.0237
  129OSM   H16F13899   0.496   1.454   8.390 -1.7594 -2.0823  1.3238
  129OSM   H16G13900   0.324   1.479   8.363  0.0503  0.0962 -0.2586
  129OSM   C17F13901   0.413   1.615   8.512 -0.1269 -0.0324 -0.0017
  129OSM   H17F13902   0.321   1.676   8.513  0.3875  0.7576  0.9133
  129OSM   H17G13903   0.492   1.693   8.504  0.8762 -0.9369  0.7229
  129OSM   C18F13904   0.424   1.543   8.647  0.8225  0.2790  0.8121
  129OSM   H18F13905   0.526   1.504   8.671 -0.7967 -2.6497  3.7692
  129OSM   H18G13906   0.342   1.468   8.648  0.0138  1.1025 -0.9049
  129OSM   H18H13907   0.407   1.624   8.721  0.9310  1.4964 -0.4558
  130OSM      N13908   2.323   4.893   5.856 -0.9594 -0.1049 -0.8543
  130OSM    C1513909   2.293   4.821   5.728  0.5122  0.1144 -0.1493
  130OSM   H15A13910   2.337   4.862   5.638 -0.4571 -1.2029 -1.2615
  130OSM   H15B13911   2.187   4.821   5.709  0.0822 -0.7690  2.0150
  130OSM   H15C13912   2.312   4.716   5.741  0.7415  0.1685 -0.0529
  130OSM    C1413913   2.464   4.864   5.888 -0.6207  0.2239 -0.5928
  130OSM   H14A13914   2.499   4.921   5.973  0.9414  0.6615 -1.5039
  130OSM   H14B13915   2.529   4.888   5.806  1.6736 -1.8328  0.5312
  130OSM   H14C13916   2.481   4.760   5.911 -1.0726  0.5176  1.3145
  130OSM    C1313917   2.316   5.043   5.832  0.1581  0.0817 -0.0744
  130OSM   H13A13918   2.387   5.083   5.762 -0.1183  1.4629  0.4167
  130OSM   H13B13919   2.316   5.089   5.930  0.9813  0.6341 -0.3261
  130OSM   H13C13920   2.223   5.058   5.780  0.0747 -0.9897 -0.2678
  130OSM    C1213921   2.238   4.855   5.971  0.6412  0.4805  0.0662
  130OSM   H12A13922   2.215   4.749   5.970 -0.6191  0.7265 -2.3840
  130OSM   H12B13923   2.143   4.904   5.960 -1.3164 -2.6319  1.5715
  130OSM    C1113924   2.276   4.890   6.116 -0.1972 -0.0242  0.0145
  130OSM   H11A13925   2.365   4.829   6.143 -1.3418 -1.7653  0.0164
  130OSM   H11B13926   2.196   4.848   6.182 -0.4452 -0.7324 -0.7150
  130OSM      P13927   2.404   5.090   6.203 -0.2267  0.1632  0.5135
  130OSM    O1313928   2.531   5.022   6.169 -0.5177  0.0906  0.4273
  130OSM    O1413929   2.407   5.237   6.179 -0.2173  0.7125  0.2754
  130OSM    O1113930   2.380   5.065   6.355  0.0036  0.0777 -0.4110
  130OSM    O1213931   2.280   5.032   6.132 -0.4102 -0.0327  0.3017
  130OSM    C1S13932   2.308   5.166   6.428  0.0182  0.5981  1.3214
  130OSM    H1S13933   2.215   5.200   6.377 -0.1833  0.9862  1.9293
  130OSM    H1T13934   2.374   5.255   6.432  1.1809 -0.1308 -0.3848
  130OSM     NF13935   2.192   5.219   6.639  0.8945 -0.1136 -0.8800
  130OSM    HNF13936   2.244   5.292   6.683 -2.5531  1.7805  0.3695
  130OSM    C2S13937   2.282   5.120   6.576  0.5025  0.0317  0.3484
  130OSM    H2S13938   2.216   5.032   6.564 -0.0752  0.6290 -1.0132
  130OSM    C3S13939   2.413   5.088   6.643 -0.5881 -0.3971  0.2519
  130OSM    H3S13940   2.466   5.185   6.647 -3.0194  1.0034  2.6363
  130OSM     O313941   2.493   4.982   6.581  0.4827  0.5321 -0.5067
  130OSM    HO313942   2.486   5.007   6.489 -0.8388  2.3361  0.0115
  130OSM    C4S13943   2.388   5.054   6.791 -0.4897  0.2356  0.0378
  130OSM    H4S13944   2.389   5.146   6.851 -0.8161  0.1281  0.2094
  130OSM    C5S13945   2.365   4.933   6.849  0.3339  0.2702 -0.2100
  130OSM    H5S13946   2.362   4.841   6.788  2.1664 -0.5639  0.8792
  130OSM    C6S13947   2.343   4.910   6.993 -0.4830 -0.0223  0.8986
  130OSM    H6S13948   2.236   4.885   7.005 -1.0352  0.8118 -1.7425
  130OSM    H6T13949   2.359   4.991   7.066  1.9650 -1.0430  1.5983
  130OSM    C7S13950   2.430   4.796   7.045  0.3488 -0.4466 -0.0382
  130OSM    H7S13951   2.530   4.801   6.998  0.5665 -1.0703  0.3435
  130OSM    H7T13952   2.377   4.709   7.001  1.6531 -1.3843  0.2003
  130OSM    C8S13953   2.434   4.779   7.204 -0.0118  0.3165  0.8042
  130OSM    H8S13954   2.332   4.795   7.244 -0.3401  1.5700 -0.4450
  130OSM    H8T13955   2.488   4.873   7.233  3.5911 -0.6270 -2.0552
  130OSM    C9S13956   2.494   4.646   7.259  0.1142 -0.8209  0.3364
  130OSM    H9S13957   2.596   4.634   7.217 -0.4512 -1.4864 -0.9021
  130OSM    H9T13958   2.442   4.553   7.228  1.3034 -1.7721  1.1150
  130OSM   C10S13959   2.485   4.644   7.409  1.0329 -0.0087  0.5357
  130OSM   H10S13960   2.383   4.651   7.453  1.0954  1.1016  0.5410
  130OSM   H10T13961   2.539   4.736   7.442 -1.2484  1.5061  0.3016
  130OSM   C11S13962   2.568   4.533   7.468  0.4449  0.3433 -0.6336
  130OSM   H11S13963   2.677   4.545   7.449  0.3283  0.8302 -1.0445
  130OSM   H11T13964   2.535   4.441   7.416 -1.1408  0.1201  0.7006
  130OSM   C12S13965   2.549   4.504   7.611 -0.0985 -0.4423  0.1194
  130OSM   H12S13966   2.582   4.400   7.632  0.2891 -0.4975 -0.7246
  130OSM   H12T13967   2.442   4.512   7.639 -0.3103 -1.9920 -0.1646
  130OSM   C13S13968   2.631   4.604   7.694 -0.5408 -0.2598  0.5724
  130OSM   H13S13969   2.587   4.705   7.681 -0.4730 -0.2895  0.1052
  130OSM   H13T13970   2.732   4.612   7.649 -0.5585 -1.0878  0.3653
  130OSM   C14S13971   2.645   4.558   7.839  0.5835  0.5855  0.3265
  130OSM   H14S13972   2.708   4.628   7.897  0.7666  0.0554  0.7755
  130OSM   H14T13973   2.689   4.457   7.852 -1.4890 -0.0124  4.0821
  130OSM   C15S13974   2.512   4.552   7.906  0.8457  0.5142 -0.0393
  130OSM   H15S13975   2.449   4.474   7.858 -1.2861  2.1718 -0.1003
  130OSM   H15T13976   2.473   4.655   7.888  1.2001  0.4437 -1.2697
  130OSM   C16S13977   2.517   4.525   8.056 -0.7581 -0.3561 -0.3755
  130OSM   H16S13978   2.578   4.441   8.095 -3.4744 -0.6025  3.9025
  130OSM   H16T13979   2.415   4.501   8.091 -1.3129  0.2841 -1.4874
  130OSM   C17S13980   2.568   4.649   8.135  0.2338 -0.5754 -0.8047
  130OSM   H17S13981   2.500   4.734   8.111  2.3020  1.5411  0.3437
  130OSM   H17T13982   2.672   4.678   8.112  0.3102  0.6402  0.8207
  130OSM   C18S13983   2.565   4.632   8.291  0.1191 -0.1453  0.1004
  130OSM   H18S13984   2.461   4.619   8.329  0.2672 -0.8260  0.2944
  130OSM   H18T13985   2.604   4.722   8.343 -0.3649 -0.6140  1.3266
  130OSM   H18U13986   2.627   4.542   8.313 -1.8208 -1.4319  0.6170
  130OSM    C1F13987   2.063   5.236   6.624 -0.2831 -0.0029 -0.0283
  130OSM     OF13988   2.002   5.172   6.541  0.5269  0.0171 -0.0577
  130OSM    C2F13989   1.987   5.324   6.712  0.2850  0.3778  0.1950
  130OSM    H2F13990   1.903   5.369   6.655  1.2235  1.5319 -0.2999
  130OSM    H2G13991   2.043   5.410   6.754  0.4187  0.1004  0.5953
  130OSM    C3F13992   1.920   5.257   6.832  0.6537  0.0284 -0.3926
  130OSM    H3F13993   1.861   5.177   6.781  2.5632 -1.8269  0.1622
  130OSM    H3G13994   1.844   5.323   6.878 -1.0154 -1.4948 -0.8146
  130OSM    C4F13995   2.022   5.197   6.932  0.0695 -0.2921  0.2576
  130OSM    H4F13996   2.106   5.149   6.878  0.6847  0.4173  0.5773
  130OSM    H4G13997   1.984   5.116   6.998  0.3650 -0.2710  0.4530
  130OSM    C5F13998   2.084   5.294   7.027 -0.9574  0.2256 -0.4676
  130OSM    H5F13999   2.003   5.359   7.067 -2.0876 -0.0728 -2.1905
  130OSM    H5G14000   2.156   5.358   6.971 -0.8469  0.2446 -0.3056
  130OSM    C6F14001   2.169   5.231   7.145  0.5567 -0.0030  0.3396
  130OSM    H6F14002   2.214   5.318   7.197  0.0891  0.3446  0.1749
  130OSM    H6G14003   2.261   5.177   7.113  0.2742 -1.0069  1.1375
  130OSM    C7F14004   2.087   5.156   7.248  0.5767 -0.9039 -0.1646
  130OSM    H7F14005   2.023   5.073   7.211 -1.9597  1.3811 -1.2023
  130OSM    H7G14006   2.024   5.231   7.300  1.8561  0.3574 -0.3716
  130OSM    C8F14007   2.180   5.092   7.355  0.1607  0.7570 -0.3759
  130OSM    H8F14008   2.243   5.020   7.298 -0.6997  0.5103 -1.0473
  130OSM    H8G14009   2.113   5.031   7.420 -0.2626  0.0492 -1.4363
  130OSM    C9F14010   2.251   5.185   7.439 -0.3723  0.0345  0.0372
  130OSM    H9F14011   2.191   5.265   7.484  0.1877  0.9831 -0.8748
  130OSM   C10F14012   2.381   5.167   7.467 -0.3951 -1.0943  0.7583
  130OSM   H10F14013   2.429   5.241   7.533 -1.0487 -1.8441  2.0893
  130OSM   C11F14014   2.481   5.060   7.422  0.2309  0.1675  0.6161
  130OSM   H11F14015   2.521   5.064   7.319 -1.8419  1.9475 -0.2021
  130OSM   H11G14016   2.424   4.965   7.413  0.6415  0.1077 -2.2469
  130OSM   C12F14017   2.588   5.043   7.534  0.1876 -0.4289 -0.1188
  130OSM   H12F14018   2.643   5.139   7.546  0.2356 -0.4039 -0.5193
  130OSM   H12G14019   2.664   4.966   7.507  0.9469 -0.1021  0.9941
  130OSM   C13F14020   2.540   4.997   7.678  0.1935  0.0264 -0.4013
  130OSM   H13F14021   2.500   4.894   7.673  0.3835 -0.0295 -0.8520
  130OSM   H13G14022   2.447   5.051   7.703  0.7831  0.0207  2.0401
  130OSM   C14F14023   2.637   5.014   7.792 -0.5643  0.2548 -0.9583
  130OSM   H14F14024   2.708   5.096   7.767  1.5821 -1.6079 -1.2437
  130OSM   H14G14025   2.702   4.924   7.792  0.2908  0.7729  1.6681
  130OSM   C15F14026   2.567   5.035   7.924  0.0510  0.5865 -0.4140
  130OSM   H15F14027   2.506   4.946   7.950 -1.5576  1.4137 -1.1840
  130OSM   H15G14028   2.502   5.125   7.919 -1.4441 -0.5181 -1.9689
  130OSM   C16F14029   2.670   5.058   8.032  0.6563 -0.9166  0.1009
  130OSM   H16F14030   2.732   5.147   8.008  0.7548 -0.7431  0.9889
  130OSM   H16G14031   2.742   4.974   8.031  1.4890 -0.2253 -1.2535
  130OSM   C17F14032   2.613   5.062   8.171 -0.2324 -0.2166 -0.3150
  130OSM   H17F14033   2.605   4.959   8.211  1.3537 -0.9094 -1.6700
  130OSM   H17G14034   2.514   5.111   8.165 -1.7769 -1.7271  5.6992
  130OSM   C18F14035   2.698   5.148   8.271  0.1781 -0.3092  0.7163
  130OSM   H18F14036   2.650   5.246   8.292  1.0474  0.2763  0.0399
  130OSM   H18G14037   2.797   5.179   8.232 -0.4541  1.2486  0.2316
  130OSM   H18H14038   2.719   5.094   8.365  1.8837 -1.4408 -0.2779
  131OSM      N14039   3.740   3.840   6.053 -0.2700  0.6112 -0.0454
  131OSM    C1514040   3.783   3.955   5.970 -0.0716  0.5696 -0.5415
  131OSM   H15A14041   3.889   3.964   5.988 -0.3720  0.3717  1.5394
  131OSM   H15B14042   3.749   4.048   6.011  0.0714  0.9872 -1.3530
  131OSM   H15C14043   3.758   3.948   5.865  0.4831 -1.1718 -0.5952
  131OSM    C1414044   3.593   3.814   6.033 -0.1547 -0.2004  0.2837
  131OSM   H14A14045   3.527   3.889   6.075 -1.2547 -0.5805 -0.7458
  131OSM   H14B14046   3.569   3.718   6.074 -0.6340 -0.1320  0.1612
  131OSM   H14C14047   3.569   3.792   5.931 -0.8124 -0.3703  0.4697
  131OSM    C1314048   3.821   3.720   6.008  0.9946 -0.2981 -1.5491
  131OSM   H13A14049   3.810   3.626   6.059  1.7116 -0.0586 -0.9317
  131OSM   H13B14050   3.927   3.742   6.010  1.1131 -0.7176  1.1465
  131OSM   H13C14051   3.799   3.703   5.904  1.8199  0.6358 -1.8972
  131OSM    C1214052   3.776   3.865   6.204 -0.0853 -0.3666 -0.1256
  131OSM   H12A14053   3.882   3.877   6.222 -0.2232 -0.1025  0.5565
  131OSM   H12B14054   3.757   3.770   6.252 -2.5321 -0.1014 -0.4530
  131OSM    C1114055   3.692   3.967   6.287 -0.4147 -0.4338 -0.5098
  131OSM   H11A14056   3.733   3.968   6.390  3.0333 -0.0485 -1.7383
  131OSM   H11B14057   3.588   3.929   6.291  0.1078 -1.7878  1.4839
  131OSM      P14058   3.817   4.199   6.260 -0.7316  0.3188 -0.4773
  131OSM    O1314059   3.945   4.146   6.203 -0.8122  0.8111  0.3679
  131OSM    O1414060   3.764   4.324   6.194 -0.4110  0.4480  0.0230
  131OSM    O1114061   3.812   4.214   6.413 -0.6666 -0.0368 -0.0297
  131OSM    O1214062   3.704   4.098   6.230 -0.4588 -0.0599  0.2633
  131OSM    C1S14063   3.721   4.305   6.489 -1.3601 -0.5020  0.4798
  131OSM    H1S14064   3.618   4.285   6.454 -1.2342  1.0148 -0.8739
  131OSM    H1T14065   3.753   4.410   6.468  0.2413 -1.4835 -2.5928
  131OSM     NF14066   3.624   4.344   6.721 -0.4773  0.6525  0.2425
  131OSM    HNF14067   3.638   4.436   6.758  0.5902  0.1734  1.0779
  131OSM    C2S14068   3.730   4.282   6.644  0.1674 -0.1029 -0.2650
  131OSM    H2S14069   3.719   4.171   6.649  2.5991 -0.4169 -0.6972
  131OSM    C3S14070   3.870   4.319   6.686  0.0099  0.1363 -0.0318
  131OSM    H3S14071   3.889   4.425   6.658  0.4599  0.3414  1.0012
  131OSM     O314072   3.985   4.251   6.632  0.1708 -0.0267  0.2418
  131OSM    HO314073   3.944   4.194   6.566  2.8171 -2.7433  0.6968
  131OSM    C4S14074   3.878   4.293   6.835  0.2803 -0.5564 -0.3419
  131OSM    H4S14075   3.846   4.192   6.863 -0.7707 -0.2963 -0.5577
  131OSM    C5S14076   3.907   4.386   6.932 -0.0547 -0.2314 -0.4194
  131OSM    H5S14077   3.916   4.492   6.904  1.0462 -0.5470 -1.3628
  131OSM    C6S14078   3.903   4.351   7.076 -0.0432 -0.3990  0.2930
  131OSM    H6S14079   3.975   4.419   7.126 -0.0958 -0.2833  0.2113
  131OSM    H6T14080   3.945   4.252   7.103  0.1943  0.1940  2.2022
  131OSM    C7S14081   3.758   4.372   7.142  0.4463  0.1909 -0.7962
  131OSM    H7S14082   3.691   4.290   7.109 -0.2185  1.2517 -2.2233
  131OSM    H7T14083   3.718   4.471   7.110 -0.2934  0.9336  2.1297
  131OSM    C8S14084   3.751   4.365   7.294  0.2278 -1.1512 -0.0233
  131OSM    H8S14085   3.795   4.268   7.325 -0.0250 -1.3495 -0.2795
  131OSM    H8T14086   3.644   4.367   7.322 -0.3596  0.0900 -2.1238
  131OSM    C9S14087   3.823   4.483   7.374  0.2468  0.1000  0.9101
  131OSM    H9S14088   3.773   4.580   7.356  0.2752  0.1360  1.0210
  131OSM    H9T14089   3.933   4.485   7.359  0.4624  1.4597  2.3665
  131OSM   C10S14090   3.808   4.456   7.528  0.3665 -0.2588  0.9163
  131OSM   H10S14091   3.871   4.368   7.553 -1.3462 -2.3923 -1.7041
  131OSM   H10T14092   3.703   4.427   7.548  0.0778 -0.9790 -1.3201
  131OSM   C11S14093   3.837   4.586   7.610  0.0465 -0.1109 -0.0090
  131OSM   H11S14094   3.791   4.676   7.566  1.2579  0.4776 -0.1173
  131OSM   H11T14095   3.948   4.592   7.609  0.1063  0.3824  2.6326
  131OSM   C12S14096   3.801   4.552   7.753  0.8263  0.7370 -0.0260
  131OSM   H12S14097   3.850   4.461   7.794  0.1817  0.4794  0.1701
  131OSM   H12T14098   3.694   4.526   7.757  1.2024 -0.7983  0.7132
  131OSM   C13S14099   3.847   4.668   7.847  0.3299 -0.5794 -0.2753
  131OSM   H13S14100   3.796   4.764   7.824  0.7473  1.3590  5.2745
  131OSM   H13T14101   3.956   4.690   7.847  0.1709  0.3107  0.8758
  131OSM   C14S14102   3.812   4.627   7.990 -0.1974 -1.0228 -0.3368
  131OSM   H14S14103   3.856   4.530   8.022 -0.9524 -1.1293  0.4347
  131OSM   H14T14104   3.703   4.605   7.993 -0.1908 -1.3753 -1.8055
  131OSM   C15S14105   3.858   4.730   8.092  0.2652  0.3482 -0.3988
  131OSM   H15S14106   3.804   4.827   8.090 -0.7255  0.0793  3.6862
  131OSM   H15T14107   3.966   4.744   8.072  0.2563  1.5839  0.3317
  131OSM   C16S14108   3.852   4.694   8.244 -0.0902 -0.1398  0.6459
  131OSM   H16S14109   3.926   4.611   8.244 -0.6377 -0.6935 -1.6701
  131OSM   H16T14110   3.746   4.668   8.265 -0.2727  1.6871  2.1875
  131OSM   C17S14111   3.901   4.809   8.335 -0.4089  0.3510 -0.0564
  131OSM   H17S14112   3.836   4.897   8.316  2.4612  2.0843 -2.7210
  131OSM   H17T14113   4.007   4.842   8.330 -0.6138  0.9203 -0.7479
  131OSM   C18S14114   3.898   4.762   8.483 -0.3985  0.3661  0.4699
  131OSM   H18S14115   3.791   4.767   8.511 -0.9413 -1.2135 -1.1299
  131OSM   H18T14116   3.962   4.825   8.550 -0.6639  2.5486 -1.2164
  131OSM   H18U14117   3.931   4.656   8.491  1.1983  0.7392 -0.7633
  131OSM    C1F14118   3.501   4.307   6.706  0.5236  0.0998 -0.0237
  131OSM     OF14119   3.461   4.231   6.618 -0.4739  0.8557  0.1732
  131OSM    C2F14120   3.400   4.371   6.797 -0.6778  0.4277 -0.3226
  131OSM    H2F14121   3.353   4.464   6.756 -0.9995  0.8139  0.8876
  131OSM    H2G14122   3.458   4.409   6.884 -1.9821  1.9188 -0.0551
  131OSM    C3F14123   3.292   4.278   6.847 -0.6162 -0.2061 -0.8097
  131OSM    H3F14124   3.330   4.176   6.868 -1.2668 -0.9496 -3.0013
  131OSM    H3G14125   3.205   4.274   6.778 -0.5170  1.9519 -1.1552
  131OSM    C4F14126   3.220   4.324   6.974  0.2187 -0.3671 -0.1698
  131OSM    H4F14127   3.143   4.247   6.995 -0.2780  0.5293  1.4369
  131OSM    H4G14128   3.168   4.418   6.946  1.4436  0.6946  0.9886
  131OSM    C5F14129   3.307   4.362   7.097 -0.0576  0.7004 -0.5695
  131OSM    H5F14130   3.340   4.463   7.065 -3.5455  0.9964 -3.9875
  131OSM    H5G14131   3.403   4.306   7.095 -0.5602 -0.1640 -1.4900
  131OSM    C6F14132   3.243   4.344   7.228  0.4243 -0.2060 -1.0565
  131OSM    H6F14133   3.207   4.243   7.257 -0.2266  0.5733  1.0800
  131OSM    H6G14134   3.155   4.411   7.238  1.8879  2.0136 -2.2320
  131OSM    C7F14135   3.339   4.374   7.350 -0.1428  0.5013  0.5359
  131OSM    H7F14136   3.369   4.481   7.342 -0.4147  0.5822  0.5783
  131OSM    H7G14137   3.429   4.310   7.339 -0.2497  0.5883 -1.0679
  131OSM    C8F14138   3.272   4.347   7.488 -0.3315 -0.1536  0.5534
  131OSM    H8F14139   3.214   4.253   7.482  1.1369 -1.0203 -0.5812
  131OSM    H8G14140   3.195   4.425   7.510  2.2444  2.6209  0.3255
  131OSM    C9F14141   3.375   4.348   7.593 -0.1403  0.6199 -0.3141
  131OSM    H9F14142   3.479   4.336   7.560 -0.5287  0.4723 -1.5448
  131OSM   C10F14143   3.350   4.351   7.727  0.4411 -0.0177  0.2752
  131OSM   H10F14144   3.435   4.356   7.796 -0.0570 -1.5779  1.0588
  131OSM   C11F14145   3.212   4.373   7.784 -0.2281 -0.1481  0.1174
  131OSM   H11F14146   3.211   4.329   7.885  0.2394 -0.6874 -0.1099
  131OSM   H11G14147   3.125   4.332   7.729 -1.0861 -1.0400  2.0729
  131OSM   C12F14148   3.191   4.521   7.814 -0.5425  0.1489 -0.3010
  131OSM   H12F14149   3.166   4.581   7.723 -0.7688  0.7683  0.1584
  131OSM   H12G14150   3.290   4.554   7.852  0.3028 -0.8726 -1.5368
  131OSM   C13F14151   3.083   4.561   7.918 -0.0958 -0.0429  0.0609
  131OSM   H13F14152   2.992   4.511   7.878  0.9970 -1.0307 -1.2952
  131OSM   H13G14153   3.068   4.671   7.917  0.2779  0.0429 -2.8677
  131OSM   C14F14154   3.100   4.506   8.068  0.3414  0.4575  0.1880
  131OSM   H14F14155   3.195   4.544   8.111 -0.1029  1.1705  0.5601
  131OSM   H14G14156   3.104   4.395   8.075 -1.6154  0.2909 -0.8171
  131OSM   C15F14157   2.978   4.551   8.159  0.7425  0.1122  0.5319
  131OSM   H15F14158   2.887   4.560   8.096 -0.1331 -0.1426  1.7219
  131OSM   H15G14159   3.002   4.642   8.218 -1.8002  1.4521 -0.3481
  131OSM   C16F14160   2.939   4.447   8.262 -0.4877  0.4949 -0.6373
  131OSM   H16F14161   2.872   4.368   8.223 -1.8124  1.5448 -0.5859
  131OSM   H16G14162   2.876   4.485   8.345  1.6685  2.0104  0.4106
  131OSM   C17F14163   3.057   4.383   8.343  0.1665 -0.2707 -0.4536
  131OSM   H17F14164   3.125   4.463   8.380  0.4226 -1.1822  1.1271
  131OSM   H17G14165   3.115   4.327   8.267 -0.0401  0.4527 -1.1563
  131OSM   C18F14166   3.012   4.276   8.446 -0.0359 -0.3857  0.2928
  131OSM   H18F14167   2.930   4.322   8.506  0.0946 -1.4949  1.3481
  131OSM   H18G14168   3.094   4.244   8.513  1.8693  1.5914 -0.9405
  131OSM   H18H14169   2.967   4.185   8.400 -0.6341  0.4458 -0.8450
  132OSM      N14170   5.136   0.476   6.326 -0.7102 -0.2546 -0.3854
  132OSM    C1514171   5.277   0.467   6.380  0.0563 -0.4398  0.0913
  132OSM   H15A14172   5.303   0.547   6.447 -0.6257  1.0126 -1.2880
  132OSM   H15B14173   5.347   0.470   6.298 -0.6344 -4.1863 -0.8012
  132OSM   H15C14174   5.290   0.378   6.438  0.9972  0.4638  1.3102
  132OSM    C1414175   5.099   0.586   6.234  0.1465 -0.0910  0.6022
  132OSM   H14A14176   5.168   0.591   6.151 -0.4958  0.2448  0.0759
  132OSM   H14B14177   5.081   0.679   6.288 -0.9158 -0.4185  0.8474
  132OSM   H14C14178   5.007   0.569   6.180  0.0589 -2.2899  1.3381
  132OSM    C1314179   5.111   0.343   6.258 -0.5340 -0.0502  0.2460
  132OSM   H13A14180   5.160   0.323   6.164  2.5563 -2.8896  2.2546
  132OSM   H13B14181   5.008   0.315   6.240  0.7800 -3.6623 -3.0125
  132OSM   H13C14182   5.148   0.267   6.325 -0.4391 -0.2709 -0.0540
  132OSM    C1214183   5.048   0.476   6.448  0.0629 -0.1507 -0.3582
  132OSM   H12A14184   5.082   0.556   6.511 -1.8175  0.3713  0.0714
  132OSM   H12B14185   5.059   0.383   6.502 -0.5011  0.3191  0.5852
  132OSM    C1114186   4.902   0.505   6.418  0.6410 -1.3376  0.0900
  132OSM   H11A14187   4.887   0.593   6.352  0.5348 -0.4355  1.2970
  132OSM   H11B14188   4.853   0.532   6.514 -1.2538 -0.6828 -1.0173
  132OSM      P14189   4.790   0.275   6.454  0.2809 -0.2939 -0.4020
  132OSM    O1314190   4.671   0.215   6.385  0.5206 -0.7466  0.6702
  132OSM    O1414191   4.901   0.186   6.484  0.1599 -0.3018 -0.2445
  132OSM    O1114192   4.739   0.340   6.587  0.3915 -0.4550  0.0324
  132OSM    O1214193   4.836   0.393   6.365 -0.0620  0.2506  0.0564
  132OSM    C1S14194   4.788   0.315   6.714 -0.4560  0.1398  0.5241
  132OSM    H1S14195   4.888   0.363   6.716 -0.7242  0.7905 -0.5388
  132OSM    H1T14196   4.778   0.209   6.744 -3.4762  0.2766  0.3573
  132OSM     NF14197   4.773   0.449   6.937 -0.2496  0.3586 -0.1451
  132OSM    HNF14198   4.768   0.392   7.018  0.7273  1.2796  0.5879
  132OSM    C2S14199   4.703   0.393   6.821  0.6256 -0.3810  0.1812
  132OSM    H2S14200   4.666   0.488   6.777 -0.3143 -1.0036 -0.4215
  132OSM    C3S14201   4.581   0.307   6.859  0.3677 -0.2365 -0.0350
  132OSM    H3S14202   4.612   0.219   6.920  0.4359 -0.8405 -0.9253
  132OSM     O314203   4.515   0.240   6.751 -0.0832 -0.4888 -0.2348
  132OSM    HO314204   4.584   0.244   6.684  2.3518 -2.6189  1.9487
  132OSM    C4S14205   4.475   0.387   6.936  0.0751 -0.4330  0.3402
  132OSM    H4S14206   4.392   0.420   6.872 -0.5436 -1.2686  0.6928
  132OSM    C5S14207   4.461   0.370   7.069 -0.4803  0.6639  0.0405
  132OSM    H5S14208   4.535   0.304   7.115 -2.0023 -1.1483  0.0304
  132OSM    C6S14209   4.360   0.422   7.163  0.0944 -0.4899 -0.9942
  132OSM    H6S14210   4.263   0.370   7.149 -1.4967  1.2511  2.2236
  132OSM    H6T14211   4.342   0.532   7.161  0.0415 -0.4998 -1.0662
  132OSM    C7S14212   4.412   0.410   7.309 -0.4529  0.2226  0.1547
  132OSM    H7S14213   4.508   0.463   7.326  0.3754 -0.2324 -2.5975
  132OSM    H7T14214   4.425   0.302   7.333 -2.7071  0.3452  2.3313
  132OSM    C8S14215   4.312   0.452   7.413 -0.1589 -0.3695  0.3909
  132OSM    H8S14216   4.230   0.381   7.394  1.1526 -1.3581 -2.0017
  132OSM    H8T14217   4.282   0.558   7.397 -1.5667 -1.2606 -4.7114
  132OSM    C9S14218   4.372   0.432   7.553  0.6244 -0.1522  0.4179
  132OSM    H9S14219   4.470   0.482   7.573  0.8726 -0.3579 -0.2424
  132OSM    H9T14220   4.401   0.325   7.559  2.0309  0.2622  1.4269
  132OSM   C10S14221   4.275   0.471   7.668  0.2158  0.1496 -0.2809
  132OSM   H10S14222   4.176   0.423   7.653 -0.8318  1.8122  0.9778
  132OSM   H10T14223   4.254   0.578   7.649 -0.6733 -0.0927 -0.6800
  132OSM   C11S14224   4.339   0.452   7.806 -0.2448 -0.6527 -0.0015
  132OSM   H11S14225   4.435   0.508   7.800 -1.7269  1.9287 -4.4436
  132OSM   H11T14226   4.369   0.347   7.822  1.0701 -0.1796  0.8074
  132OSM   C12S14227   4.241   0.495   7.923  0.0792 -0.3723  0.4488
  132OSM   H12S14228   4.157   0.424   7.905  0.7027 -0.9481 -0.2596
  132OSM   H12T14229   4.204   0.598   7.901  0.6750 -0.1441  0.4933
  132OSM   C13S14230   4.312   0.477   8.060  0.5521 -0.2051 -0.3228
  132OSM   H13S14231   4.249   0.527   8.137 -0.1514  0.8637 -1.5552
  132OSM   H13T14232   4.405   0.536   8.050  0.4342  0.1307  0.4815
  132OSM   C14S14233   4.347   0.337   8.092  0.3458  0.1247 -0.2196
  132OSM   H14S14234   4.425   0.292   8.028  1.4680 -1.8580  2.3533
  132OSM   H14T14235   4.254   0.282   8.068  0.6048 -0.0694 -0.7843
  132OSM   C15S14236   4.386   0.310   8.237 -0.0181  0.1585 -0.1759
  132OSM   H15S14237   4.397   0.201   8.252 -1.3803 -0.1768 -1.3493
  132OSM   H15T14238   4.310   0.344   8.311  1.9891  3.0433  0.7593
  132OSM   C16S14239   4.518   0.380   8.274  0.2454 -0.1575 -0.2862
  132OSM   H16S14240   4.511   0.491   8.281 -0.6771 -0.1645 -0.9330
  132OSM   H16T14241   4.601   0.357   8.204  1.6545 -1.2078  1.6272
  132OSM   C17S14242   4.579   0.325   8.402 -0.3713 -0.5551 -0.7427
  132OSM   H17S14243   4.602   0.216   8.398 -0.9840 -0.7750  0.8995
  132OSM   H17T14244   4.507   0.347   8.484  0.8601  3.3776 -0.4924
  132OSM   C18S14245   4.718   0.387   8.432  0.2299 -0.0027  0.1636
  132OSM   H18S14246   4.793   0.366   8.353 -0.2876 -0.9367 -0.1014
  132OSM   H18T14247   4.764   0.348   8.526 -0.0916  2.0201  1.2049
  132OSM   H18U14248   4.706   0.495   8.451  0.0652  0.0375 -0.1778
  132OSM    C1F14249   4.879   0.528   6.923 -0.5390 -0.0640 -0.0277
  132OSM     OF14250   4.908   0.582   6.817  0.0780  0.3952  0.2142
  132OSM    C2F14251   4.979   0.530   7.037  0.0453 -0.3911 -0.4065
  132OSM    H2F14252   5.074   0.494   6.992 -0.8110 -3.2597 -0.1656
  132OSM    H2G14253   4.948   0.444   7.101 -0.9552 -1.8405 -2.7117
  132OSM    C3F14254   4.987   0.664   7.118  0.2159 -0.2175 -0.0611
  132OSM    H3F14255   4.885   0.672   7.161 -0.4665  0.6601 -1.7651
  132OSM    H3G14256   4.996   0.749   7.047 -2.1993 -1.4346 -1.9393
  132OSM    C4F14257   5.078   0.668   7.240 -0.5815  0.5987  0.2568
  132OSM    H4F14258   5.090   0.771   7.280  1.2782  1.1355 -1.5145
  132OSM    H4G14259   5.177   0.632   7.204  0.1605  1.6135  1.1877
  132OSM    C5F14260   5.036   0.576   7.354 -0.0625  0.9093 -0.5422
  132OSM    H5F14261   5.034   0.469   7.325 -1.8683  0.5123  0.8728
  132OSM    H5G14262   4.932   0.594   7.388  0.6055 -1.4322  3.4363
  132OSM    C6F14263   5.125   0.582   7.477 -1.1990  0.5270 -0.3882
  132OSM    H6F14264   5.151   0.688   7.496  0.6022  0.1309 -0.5190
  132OSM    H6G14265   5.223   0.535   7.454 -1.7611 -0.5770 -0.5781
  132OSM    C7F14266   5.050   0.512   7.595 -0.6275  0.1008  0.4247
  132OSM    H7F14267   5.034   0.405   7.569 -1.3312  0.1739  0.5248
  132OSM    H7G14268   4.957   0.573   7.598  0.6055  2.0745  0.0464
  132OSM    C8F14269   5.123   0.520   7.739  0.1499  0.5790  0.4577
  132OSM    H8F14270   5.234   0.517   7.745  0.1237  1.2333  1.5352
  132OSM    H8G14271   5.095   0.431   7.798  1.2234  0.3640  0.6571
  132OSM    C9F14272   5.094   0.652   7.810  0.3913  0.1768  0.2736
  132OSM    H9F14273   5.140   0.740   7.763  1.5022  1.0554  2.8698
  132OSM   C10F14274   5.017   0.673   7.918  0.2362  0.0594 -0.6495
  132OSM   H10F14275   5.012   0.775   7.959  0.5304  0.5558 -1.8084
  132OSM   C11F14276   4.942   0.573   7.997  0.1281  0.2011 -0.1860
  132OSM   H11F14277   4.990   0.473   8.005 -0.0355  0.2586  1.9721
  132OSM   H11G14278   4.853   0.543   7.937 -0.8294  1.2326  0.6827
  132OSM   C12F14279   4.918   0.612   8.145 -0.0719 -0.4933  0.0815
  132OSM   H12F14280   4.837   0.547   8.183 -1.0942  0.6471 -0.0659
  132OSM   H12G14281   4.867   0.707   8.173 -0.3442 -0.8938  0.9711
  132OSM   C13F14282   5.049   0.615   8.229 -0.4730 -0.3216 -0.4886
  132OSM   H13F14283   5.018   0.655   8.328  0.0127  2.4468 -1.3690
  132OSM   H13G14284   5.125   0.675   8.175 -0.6844 -0.6595 -1.1808
  132OSM   C14F14285   5.093   0.472   8.248  0.1438  0.0066 -0.2995
  132OSM   H14F14286   5.169   0.445   8.172 -0.1839  2.0080 -1.3845
  132OSM   H14G14287   5.007   0.402   8.250 -2.5269  3.0857  0.6971
  132OSM   C15F14288   5.167   0.458   8.388  0.4816 -0.1992  0.0025
  132OSM   H15F14289   5.225   0.363   8.392 -0.7647 -0.9783  0.3913
  132OSM   H15G14290   5.088   0.460   8.467  1.0725 -1.7006  0.6794
  132OSM   C16F14291   5.273   0.569   8.413 -0.1722  0.1782 -0.1231
  132OSM   H16F14292   5.237   0.672   8.436  0.6974 -0.0955  2.9687
  132OSM   H16G14293   5.342   0.582   8.327  0.8134  3.3611  0.9934
  132OSM   C17F14294   5.359   0.540   8.529  0.2859 -0.1469 -0.5849
  132OSM   H17F14295   5.436   0.619   8.533  1.0733 -0.8212 -1.7070
  132OSM   H17G14296   5.410   0.446   8.496 -0.8219 -0.0321 -2.7698
  132OSM   C18F14297   5.290   0.515   8.660  0.4082  0.4357  0.0700
  132OSM   H18F14298   5.302   0.596   8.735  1.7956 -0.7626  1.2153
  132OSM   H18G14299   5.333   0.427   8.713  1.1234  0.3252 -0.6701
  132OSM   H18H14300   5.183   0.492   8.643 -0.0969  1.2279  1.8937
  133SAPE     N14301   0.927   4.901  10.878 -0.1749  0.4214  0.1418
  133SAPE   HN114302   0.883   4.911  10.784 -1.4032 -0.2531  0.6288
  133SAPE   HN214303   1.027   4.921  10.857 -0.7099  1.9652 -1.1261
  133SAPE   HN314304   0.903   4.814  10.930 -0.8976  0.9644  0.7213
  133SAPE   C1214305   0.881   5.010  10.970  0.5237 -0.3475 -0.0681
  133SAPE  H12A14306   0.967   5.028  11.039 -0.7853  1.3884  1.1761
  133SAPE  H12B14307   0.797   4.967  11.028  0.4642 -0.1435 -0.0023
  133SAPE   C1114308   0.848   5.139  10.901 -0.2649  0.6337 -0.0489
  133SAPE  H11A14309   0.802   5.204  10.978 -1.2708  0.3513 -0.3966
  133SAPE  H11B14310   0.766   5.129  10.826 -1.0773 -0.4526  0.9484
  133SAPE     P14311   0.994   5.344  10.830  0.2301  0.2604  0.1460
  133SAPE   O1314312   0.992   5.397  10.970 -0.0495 -0.4187  0.3898
  133SAPE   O1414313   1.112   5.371  10.742 -0.3400 -0.4433  0.4665
  133SAPE   O1214314   0.973   5.186  10.852  0.4076 -1.0247 -0.6433
  133SAPE   O1114315   0.858   5.378  10.756 -0.0619 -0.6588 -0.6444
  133SAPE    C114316   0.844   5.440  10.628  0.2542 -0.4416 -0.0248
  133SAPE    HA14317   0.853   5.551  10.627  1.2015 -0.4988 -1.1951
  133SAPE    HB14318   0.919   5.401  10.555 -1.1603  0.2491 -1.9404
  133SAPE    C214319   0.717   5.408  10.542  0.1336 -1.0928 -0.2849
  133SAPE    HS14320   0.644   5.425  10.624 -0.0122  0.4770 -0.7220
  133SAPE   O2114321   0.722   5.273  10.502 -0.3344 -0.5004  0.3455
  133SAPE   C2114322   0.618   5.207  10.480  0.1620 -0.4210  0.4596
  133SAPE   O2214323   0.501   5.234  10.505  0.2746  0.1464  0.5290
  133SAPE   C2214324   0.663   5.068  10.429 -0.1268 -0.1675 -0.3673
  133SAPE   H2R14325   0.769   5.064  10.398 -0.1266  0.2603 -0.4337
  133SAPE   H2S14326   0.637   5.004  10.516 -0.7760  1.2847  0.5462
  133SAPE    C314327   0.692   5.510  10.426 -0.4933 -0.5230  0.1248
  133SAPE    HX14328   0.748   5.490  10.332 -1.4182  0.4493 -0.6525
  133SAPE    HY14329   0.738   5.603  10.464  1.2798 -0.8828 -1.0308
  133SAPE   O3114330   0.556   5.527  10.402  0.1232  0.1917 -0.1937
  133SAPE   C3114331   0.513   5.546  10.277 -0.1268 -1.2491 -0.6504
  133SAPE   O3214332   0.578   5.566  10.179 -0.1710  0.3091 -0.2593
  133SAPE   C3214333   0.359   5.549  10.283 -0.1896  0.4411 -0.2385
  133SAPE   H2X14334   0.314   5.640  10.328  0.1660  0.3927  0.2219
  133SAPE   H2Y14335   0.322   5.459  10.337 -2.3117  1.1757 -0.3816
  133SAPE   C2314336   0.577   5.018  10.313  0.3131 -0.7147 -0.0308
  133SAPE   H3R14337   0.474   5.058  10.322  0.2358 -0.9789  0.2757
  133SAPE   H3S14338   0.556   4.910  10.329 -0.1154 -0.2189  3.8564
  133SAPE   C2414339   0.645   5.038  10.181 -0.1722  0.0295  0.4755
  133SAPE   H4R14340   0.583   4.995  10.098  0.4396  0.7354 -0.3611
  133SAPE   H4S14341   0.738   4.978  10.176 -0.3997 -0.2595 -1.1003
  133SAPE   C2514342   0.673   5.185  10.151 -0.0165  0.6671 -0.0281
  133SAPE   H5R14343   0.728   5.233  10.233 -1.4399  0.6212  0.9853
  133SAPE   C2614344   0.633   5.253  10.047 -0.3699 -0.4783 -0.0182
  133SAPE   H6R14345   0.648   5.362  10.048 -1.2785 -0.3485  0.2752
  133SAPE   C2714346   0.545   5.203   9.933 -0.0962 -0.4442  0.7639
  133SAPE   H7R14347   0.437   5.217   9.956  0.1681 -0.1372  1.8713
  133SAPE   H7S14348   0.543   5.092   9.927 -1.1602 -0.4199  0.5310
  133SAPE   C2814349   0.585   5.260   9.801  0.7681  0.2283 -0.2298
  133SAPE   H8R14350   0.665   5.206   9.749  0.0269 -0.2240 -0.9216
  133SAPE   C2914351   0.526   5.358   9.732  0.1125  0.1352 -0.6723
  133SAPE   H9R14352   0.570   5.378   9.633  2.9868 -1.0525  0.2438
  133SAPE  C21014353   0.407   5.438   9.757  1.0113 -0.3454  0.3313
  133SAPE  H10R14354   0.434   5.545   9.767 -1.5302  0.4206 -0.2823
  133SAPE  H10S14355   0.368   5.417   9.859  2.4326  0.4789  1.0802
  133SAPE  C21114356   0.293   5.405   9.659 -0.0470  0.2986 -0.2504
  133SAPE  H11R14357   0.257   5.301   9.670 -1.0580  0.8200  1.8213
  133SAPE  C21214358   0.232   5.480   9.569  0.4665 -0.3541 -0.2980
  133SAPE  H12R14359   0.149   5.436   9.511  0.8961  1.3658 -2.3089
  133SAPE  C21314360   0.258   5.624   9.545 -0.1319 -0.2142  0.1247
  133SAPE  H13R14361   0.260   5.678   9.642  1.1321  0.2039 -0.1240
  133SAPE  H13S14362   0.163   5.654   9.494  1.3587  2.8310 -1.1239
  133SAPE  C21414363   0.378   5.662   9.458 -0.6680  0.1432  0.0823
  133SAPE  H14R14364   0.468   5.682   9.517  0.1286  0.8972 -1.3511
  133SAPE  C21514365   0.377   5.679   9.321 -0.0654  0.6013  0.0164
  133SAPE  H15R14366   0.469   5.712   9.271 -1.2345  2.1877 -1.1629
  133SAPE  C21614367   0.269   5.641   9.223  0.0671 -0.4432  0.7238
  133SAPE  H16R14368   0.243   5.735   9.170 -0.9483 -1.1962 -0.1563
  133SAPE  H16S14369   0.177   5.608   9.277  0.5113  1.0526  2.5024
  133SAPE  C21714370   0.307   5.539   9.105 -0.3449 -0.8660 -0.6162
  133SAPE  H17R14371   0.224   5.475   9.068 -1.1043  1.7167 -3.7477
  133SAPE  H17S14372   0.370   5.466   9.161 -1.6168 -1.0860  0.5836
  133SAPE  C21814373   0.378   5.610   8.984 -0.2738 -0.2800  0.0595
  133SAPE  H18R14374   0.461   5.676   9.016 -0.8224  0.6974 -0.5039
  133SAPE  H18S14375   0.300   5.682   8.951  0.3816  0.8842  0.9608
  133SAPE  C21914376   0.429   5.517   8.869  0.1549 -0.2579 -0.5899
  133SAPE  H19R14377   0.428   5.583   8.779  0.2295 -0.3197 -0.6380
  133SAPE  H19S14378   0.343   5.448   8.858 -0.4582  0.3511  0.3272
  133SAPE  C22014379   0.570   5.455   8.892  0.5477  0.4518  0.4737
  133SAPE  H20R14380   0.566   5.384   8.977  2.3572  0.8184  0.9008
  133SAPE  H20S14381   0.648   5.534   8.903  1.0045  0.0504  0.1738
  133SAPE  H20T14382   0.587   5.395   8.800 -3.2098 -0.4912  0.2400
  133SAPE   C3314383   0.302   5.540  10.135  0.2800  0.2905 -0.1597
  133SAPE   H3X14384   0.363   5.458  10.091  0.4466 -0.1697  0.8984
  133SAPE   H3Y14385   0.316   5.636  10.081  0.2916  0.9493  0.9787
  133SAPE   C3414386   0.149   5.507  10.138  0.0679 -0.6881  0.3094
  133SAPE   H4X14387   0.091   5.581  10.197  2.7085  1.5759  0.2550
  133SAPE   H4Y14388   0.148   5.407  10.187  2.9354 -0.4461  1.0326
  133SAPE   C3514389   0.095   5.504   9.994  0.3652  0.5954 -0.1861
  133SAPE   H5X14390   0.126   5.402   9.964  1.7835  0.8313  0.3905
  133SAPE   H5Y14391   0.142   5.589   9.940  1.9525 -0.4835 -0.5594
  133SAPE   C3614392  -0.056   5.537   9.985  0.2672  0.0239 -0.5355
  133SAPE   H6X14393  -0.084   5.640   9.954 -1.9768  0.2840  1.9567
  133SAPE   H6Y14394  -0.110   5.519  10.081  3.3441 -1.7664  1.0262
  133SAPE   C3714395  -0.127   5.447   9.885  0.1862 -0.4211  0.2524
  133SAPE   H7X14396  -0.237   5.456   9.895  0.3088  0.9135  0.5527
  133SAPE   H7Y14397  -0.104   5.344   9.920  0.2629 -0.3506  0.4127
  133SAPE   C3814398  -0.074   5.466   9.742  0.1038  0.6688 -0.4292
  133SAPE   H8X14399   0.010   5.397   9.721  1.1703  1.9090 -0.3493
  133SAPE   H8Y14400  -0.033   5.569   9.734  1.6899  0.1347  0.4705
  133SAPE   C3914401  -0.186   5.457   9.643 -0.6385 -0.3822 -0.1722
  133SAPE   H9X14402  -0.251   5.547   9.654  0.5220  0.3909  0.5568
  133SAPE   H9Y14403  -0.231   5.356   9.645  1.4867 -1.4737 -1.9412
  133SAPE  C31014404  -0.112   5.461   9.497  0.0183 -0.6288  0.1482
  133SAPE  H10X14405  -0.059   5.366   9.480 -1.1020 -1.8618  2.8672
  133SAPE  H10Y14406  -0.045   5.547   9.475 -0.2983 -0.3965  0.0769
  133SAPE  C31114407  -0.220   5.465   9.388 -0.0826 -0.0449 -0.0807
  133SAPE  H11X14408  -0.291   5.550   9.397  1.9169  1.7593 -0.5322
  133SAPE  H11Y14409  -0.279   5.371   9.400  2.5398 -1.7752  0.1997
  133SAPE  C31214410  -0.160   5.458   9.251  0.3338 -0.5629  0.2729
  133SAPE  H12X14411  -0.088   5.374   9.241 -0.4663 -1.3612  1.0966
  133SAPE  H12Y14412  -0.092   5.544   9.230  1.0820 -1.1114  0.4408
  133SAPE  C31314413  -0.277   5.456   9.147  0.2913 -0.1946  0.5590
  133SAPE  H13X14414  -0.320   5.558   9.139 -1.5172 -0.6491  3.2815
  133SAPE  H13Y14415  -0.345   5.375   9.178 -0.2021 -0.3089 -0.7363
  133SAPE  C31414416  -0.243   5.412   8.998 -0.2175 -0.1058 -0.0952
  133SAPE  H14X14417  -0.142   5.457   8.984 -0.3664  0.4977  0.6658
  133SAPE  H14Y14418  -0.311   5.475   8.937 -2.5874  1.8620  4.0737
  133SAPE  C31514419  -0.245   5.260   8.971  0.1563 -0.8878  0.0981
  133SAPE  H15X14420  -0.252   5.245   8.862 -0.7800 -1.8508  0.2798
  133SAPE  H15Y14421  -0.343   5.224   9.010  0.8588 -1.7124  1.1811
  133SAPE  C31614422  -0.143   5.164   9.042  1.1726 -0.7902 -0.3188
  133SAPE  H16X14423  -0.161   5.145   9.150  2.0922  1.3310  0.2686
  133SAPE  H16Y14424  -0.044   5.214   9.033  1.4874 -1.3953 -0.2171
  133SAPE  C31714425  -0.130   5.037   8.965 -0.1913 -0.0025  1.0462
  133SAPE  H17X14426  -0.125   5.056   8.856  0.8535  1.1101  1.2664
  133SAPE  H17Y14427  -0.221   4.976   8.985  0.4287 -0.7978  1.4711
  133SAPE  C31814428  -0.010   4.951   9.009  0.0174 -0.3585 -0.0461
  133SAPE  H18X14429   0.086   4.984   8.964 -0.3842  0.3781 -0.3886
  133SAPE  H18Y14430  -0.024   4.848   8.969  2.1086 -0.6294 -0.2159
  133SAPE  H18Z14431  -0.004   4.945   9.120  0.2660  0.1044 -0.0333
  134SAPE     N14432   3.087   0.374  11.163 -0.0592 -0.8219 -0.1797
  134SAPE   HN114433   3.048   0.420  11.248  1.1155 -2.3749  1.2512
  134SAPE   HN214434   3.170   0.427  11.129 -0.8765 -0.4980 -1.7864
  134SAPE   HN314435   3.028   0.357  11.079  0.3730 -2.3231 -0.2046
  134SAPE   C1214436   3.152   0.251  11.202  0.0655  0.0512 -0.5599
  134SAPE  H12A14437   3.079   0.183  11.251 -1.6532  2.7609  0.8351
  134SAPE  H12B14438   3.241   0.275  11.263  0.6267 -0.0297 -1.3232
  134SAPE   C1114439   3.200   0.178  11.079 -0.3315 -0.2725  0.0326
  134SAPE  H11A14440   3.253   0.091  11.124  3.0162  1.1320 -0.8293
  134SAPE  H11B14441   3.283   0.238  11.035  1.9276 -1.7382  1.9982
  134SAPE     P14442   3.145   0.073  10.853 -0.4719 -0.0819  0.1566
  134SAPE   O1314443   3.219  -0.047  10.897 -0.4528  0.0498  0.1133
  134SAPE   O1414444   3.022   0.058  10.770 -0.0960 -0.3278  0.3300
  134SAPE   O1214445   3.098   0.150  10.978  0.5887 -0.2069 -0.5033
  134SAPE   O1114446   3.248   0.173  10.789 -0.6562  0.3865  0.1845
  134SAPE    C114447   3.200   0.294  10.726  0.2965 -1.1488 -0.3095
  134SAPE    HA14448   3.103   0.335  10.762  1.3721  1.7541 -0.4359
  134SAPE    HB14449   3.278   0.368  10.753  0.2328 -1.0317 -0.4463
  134SAPE    C214450   3.212   0.289  10.570 -0.1612  0.4071 -0.4606
  134SAPE    HS14451   3.222   0.393  10.531 -2.5239  0.8928  0.0791
  134SAPE   O2114452   3.093   0.226  10.514  0.3134  0.4457  0.2062
  134SAPE   C2114453   2.983   0.305  10.499 -0.0459  0.9245  0.3293
  134SAPE   O2214454   2.983   0.427  10.516  0.0536  0.0684  0.2048
  134SAPE   C2214455   2.865   0.223  10.437 -0.1339  0.4177 -0.1692
  134SAPE   H2R14456   2.862   0.124  10.488  0.7914 -0.1112 -1.0873
  134SAPE   H2S14457   2.771   0.278  10.454 -0.0828  0.5327 -0.2567
  134SAPE    C314458   3.344   0.218  10.527  0.7445 -0.5137 -0.5193
  134SAPE    HX14459   3.326   0.118  10.571 -4.1183  0.2605 -0.2148
  134SAPE    HY14460   3.430   0.266  10.579  2.0973 -0.6325 -2.5271
  134SAPE   O3114461   3.352   0.214  10.384  0.2525  0.0841  0.3410
  134SAPE   C3114462   3.303   0.111  10.321 -0.0336  0.4553  0.0050
  134SAPE   O3214463   3.276   0.004  10.376 -0.3910  0.2701 -0.0039
  134SAPE   C3214464   3.279   0.140  10.176  0.5605  0.3210  0.0758
  134SAPE   H2X14465   3.352   0.210  10.129 -1.7828  0.1756 -4.2850
  134SAPE   H2Y14466   3.182   0.193  10.185  0.0618 -0.3809 -1.0893
  134SAPE   C2314467   2.882   0.187  10.291  0.7771 -0.1926 -0.1081
  134SAPE   H3R14468   2.957   0.107  10.271 -1.5128 -1.9019 -2.5778
  134SAPE   H3S14469   2.909   0.280  10.236  1.0490 -0.4011 -0.3301
  134SAPE   C2414470   2.752   0.127  10.233 -0.8369  0.1033 -0.0747
  134SAPE   H4R14471   2.668   0.199  10.233 -0.1155  1.0320  2.2751
  134SAPE   H4S14472   2.712   0.051  10.304 -1.4446  2.1045  1.8355
  134SAPE   C2514473   2.762   0.059  10.102  0.1980 -0.3177 -0.2807
  134SAPE   H5R14474   2.798  -0.045  10.097  1.8982  0.1932  0.5086
  134SAPE   C2614475   2.756   0.117   9.985 -0.0604 -0.2071  0.6369
  134SAPE   H6R14476   2.780   0.056   9.896 -0.4361 -2.7764  2.1844
  134SAPE   C2714477   2.753   0.267   9.964  0.2370  0.0585 -0.1326
  134SAPE   H7R14478   2.833   0.300   9.895 -0.5350  1.6164 -0.3269
  134SAPE   H7S14479   2.755   0.326  10.057  1.3679 -1.3048  0.7513
  134SAPE   C2814480   2.618   0.292   9.897  0.0298  0.3646  0.3891
  134SAPE   H8R14481   2.537   0.288   9.971  0.0296 -1.2230  0.3443
  134SAPE   C2914482   2.601   0.345   9.771  1.1391  0.6694 -0.5847
  134SAPE   H9R14483   2.498   0.362   9.736  1.0281 -0.9294 -1.0816
  134SAPE  C21014484   2.721   0.362   9.674  0.1608 -0.1066 -0.2841
  134SAPE  H10R14485   2.813   0.396   9.726  0.9309 -1.6788 -0.5377
  134SAPE  H10S14486   2.704   0.455   9.616 -1.0784 -0.4455 -0.4883
  134SAPE  C21114487   2.757   0.245   9.590  0.6169  0.5309 -0.9867
  134SAPE  H11R14488   2.772   0.155   9.652 -2.0430  0.2469 -0.6364
  134SAPE  C21214489   2.782   0.239   9.458 -0.9761 -0.0070  0.0427
  134SAPE  H12R14490   2.812   0.138   9.426  0.3118  0.4740 -0.3422
  134SAPE  C21314491   2.781   0.350   9.349 -0.8376 -0.1201 -0.9558
  134SAPE  H13R14492   2.885   0.354   9.311 -0.2519 -0.1835  0.5963
  134SAPE  H13S14493   2.759   0.451   9.388 -1.2567 -0.7535  0.5095
  134SAPE  C21414494   2.674   0.329   9.244 -0.0674  0.1089  0.1490
  134SAPE  H14R14495   2.579   0.379   9.271 -0.7167 -1.1079  0.2088
  134SAPE  C21514496   2.688   0.265   9.128  0.5657  0.2675 -0.4085
  134SAPE  H15R14497   2.595   0.250   9.071 -1.1613  1.3772  1.8978
  134SAPE  C21614498   2.812   0.202   9.072 -0.4177 -0.1747  0.1665
  134SAPE  H16R14499   2.894   0.198   9.147  0.4712  0.5305 -0.7428
  134SAPE  H16S14500   2.858   0.269   8.997 -2.4279  2.4999  1.1685
  134SAPE  C21714501   2.795   0.062   9.011  0.2906  0.5294 -0.3898
  134SAPE  H17R14502   2.745  -0.009   9.081 -2.2228  1.9771 -0.5818
  134SAPE  H17S14503   2.890   0.009   8.990  1.5509  0.4495  4.3861
  134SAPE  C21814504   2.714   0.058   8.881  0.2283  0.3448  0.4064
  134SAPE  H18R14505   2.743   0.144   8.817 -0.2684 -0.9207 -1.6099
  134SAPE  H18S14506   2.605   0.072   8.898 -0.3749 -4.0120  1.3707
  134SAPE  C21914507   2.743  -0.069   8.793 -0.2873 -0.3385  0.1144
  134SAPE  H19R14508   2.688  -0.157   8.834  0.4881 -1.6196 -1.4821
  134SAPE  H19S14509   2.853  -0.082   8.806  0.0313  1.6157 -0.3537
  134SAPE  C22014510   2.717  -0.043   8.641  0.1512  0.4779  0.2788
  134SAPE  H20R14511   2.789   0.034   8.607 -0.1405  0.3385 -0.6720
  134SAPE  H20S14512   2.615  -0.007   8.616 -1.4660 -2.3633  2.1625
  134SAPE  H20T14513   2.737  -0.138   8.586  0.1837 -1.1187  2.8434
  134SAPE   C3314514   3.272   0.024  10.078  0.4077  0.6895  0.2954
  134SAPE   H3X14515   3.174  -0.028  10.089  1.5430 -1.3409  1.4830
  134SAPE   H3Y14516   3.352  -0.051  10.097 -1.3674 -1.9407 -1.8029
  134SAPE   C3414517   3.294   0.064   9.931 -0.3132  0.2653 -0.0728
  134SAPE   H4X14518   3.290  -0.024   9.864 -0.7167  0.6484 -0.5609
  134SAPE   H4Y14519   3.397   0.104   9.921  0.8485 -2.1555  1.3319
  134SAPE   C3514520   3.183   0.166   9.884  0.5111  0.4060  0.5244
  134SAPE   H5X14521   3.174   0.250   9.956  2.2399  1.6921 -0.7044
  134SAPE   H5Y14522   3.085   0.113   9.882  0.9044 -0.3334  0.4857
  134SAPE   C3614523   3.213   0.227   9.740  0.6868 -0.0838  0.6689
  134SAPE   H6X14524   3.206   0.145   9.665  1.7182 -0.3117  0.8067
  134SAPE   H6Y14525   3.318   0.263   9.737  1.1269 -1.3657 -0.4407
  134SAPE   C3714526   3.118   0.341   9.696  0.1734  0.1296  0.8380
  134SAPE   H7X14527   3.120   0.419   9.775  0.5614 -0.0120  0.9680
  134SAPE   H7Y14528   3.014   0.303   9.689  0.7128 -1.1826 -0.5360
  134SAPE   C3814529   3.153   0.396   9.555  1.0874 -0.7100  0.3066
  134SAPE   H8X14530   3.131   0.324   9.473  0.5966  0.9810 -1.1161
  134SAPE   H8Y14531   3.260   0.426   9.560  1.4274 -1.3973 -1.8607
  134SAPE   C3914532   3.074   0.524   9.526  0.1229  0.5662  0.1003
  134SAPE   H9X14533   3.066   0.574   9.625 -0.2416 -0.9030  0.8439
  134SAPE   H9Y14534   2.970   0.496   9.498 -0.9171  0.6073  3.4752
  134SAPE  C31014535   3.123   0.625   9.430 -0.6630  0.6169  0.0105
  134SAPE  H10X14536   3.227   0.655   9.455 -0.8914  0.5799  1.0637
  134SAPE  H10Y14537   3.064   0.717   9.451 -0.7495  0.5931 -0.1252
  134SAPE  C31114538   3.117   0.576   9.293  0.5149 -0.6455  0.2274
  134SAPE  H11X14539   3.013   0.544   9.271 -0.1434  1.5265  0.0302
  134SAPE  H11Y14540   3.191   0.496   9.270  0.6502  0.1247 -2.3384
  134SAPE  C31214541   3.154   0.680   9.184 -0.4113 -0.2263 -0.4904
  134SAPE  H12X14542   3.256   0.721   9.203  0.1006 -0.6214 -2.1468
  134SAPE  H12Y14543   3.081   0.762   9.199 -0.6304 -0.7879  1.7672
  134SAPE  C31314544   3.161   0.620   9.046  0.0306 -0.4040  0.3041
  134SAPE  H13X14545   3.061   0.602   9.000 -0.0379  0.5559  0.0630
  134SAPE  H13Y14546   3.208   0.520   9.057 -1.4942 -0.9608  2.4647
  134SAPE  C31414547   3.241   0.713   8.940  0.3671  0.1795  0.5276
  134SAPE  H14X14548   3.209   0.683   8.838  0.3181 -1.9510  1.1115
  134SAPE  H14Y14549   3.350   0.691   8.939  0.1800 -0.7694 -0.0711
  134SAPE  C31514550   3.239   0.864   8.959  0.1669 -0.2739  0.1682
  134SAPE  H15X14551   3.289   0.882   9.057  1.7447  0.9713 -0.8142
  134SAPE  H15Y14552   3.137   0.907   8.969 -0.1466 -0.7903 -0.7132
  134SAPE  C31614553   3.309   0.948   8.849  0.4495  0.6110  0.4856
  134SAPE  H16X14554   3.266   0.926   8.749  2.0084  2.7664 -0.7354
  134SAPE  H16Y14555   3.412   0.905   8.844 -0.2671 -1.3522  1.3184
  134SAPE  C31714556   3.312   1.093   8.887 -0.0166 -0.5458  0.3728
  134SAPE  H17X14557   3.364   1.100   8.985 -2.0179  0.2558  1.4205
  134SAPE  H17Y14558   3.211   1.127   8.918 -0.6981 -0.5507 -1.6878
  134SAPE  C31814559   3.390   1.187   8.798  0.1338 -0.2471  0.2653
  134SAPE  H18X14560   3.488   1.144   8.768  0.5926  0.2907  0.9698
  134SAPE  H18Y14561   3.431   1.273   8.855 -2.6197  2.0181 -0.9251
  134SAPE  H18Z14562   3.327   1.227   8.715  1.7593  0.4637 -0.6771
  135SAPE     N14563   3.928   5.042  10.560  0.0385  0.6489 -0.5272
  135SAPE   HN114564   3.948   4.987  10.474 -3.8365  0.4029 -1.4835
  135SAPE   HN214565   4.018   5.093  10.573  0.4869  0.9312 -3.8340
  135SAPE   HN314566   3.896   4.992  10.645 -0.0864  0.8532 -0.4510
  135SAPE   C1214567   3.814   5.131  10.526  0.6698 -0.1706  0.2442
  135SAPE  H12A14568   3.780   5.184  10.618  1.0533 -0.3686  0.5028
  135SAPE  H12B14569   3.738   5.057  10.491  3.5220 -2.4428 -1.6487
  135SAPE   C1114570   3.850   5.229  10.410 -0.1539  0.2218 -0.3162
  135SAPE  H11A14571   3.766   5.298  10.386 -1.3765 -0.4750  1.6345
  135SAPE  H11B14572   3.861   5.180  10.311 -0.7987 -0.6827  0.0448
  135SAPE     P14573   3.979   5.400  10.550  0.1880 -0.0997 -0.6943
  135SAPE   O1314574   3.964   5.328  10.679 -0.2317 -0.0777  0.2888
  135SAPE   O1414575   4.093   5.489  10.529  0.1282  0.0833  0.3631
  135SAPE   O1214576   3.963   5.308  10.432 -0.1761  0.1537 -0.3022
  135SAPE   O1114577   3.846   5.493  10.547  0.2363  0.1949 -0.1040
  135SAPE    C114578   3.848   5.615  10.474 -0.2487 -0.5021 -0.6228
  135SAPE    HA14579   3.910   5.690  10.527  0.8682 -1.2620 -0.8111
  135SAPE    HB14580   3.886   5.615  10.369 -0.3990  4.5681 -0.9005
  135SAPE    C214581   3.705   5.672  10.459 -0.5177 -0.5099 -1.0433
  135SAPE    HS14582   3.682   5.719  10.557  4.7305  1.2758 -0.3799
  135SAPE   O2114583   3.603   5.573  10.415 -1.0678 -0.3164 -0.1933
  135SAPE   C2114584   3.481   5.612  10.452 -0.2948  0.3734 -0.2641
  135SAPE   O2214585   3.449   5.709  10.517  0.0960 -0.0396  0.3781
  135SAPE   C2214586   3.366   5.508  10.404 -0.1762  0.0554 -0.4601
  135SAPE   H2R14587   3.418   5.423  10.356  2.1396  0.5969  0.8858
  135SAPE   H2S14588   3.316   5.485  10.501  0.9773 -0.2644  0.0836
  135SAPE    C314589   3.705   5.798  10.367 -0.0641 -0.6864  0.0588
  135SAPE    HX14590   3.778   5.875  10.401 -1.0153 -0.0307  0.6613
  135SAPE    HY14591   3.607   5.848  10.380  0.5788  0.8359 -0.6166
  135SAPE   O3114592   3.736   5.764  10.229  0.3140  0.3315 -0.4258
  135SAPE   C3114593   3.638   5.753  10.148 -0.5585  0.1711  0.0222
  135SAPE   O3214594   3.520   5.769  10.172  0.5924  0.0301 -0.6664
  135SAPE   C3214595   3.685   5.697  10.016  0.5026 -0.3312  0.2095
  135SAPE   H2X14596   3.705   5.589  10.029 -1.1350 -0.6645  0.1595
  135SAPE   H2Y14597   3.789   5.733   9.996  0.7213 -1.7630 -1.4950
  135SAPE   C2314598   3.254   5.563  10.311  0.2873  0.4322 -0.4678
  135SAPE   H3R14599   3.306   5.609  10.224  0.4969  1.5535  0.2421
  135SAPE   H3S14600   3.188   5.636  10.362 -0.9358 -2.8527  3.0962
  135SAPE   C2414601   3.170   5.443  10.260  0.4729  0.1528 -0.4919
  135SAPE   H4R14602   3.122   5.394  10.347  0.6439  1.1281  0.1803
  135SAPE   H4S14603   3.239   5.368  10.217  1.4952 -0.0544  1.3704
  135SAPE   C2514604   3.064   5.483  10.170  0.3244 -0.7692  0.3862
  135SAPE   H5R14605   2.976   5.519  10.225  0.9545 -0.1084  0.9830
  135SAPE   C2614606   3.058   5.479  10.036  0.3345 -0.1705 -0.2488
  135SAPE   H6R14607   2.961   5.516   9.998  1.3097 -0.4264 -3.2594
  135SAPE   C2714608   3.155   5.423   9.940  0.2308 -0.3810  0.1267
  135SAPE   H7R14609   3.123   5.337   9.877  2.8610 -0.7737 -0.8168
  135SAPE   H7S14610   3.238   5.379  10.000 -1.3679 -2.7404  0.7641
  135SAPE   C2814611   3.216   5.532   9.860  0.1002  0.5947  0.5375
  135SAPE   H8R14612   3.261   5.617   9.915  2.6500  0.7328 -1.5511
  135SAPE   C2914613   3.217   5.533   9.727 -0.4202 -0.3898  0.1149
  135SAPE   H9R14614   3.258   5.622   9.677  0.0686  0.5856  2.1401
  135SAPE  C21014615   3.169   5.419   9.639  0.0272 -0.1795 -0.6748
  135SAPE  H10R14616   3.059   5.410   9.650  0.1712 -0.2180  0.9742
  135SAPE  H10S14617   3.208   5.317   9.663 -0.5272 -0.1840  0.2568
  135SAPE  C21114618   3.216   5.449   9.499 -0.0311 -0.1157  0.6107
  135SAPE  H11R14619   3.284   5.534   9.484 -1.7862  1.5349  1.6294
  135SAPE  C21214620   3.191   5.383   9.384  0.3967  0.9230  0.7059
  135SAPE  H12R14621   3.233   5.417   9.288 -0.2665 -1.7250 -0.6238
  135SAPE  C21314622   3.096   5.265   9.392  0.4722  0.5436  0.4300
  135SAPE  H13R14623   3.060   5.255   9.496 -1.3143  0.3586 -0.1576
  135SAPE  H13S14624   3.152   5.172   9.366 -0.2198  0.3762 -0.5291
  135SAPE  C21414625   2.971   5.276   9.302 -0.6170  0.2883 -0.0512
  135SAPE  H14R14626   2.914   5.369   9.315 -1.8862 -0.3257 -1.0712
  135SAPE  C21514627   2.923   5.185   9.211 -0.6298 -0.4454  0.6148
  135SAPE  H15R14628   2.835   5.220   9.156 -0.2522  2.5182  1.7184
  135SAPE  C21614629   2.993   5.058   9.175 -0.6232 -0.3374 -0.1163
  135SAPE  H16R14630   2.918   4.991   9.128 -1.0588 -0.2165  0.3986
  135SAPE  H16S14631   3.032   5.007   9.265  0.6180 -0.0449 -0.4592
  135SAPE  C21714632   3.111   5.074   9.076 -0.0734  0.5767  0.6512
  135SAPE  H17R14633   3.184   4.990   9.071 -0.8452 -0.0204 -1.8329
  135SAPE  H17S14634   3.174   5.154   9.120  1.5503 -0.9724  1.2708
  135SAPE  C21814635   3.069   5.110   8.931 -0.2310 -0.3611 -0.1510
  135SAPE  H18R14636   2.995   5.192   8.927  1.9172  1.8722  2.2202
  135SAPE  H18S14637   3.024   5.016   8.892 -0.6601 -0.9050  1.5370
  135SAPE  C21914638   3.189   5.141   8.838  0.6047  0.0807 -0.1874
  135SAPE  H19R14639   3.280   5.088   8.873  2.0292  0.2724 -3.2532
  135SAPE  H19S14640   3.211   5.249   8.853 -0.5313  0.3411 -0.3047
  135SAPE  C22014641   3.176   5.102   8.693 -0.3380 -0.3611 -0.4521
  135SAPE  H20R14642   3.171   4.991   8.691  0.1447 -0.6204  3.7700
  135SAPE  H20S14643   3.263   5.137   8.634  0.6643  0.8237  1.6260
  135SAPE  H20T14644   3.090   5.157   8.649  0.3949  0.3737 -1.0013
  135SAPE   C3314645   3.581   5.734   9.911  0.1322  0.1767  1.0038
  135SAPE   H3X14646   3.567   5.843   9.902 -0.1829  0.1203  0.8270
  135SAPE   H3Y14647   3.481   5.692   9.935  0.1054 -0.0266  0.5362
  135SAPE   C3414648   3.619   5.671   9.777  0.3548  0.0750  0.4009
  135SAPE   H4X14649   3.592   5.563   9.766  2.0617 -0.5457  1.8427
  135SAPE   H4Y14650   3.729   5.678   9.761  0.1712  0.4692 -0.7543
  135SAPE   C3514651   3.547   5.746   9.666 -0.7780 -0.1559  0.2979
  135SAPE   H5X14652   3.558   5.854   9.690 -0.2895 -1.1764  6.0406
  135SAPE   H5Y14653   3.437   5.728   9.674 -0.7319 -1.0553 -0.8966
  135SAPE   C3614654   3.577   5.704   9.529 -0.0282  0.0898  0.9252
  135SAPE   H6X14655   3.562   5.594   9.517  3.0445 -0.3822  0.4917
  135SAPE   H6Y14656   3.686   5.723   9.521  0.1057 -0.5113  1.2617
  135SAPE   C3714657   3.504   5.781   9.420 -0.3017  0.5960 -0.4556
  135SAPE   H7X14658   3.523   5.887   9.449  1.2626  0.3230 -0.3754
  135SAPE   H7Y14659   3.395   5.766   9.434  0.0828 -0.4371  1.9175
  135SAPE   C3814660   3.552   5.748   9.280 -0.0557 -0.1210  0.1222
  135SAPE   H8X14661   3.539   5.638   9.266  0.4124 -0.4550  2.0186
  135SAPE   H8Y14662   3.657   5.782   9.275  0.1407 -0.6236  0.6879
  135SAPE   C3914663   3.470   5.840   9.182  0.6736 -0.9769  0.3381
  135SAPE   H9X14664   3.474   5.942   9.224 -1.0923 -0.1046 -1.4802
  135SAPE   H9Y14665   3.368   5.797   9.181 -0.4035  1.4099  1.2823
  135SAPE  C31014666   3.542   5.828   9.039  0.1965 -0.0678 -0.8640
  135SAPE  H10X14667   3.526   5.731   8.986  2.1156  0.7678 -3.1474
  135SAPE  H10Y14668   3.651   5.833   9.064 -0.0299 -1.9489  0.7855
  135SAPE  C31114669   3.480   5.948   8.961  0.1760  0.8190  0.0063
  135SAPE  H11X14670   3.511   6.043   9.011  0.8646 -0.1759  1.5281
  135SAPE  H11Y14671   3.370   5.933   8.962  0.3491 -0.5368  0.7126
  135SAPE  C31214672   3.546   5.967   8.823  0.0830  0.1826  0.1186
  135SAPE  H12X14673   3.533   5.878   8.758  1.1684  1.1298 -1.4323
  135SAPE  H12Y14674   3.651   5.975   8.856 -0.2075  2.6773  0.5961
  135SAPE  C31314675   3.511   6.107   8.762 -0.5045 -0.0643 -0.3525
  135SAPE  H13X14676   3.536   6.187   8.834 -0.9998  0.2322 -0.5087
  135SAPE  H13Y14677   3.403   6.120   8.739 -0.7102  1.8592  1.4776
  135SAPE  C31414678   3.611   6.139   8.652  0.5655 -0.4415  0.6274
  135SAPE  H14X14679   3.590   6.067   8.571  0.0037  1.3093 -0.8455
  135SAPE  H14Y14680   3.717   6.127   8.683  1.2986 -0.1688 -1.6203
  135SAPE  C31514681   3.583   6.277   8.580 -0.3066 -0.0369  0.2790
  135SAPE  H15X14682   3.579   6.356   8.658  1.2909 -0.3401  0.6936
  135SAPE  H15Y14683   3.490   6.272   8.520  0.2696  0.6675 -0.7012
  135SAPE  C31614684   3.693   6.307   8.479  1.1560  0.2259 -0.4505
  135SAPE  H16X14685   3.796   6.309   8.522  1.2566  0.6521 -0.7095
  135SAPE  H16Y14686   3.670   6.404   8.430 -2.1778 -0.6213 -0.8383
  135SAPE  C31714687   3.694   6.210   8.355  0.1734 -0.0181 -0.9976
  135SAPE  H17X14688   3.697   6.103   8.384  1.0199 -0.1111 -1.4018
  135SAPE  H17Y14689   3.785   6.232   8.295  0.9843  1.6247  0.7314
  135SAPE  C31814690   3.573   6.231   8.264  0.9657  0.4750  0.1337
  135SAPE  H18X14691   3.567   6.155   8.184 -0.6188  0.6349  0.0622
  135SAPE  H18Y14692   3.575   6.330   8.214  1.2047 -0.9554 -2.9003
  135SAPE  H18Z14693   3.479   6.215   8.321  1.0594 -1.4303 -0.1793
  136SAPE     N14694   5.582   4.470  11.133  0.3889  0.5724 -0.1804
  136SAPE   HN114695   5.500   4.414  11.100  1.1544 -0.0136 -1.1442
  136SAPE   HN214696   5.658   4.403  11.156  0.1885  0.2879 -0.3397
  136SAPE   HN314697   5.554   4.505  11.227 -3.1301  3.3736 -1.9911
  136SAPE   C1214698   5.604   4.576  11.040 -0.2196  0.3821 -0.4874
  136SAPE  H12A14699   5.621   4.520  10.945  1.3476 -1.8183  0.9910
  136SAPE  H12B14700   5.682   4.644  11.080 -0.8776  0.9737 -0.1955
  136SAPE   C1114701   5.474   4.662  11.031  0.1984 -0.7759 -0.1747
  136SAPE  H11A14702   5.397   4.603  10.977 -1.4630  0.5995  0.6139
  136SAPE  H11B14703   5.506   4.750  10.971 -0.4182 -2.2150 -2.8235
  136SAPE     P14704   5.458   4.830  11.239  0.2552 -0.0621  0.3539
  136SAPE   O1314705   5.347   4.864  11.330  0.1623  0.4999  0.1842
  136SAPE   O1414706   5.587   4.798  11.302 -0.1611 -0.2174 -0.0384
  136SAPE   O1214707   5.411   4.703  11.155 -0.4369  0.8160 -0.7094
  136SAPE   O1114708   5.481   4.945  11.129 -0.9172 -0.0403  0.2768
  136SAPE    C114709   5.393   5.046  11.090 -0.2164  0.0244 -0.5156
  136SAPE    HA14710   5.348   5.089  11.182  0.1694 -1.1356  0.2431
  136SAPE    HB14711   5.451   5.126  11.040  2.0237 -1.3555 -0.2664
  136SAPE    C214712   5.283   5.010  10.991  0.0697 -0.3093 -0.2001
  136SAPE    HS14713   5.230   4.926  11.041  0.2155 -1.0205 -1.2033
  136SAPE   O2114714   5.344   4.977  10.866 -0.0886  0.5293 -0.3316
  136SAPE   C2114715   5.268   4.888  10.802 -0.8403  1.1068 -0.4659
  136SAPE   O2214716   5.157   4.845  10.826  0.1271  0.1761 -0.2927
  136SAPE   C2214717   5.343   4.842  10.680 -0.8619  0.0190 -0.1081
  136SAPE   H2R14718   5.315   4.735  10.668 -2.1381  0.3003  0.1928
  136SAPE   H2S14719   5.298   4.889  10.591 -0.2689 -1.0335 -0.9950
  136SAPE    C314720   5.183   5.130  10.975 -0.1352  0.4829 -0.2076
  136SAPE    HX14721   5.136   5.133  11.075  1.6521 -1.0700  0.7509
  136SAPE    HY14722   5.101   5.114  10.901  0.3896  1.0303 -0.9255
  136SAPE   O3114723   5.258   5.251  10.951 -0.4536  0.3711  0.0874
  136SAPE   C3114724   5.275   5.288  10.828 -0.1921 -0.0204  0.4775
  136SAPE   O3214725   5.235   5.219  10.733 -0.1508 -0.4863 -0.6737
  136SAPE   C3214726   5.327   5.430  10.828 -0.0232  0.6290 -0.3388
  136SAPE   H2X14727   5.378   5.442  10.927  1.3501 -1.4147 -0.7282
  136SAPE   H2Y14728   5.240   5.499  10.829  0.6687  1.5228  0.4085
  136SAPE   C2314729   5.498   4.847  10.669 -0.1767 -0.4976 -0.3004
  136SAPE   H3R14730   5.513   4.797  10.571 -1.7312 -0.7865 -0.4224
  136SAPE   H3S14731   5.546   4.793  10.753 -1.2569  1.4397  1.6393
  136SAPE   C2414732   5.566   4.986  10.652  0.4339  0.6508 -0.0149
  136SAPE   H4R14733   5.672   4.973  10.622  0.0089 -0.5935 -1.0569
  136SAPE   H4S14734   5.580   5.005  10.761 -1.4994 -3.1898  1.1093
  136SAPE   C2514735   5.500   5.093  10.576 -0.3763 -0.1603 -0.3959
  136SAPE   H5R14736   5.401   5.130  10.606 -0.3981  0.6686 -1.4356
  136SAPE   C2614737   5.568   5.160  10.476  0.4519  0.1797 -1.1396
  136SAPE   H6R14738   5.512   5.235  10.418 -3.3713  1.7529  3.9132
  136SAPE   C2714739   5.712   5.145  10.425 -0.3047  0.2209 -0.7951
  136SAPE   H7R14740   5.777   5.126  10.513  0.7934 -2.6215 -2.0968
  136SAPE   H7S14741   5.743   5.244  10.385 -1.9268  1.6257  1.2026
  136SAPE   C2814742   5.735   5.042  10.317  0.3328 -0.3070 -0.4377
  136SAPE   H8R14743   5.764   4.942  10.352 -0.2174  0.0376  1.0332
  136SAPE   C2914744   5.718   5.054  10.186 -0.1364  0.7045 -0.1430
  136SAPE   H9R14745   5.722   4.968  10.117  1.0817  2.8998 -3.0334
  136SAPE  C21014746   5.669   5.177  10.110  0.5817  0.3668 -0.3063
  136SAPE  H10R14747   5.605   5.244  10.171  1.1991  0.1514  0.5979
  136SAPE  H10S14748   5.621   5.133  10.020  0.9434 -2.3288  0.7181
  136SAPE  C21114749   5.790   5.258  10.073  0.0237 -0.3399 -0.2825
  136SAPE  H11R14750   5.839   5.305  10.159 -1.0193  0.4819 -0.1294
  136SAPE  C21214751   5.830   5.278   9.948 -0.3859 -0.3976  0.2498
  136SAPE  H12R14752   5.921   5.336   9.928 -0.4718 -0.7806 -1.3592
  136SAPE  C21314753   5.770   5.222   9.824 -0.0332 -0.9033  0.2639
  136SAPE  H13R14754   5.660   5.216   9.833 -0.0088  0.6326  2.2651
  136SAPE  H13S14755   5.797   5.114   9.815  1.0736 -0.6638  0.5097
  136SAPE  C21414756   5.817   5.303   9.700 -0.0672 -0.0484  0.3144
  136SAPE  H14R14757   5.841   5.409   9.712  1.5608 -0.1835 -1.3652
  136SAPE  C21514758   5.827   5.248   9.574  0.6301 -0.0391  0.1908
  136SAPE  H15R14759   5.859   5.312   9.490  0.9769 -0.0315  0.3288
  136SAPE  C21614760   5.802   5.104   9.528  0.2076  0.3178  0.1221
  136SAPE  H16R14761   5.703   5.079   9.571  1.2550  0.5942  2.9111
  136SAPE  H16S14762   5.887   5.052   9.577  1.8444  1.2373 -1.5975
  136SAPE  C21714763   5.802   5.089   9.375 -0.4677  0.1595  0.2940
  136SAPE  H17R14764   5.813   4.980   9.353  0.6133  0.6159 -1.6794
  136SAPE  H17S14765   5.896   5.130   9.332 -1.2089  1.6873  0.0872
  136SAPE  C21814766   5.679   5.140   9.298  0.5235 -0.1481  0.2043
  136SAPE  H18R14767   5.692   5.249   9.282 -1.3870 -0.0709 -1.2623
  136SAPE  H18S14768   5.593   5.129   9.367  2.4845 -0.0396  2.8056
  136SAPE  C21914769   5.657   5.070   9.161 -0.7313  0.0378  0.3035
  136SAPE  H19R14770   5.671   4.960   9.161  1.5291  0.2040 -2.5845
  136SAPE  H19S14771   5.739   5.105   9.095  1.5376 -2.1997  1.7378
  136SAPE  C22014772   5.534   5.116   9.093  0.4249 -0.2711 -0.3824
  136SAPE  H20R14773   5.524   5.073   8.991  1.7641 -2.0902  0.1984
  136SAPE  H20S14774   5.540   5.226   9.079  1.5385 -0.2630  0.0159
  136SAPE  H20T14775   5.443   5.087   9.149 -0.0642 -0.0611 -1.0678
  136SAPE   C3314776   5.428   5.467  10.723  0.0445 -0.0328 -0.7951
  136SAPE   H3X14777   5.523   5.413  10.747  0.1594  0.8492  0.9184
  136SAPE   H3Y14778   5.446   5.576  10.728  0.6962 -0.1521 -0.4523
  136SAPE   C3414779   5.369   5.456  10.584  0.0148 -0.1996  0.8403
  136SAPE   H4X14780   5.274   5.513  10.587  0.3550  0.4387  0.0220
  136SAPE   H4Y14781   5.345   5.350  10.561 -1.1984  0.3589 -0.5848
  136SAPE   C3514782   5.448   5.519  10.470  0.1586  0.5670  1.0721
  136SAPE   H5X14783   5.548   5.474  10.452  0.0315  1.2325 -1.7954
  136SAPE   H5Y14784   5.457   5.628  10.489 -0.6453  1.0411 -0.9751
  136SAPE   C3614785   5.386   5.493  10.333  0.3164  0.2544  0.0056
  136SAPE   H6X14786   5.278   5.510  10.317 -0.0368 -1.9655 -0.3378
  136SAPE   H6Y14787   5.382   5.385  10.306 -2.6660 -0.1571  1.6541
  136SAPE   C3714788   5.464   5.570  10.222 -0.2545  0.1479  0.7139
  136SAPE   H7X14789   5.570   5.539  10.209 -0.1598  0.4365  0.7917
  136SAPE   H7Y14790   5.467   5.677  10.252 -0.1195  0.8764 -1.7346
  136SAPE   C3814791   5.397   5.568  10.086 -0.5550 -0.5663  0.0573
  136SAPE   H8X14792   5.320   5.648  10.087  0.0608  0.0571 -0.5580
  136SAPE   H8Y14793   5.342   5.473  10.067 -3.3685  1.6346 -4.6528
  136SAPE   C3914794   5.497   5.584   9.966  0.4165  0.1212 -0.5717
  136SAPE   H9X14795   5.572   5.502   9.967  0.6128  0.1777  3.0771
  136SAPE   H9Y14796   5.559   5.677   9.968  0.8635 -0.1780 -0.2532
  136SAPE  C31014797   5.414   5.572   9.839  0.6613  0.8922 -0.6224
  136SAPE  H10X14798   5.332   5.646   9.839  1.5012  1.9754 -3.6301
  136SAPE  H10Y14799   5.369   5.471   9.851 -0.7983  1.6448  0.6779
  136SAPE  C31114800   5.500   5.575   9.707 -0.2616  0.2247 -0.3063
  136SAPE  H11X14801   5.582   5.501   9.723 -0.6246  0.1771  1.5113
  136SAPE  H11Y14802   5.549   5.674   9.695 -1.0652  0.4946 -1.5275
  136SAPE  C31214803   5.422   5.538   9.581 -0.3437  0.1789  0.4984
  136SAPE  H12X14804   5.357   5.623   9.551 -1.4340 -1.0516 -0.7900
  136SAPE  H12Y14805   5.357   5.448   9.594  1.6103 -1.9054 -2.8133
  136SAPE  C31314806   5.502   5.506   9.458  0.1724 -0.3779 -0.1174
  136SAPE  H13X14807   5.537   5.401   9.468  0.2478 -0.2681  0.7999
  136SAPE  H13Y14808   5.580   5.585   9.447 -0.6888  0.5839  0.5856
  136SAPE  C31414809   5.411   5.514   9.326  0.0996 -0.3252  0.3958
  136SAPE  H14X14810   5.475   5.486   9.240 -0.9948 -2.2741  0.1483
  136SAPE  H14Y14811   5.372   5.618   9.323 -1.6981 -0.9001  1.8832
  136SAPE  C31514812   5.289   5.415   9.327  0.3821  0.1342  0.1497
  136SAPE  H15X14813   5.207   5.449   9.393 -0.2053  0.1994 -0.5910
  136SAPE  H15Y14814   5.324   5.313   9.354  0.4752  0.2194  0.3482
  136SAPE  C31614815   5.228   5.403   9.182  0.4172 -0.2527 -0.1572
  136SAPE  H16X14816   5.306   5.402   9.102  1.4435 -0.2277  0.8178
  136SAPE  H16Y14817   5.169   5.495   9.163 -0.6659 -0.9256 -0.0990
  136SAPE  C31714818   5.124   5.293   9.169  0.7440  0.0157  1.0973
  136SAPE  H17X14819   5.031   5.301   9.230 -1.5521 -1.2648 -1.9636
  136SAPE  H17Y14820   5.181   5.205   9.205 -1.1257 -1.1899  1.2693
  136SAPE  C31814821   5.076   5.252   9.026 -0.5326 -0.1881  0.0177
  136SAPE  H18X14822   5.161   5.208   8.971  0.5484  1.6704  0.1268
  136SAPE  H18Y14823   5.038   5.339   8.968 -3.3525 -1.6056 -0.4345
  136SAPE  H18Z14824   4.992   5.182   9.042 -0.1284 -0.2229  2.4715
  137SAPE     N14825   0.115   1.194  10.963 -0.3771 -0.1366 -0.1694
  137SAPE   HN114826   0.058   1.111  10.938 -0.0422  0.2280 -2.3985
  137SAPE   HN214827   0.082   1.274  10.905 -0.4089 -0.8514 -1.1707
  137SAPE   HN314828   0.209   1.170  10.924 -0.6369 -0.5777 -0.5379
  137SAPE   C1214829   0.115   1.225  11.113  0.1483  0.0946 -0.3632
  137SAPE  H12A14830   0.144   1.132  11.166 -0.1143 -0.0014 -0.3885
  137SAPE  H12B14831   0.013   1.258  11.144  0.4634  0.2367  0.5476
  137SAPE   C1114832   0.202   1.341  11.150 -0.5437 -0.0970  0.1681
  137SAPE  H11A14833   0.309   1.327  11.122 -0.3470  0.9492  0.3324
  137SAPE  H11B14834   0.209   1.335  11.261  0.8048  0.2868  0.1294
  137SAPE     P14835   0.081   1.566  11.183 -0.0173  0.0201  0.3396
  137SAPE   O1314836  -0.035   1.503  11.244  0.9930 -0.2897 -0.4525
  137SAPE   O1414837   0.185   1.627  11.269  0.3839 -0.2622 -0.6125
  137SAPE   O1214838   0.152   1.464  11.093  0.3823  0.5383 -0.0162
  137SAPE   O1114839   0.035   1.665  11.073 -0.2498 -0.3308  0.1960
  137SAPE    C114840   0.139   1.710  10.978 -0.0748  0.7910  0.2510
  137SAPE    HA14841   0.211   1.780  11.026  1.7933  0.0196 -1.3040
  137SAPE    HB14842   0.199   1.626  10.937 -0.9155 -0.4051  1.3896
  137SAPE    C214843   0.080   1.778  10.852 -0.2456  0.3964 -0.4723
  137SAPE    HS14844   0.028   1.870  10.887 -0.6175 -0.2799  0.8302
  137SAPE   O2114845  -0.011   1.684  10.791 -0.1073  0.4050  0.0344
  137SAPE   C2114846  -0.090   1.730  10.694 -0.1669 -0.7251 -0.2602
  137SAPE   O2214847  -0.101   1.851  10.662 -0.4941 -0.3208  0.5592
  137SAPE   C2214848  -0.126   1.614  10.605 -0.0982 -0.3823  0.0413
  137SAPE   H2R14849  -0.035   1.551  10.613  0.1422  0.1161  1.3518
  137SAPE   H2S14850  -0.210   1.555  10.648 -0.1165 -1.4376 -1.3533
  137SAPE    C314851   0.194   1.819  10.746 -0.2076  0.3184 -0.9289
  137SAPE    HX14852   0.279   1.876  10.791 -1.3301  0.6964  0.7946
  137SAPE    HY14853   0.143   1.891  10.679  1.9771  0.9676 -1.9944
  137SAPE   O3114854   0.237   1.706  10.665 -0.5023 -0.1806 -0.2829
  137SAPE   C3114855   0.337   1.628  10.707 -0.4472 -0.0668  0.4273
  137SAPE   O3214856   0.407   1.649  10.802  0.3930  0.3367 -0.3096
  137SAPE   C3214857   0.353   1.516  10.607 -0.2021  0.1993 -0.4823
  137SAPE   H2X14858   0.460   1.504  10.578 -0.6131 -0.8872 -1.6576
  137SAPE   H2Y14859   0.311   1.552  10.510  1.1594  0.6963 -0.9156
  137SAPE   C2314860  -0.156   1.661  10.457  1.0904 -0.3659 -0.1986
  137SAPE   H3R14861  -0.085   1.739  10.423  1.7396 -0.3846  1.0328
  137SAPE   H3S14862  -0.257   1.707  10.464  1.8943  1.7115 -1.5384
  137SAPE   C2414863  -0.169   1.534  10.370  0.9477 -0.1957 -0.2356
  137SAPE   H4R14864  -0.245   1.549  10.290 -0.3814 -3.3318  0.2821
  137SAPE   H4S14865  -0.221   1.454  10.427  1.7109 -1.3752 -1.1673
  137SAPE   C2514866  -0.035   1.493  10.312  0.4439 -0.4024  0.0301
  137SAPE   H5R14867   0.052   1.504  10.378  1.7227  1.9992 -1.8761
  137SAPE   C2614868  -0.017   1.431  10.193 -0.0949 -0.2311  1.0105
  137SAPE   H6R14869   0.081   1.391  10.162 -0.5333 -1.4222  1.1198
  137SAPE   C2714870  -0.128   1.400  10.094 -1.1456 -0.8731  0.0919
  137SAPE   H7R14871  -0.212   1.345  10.141 -2.0258 -1.1591 -1.7625
  137SAPE   H7S14872  -0.087   1.334  10.015 -1.4697  0.1306 -0.9426
  137SAPE   C2814873  -0.193   1.521  10.028  0.2870  0.5791  0.0552
  137SAPE   H8R14874  -0.262   1.578  10.092 -1.4112  0.7588 -1.8367
  137SAPE   C2914875  -0.182   1.544   9.897  0.2926  0.0834  0.6783
  137SAPE   H9R14876  -0.245   1.621   9.851  0.0378 -0.3770  0.2420
  137SAPE  C21014877  -0.095   1.470   9.800  0.3159 -0.4201  0.3814
  137SAPE  H10R14878  -0.003   1.426   9.846  2.1754  1.7660 -1.0082
  137SAPE  H10S14879  -0.048   1.539   9.726 -2.4280  0.8667 -0.2955
  137SAPE  C21114880  -0.184   1.371   9.728  0.0301 -0.7788  0.0856
  137SAPE  H11R14881  -0.178   1.265   9.754  0.4466 -0.5875  0.7903
  137SAPE  C21214882  -0.254   1.398   9.618  0.6017  0.1948 -0.1281
  137SAPE  H12R14883  -0.315   1.315   9.579  1.2323 -1.1087  1.5131
  137SAPE  C21314884  -0.257   1.528   9.539  0.0624  0.2339 -0.0394
  137SAPE  H13R14885  -0.218   1.512   9.436  1.7399  1.6319  0.3246
  137SAPE  H13S14886  -0.188   1.610   9.570 -0.6360  1.6244 -1.9339
  137SAPE  C21414887  -0.397   1.591   9.522 -0.0908  0.2822  0.5269
  137SAPE  H14R14888  -0.462   1.588   9.611  0.6364  1.3735  1.1343
  137SAPE  C21514889  -0.444   1.639   9.409  0.3477  0.3223 -0.1928
  137SAPE  H15R14890  -0.551   1.662   9.407 -0.0565 -1.0407  2.4185
  137SAPE  C21614891  -0.375   1.645   9.274 -0.7658 -0.4977 -0.5221
  137SAPE  H16R14892  -0.307   1.559   9.255  0.5324  0.6579 -1.3555
  137SAPE  H16S14893  -0.317   1.738   9.259 -2.1756  0.2927 -1.2745
  137SAPE  C21714894  -0.473   1.657   9.152  0.0071  0.0111  0.0583
  137SAPE  H17R14895  -0.537   1.748   9.150 -0.8844 -0.6060 -1.1921
  137SAPE  H17S14896  -0.537   1.567   9.142  1.0559 -0.7766  0.3480
  137SAPE  C21814897  -0.393   1.666   9.017  0.4560  0.4762  0.1243
  137SAPE  H18R14898  -0.311   1.734   9.048  1.8139 -1.9802  2.3001
  137SAPE  H18S14899  -0.458   1.710   8.938 -0.2246  1.6363  1.2960
  137SAPE  C21914900  -0.339   1.533   8.968 -0.0317  0.1681  0.8690
  137SAPE  H19R14901  -0.305   1.469   9.052 -2.2198 -0.0750  1.6146
  137SAPE  H19S14902  -0.259   1.555   8.894 -1.8971 -1.9386 -1.9925
  137SAPE  C22014903  -0.443   1.454   8.888 -0.2079  0.8285  0.2619
  137SAPE  H20R14904  -0.451   1.482   8.781  2.6951 -0.4574 -0.3903
  137SAPE  H20S14905  -0.548   1.458   8.925 -0.5071 -0.6684 -0.3104
  137SAPE  H20T14906  -0.401   1.351   8.880 -0.2399  0.7762  0.7355
  137SAPE   C3314907   0.281   1.382  10.641  0.6048 -0.1924  0.8771
  137SAPE   H3X14908   0.185   1.416  10.684  0.2757  0.0822 -0.0498
  137SAPE   H3Y14909   0.344   1.329  10.715  1.6015 -1.4166 -0.7778
  137SAPE   C3414910   0.269   1.296  10.508 -0.3041  0.3358  0.0777
  137SAPE   H4X14911   0.215   1.355  10.430 -2.1886  1.0477  1.8413
  137SAPE   H4Y14912   0.216   1.199  10.510  1.9789 -1.0047 -0.7980
  137SAPE   C3514913   0.402   1.266  10.432 -0.3224 -0.6145 -0.2265
  137SAPE   H5X14914   0.475   1.233  10.508  0.5823  0.2127 -0.7092
  137SAPE   H5Y14915   0.431   1.370  10.407 -1.0163 -0.6372 -1.1861
  137SAPE   C3614916   0.391   1.181  10.309 -0.2710 -0.0038 -0.3415
  137SAPE   H6X14917   0.312   1.103  10.322  0.8395 -0.7307  2.8163
  137SAPE   H6Y14918   0.492   1.137  10.300  0.4865  1.1275  2.1039
  137SAPE   C3714919   0.360   1.269  10.184 -0.7399 -0.4968 -0.4822
  137SAPE   H7X14920   0.439   1.345  10.167  0.7329 -1.5140  1.4662
  137SAPE   H7Y14921   0.274   1.333  10.210  1.4658  1.7037  1.9735
  137SAPE   C3814922   0.331   1.177  10.067 -0.5740  0.8841  0.3931
  137SAPE   H8X14923   0.241   1.116  10.089  0.6413 -2.5250 -2.9578
  137SAPE   H8Y14924   0.423   1.117  10.048  0.2207  2.1188  0.2479
  137SAPE   C3914925   0.313   1.252   9.929  0.2768 -0.1936 -0.6740
  137SAPE   H9X14926   0.396   1.299   9.871 -0.3947  0.3118 -1.2364
  137SAPE   H9Y14927   0.250   1.338   9.958 -1.3699 -1.0880 -1.4782
  137SAPE  C31014928   0.243   1.160   9.833  0.8754  0.6389 -0.8238
  137SAPE  H10X14929   0.153   1.120   9.884  2.4361 -0.6811  1.0243
  137SAPE  H10Y14930   0.303   1.076   9.792  1.4169  1.1919 -1.1803
  137SAPE  C31114931   0.206   1.229   9.707 -0.0415 -0.3005 -0.0428
  137SAPE  H11X14932   0.281   1.304   9.676  1.5427 -1.4062  0.9242
  137SAPE  H11Y14933   0.109   1.282   9.721  0.7869  1.1749  0.3243
  137SAPE  C31214934   0.191   1.131   9.591  0.0486 -0.1549 -0.9452
  137SAPE  H12X14935   0.105   1.065   9.613 -0.0509  0.5734  1.0112
  137SAPE  H12Y14936   0.283   1.073   9.571  0.4584  0.5000 -0.9858
  137SAPE  C31314937   0.145   1.215   9.463  0.0876  0.9112 -0.3026
  137SAPE  H13X14938   0.229   1.280   9.431  0.0685 -0.2900 -3.0642
  137SAPE  H13Y14939   0.060   1.278   9.496  0.0810  2.2049 -2.6045
  137SAPE  C31414940   0.096   1.125   9.355 -0.4879  0.0695 -0.0663
  137SAPE  H14X14941   0.011   1.059   9.383  1.0056 -1.7171  0.4221
  137SAPE  H14Y14942   0.179   1.059   9.322  0.6705  0.8184  1.2720
  137SAPE  C31514943   0.041   1.218   9.242  0.4936 -0.3410  0.0271
  137SAPE  H15X14944   0.112   1.300   9.219 -1.8911  1.0806 -3.0097
  137SAPE  H15Y14945  -0.046   1.271   9.286 -0.4115 -1.0976 -0.7947
  137SAPE  C31614946  -0.001   1.147   9.114  0.4952  0.5571 -1.1589
  137SAPE  H16X14947  -0.047   1.049   9.141  2.0183  0.1399  0.1112
  137SAPE  H16Y14948   0.084   1.110   9.052  1.0550  0.9603 -0.6463
  137SAPE  C31714949  -0.098   1.225   9.031 -0.3662 -0.2484 -0.1776
  137SAPE  H17X14950  -0.036   1.294   8.970  1.1748 -1.5013 -0.0862
  137SAPE  H17Y14951  -0.170   1.271   9.101 -0.6721 -2.7681  1.2919
  137SAPE  C31814952  -0.178   1.137   8.940 -0.0688 -0.2329 -0.1420
  137SAPE  H18X14953  -0.209   1.035   8.969 -0.5576 -0.8757 -2.7088
  137SAPE  H18Y14954  -0.107   1.119   8.857  0.8312  1.0876  0.2943
  137SAPE  H18Z14955  -0.266   1.196   8.908 -0.7954 -0.3361  1.5403
  138SAPE     N14956   5.759   1.165  11.147  0.2520 -0.1384 -0.1787
  138SAPE   HN114957   5.788   1.216  11.233 -2.2032  2.0632 -0.5287
  138SAPE   HN214958   5.713   1.079  11.183  0.7647 -1.3230 -2.2054
  138SAPE   HN314959   5.851   1.148  11.101  1.0225  2.4589  0.2603
  138SAPE   C1214960   5.689   1.249  11.038 -0.5155 -0.1580  0.4122
  138SAPE  H12A14961   5.645   1.337  11.091 -1.4452 -0.5047  0.2435
  138SAPE  H12B14962   5.608   1.190  10.989 -0.5060  0.2593 -0.1119
  138SAPE   C1114963   5.790   1.287  10.929 -0.0076  0.5054  0.6287
  138SAPE  H11A14964   5.864   1.354  10.978 -1.3194  0.8910  2.1573
  138SAPE  H11B14965   5.745   1.341  10.844 -1.7191  0.6978  1.6091
  138SAPE     P14966   5.971   1.168  10.794 -0.0725  0.5150  0.2214
  138SAPE   O1314967   6.034   1.298  10.787  0.6849 -0.0153  0.6865
  138SAPE   O1414968   6.057   1.049  10.813 -0.1832  0.5616 -0.1263
  138SAPE   O1214969   5.850   1.170  10.890 -0.2761  0.2061 -0.0421
  138SAPE   O1114970   5.890   1.146  10.662  0.2858  0.6637 -1.2174
  138SAPE    C114971   5.765   1.069  10.639 -0.0790 -0.5314 -0.6233
  138SAPE    HA14972   5.794   0.965  10.611  1.2186 -0.0992 -0.9413
  138SAPE    HB14973   5.703   1.071  10.731  0.1839  0.5305 -0.4638
  138SAPE    C214974   5.697   1.125  10.515  0.7206  0.0695  0.0785
  138SAPE    HS14975   5.606   1.065  10.494 -0.1362  1.0894  0.7543
  138SAPE   O2114976   5.785   1.139  10.402  0.6451 -0.0841 -0.1436
  138SAPE   C2114977   5.832   1.029  10.339 -0.2438  0.5059  0.0501
  138SAPE   O2214978   5.801   0.916  10.361  0.1687  0.3763 -1.2612
  138SAPE   C2214979   5.896   1.076  10.211 -0.2024 -0.4360  0.2882
  138SAPE   H2R14980   5.824   1.124  10.142  0.3084  1.4132  0.9755
  138SAPE   H2S14981   5.957   1.165  10.239 -1.9878  1.9557 -2.7904
  138SAPE    C314982   5.647   1.264  10.556  0.6339 -0.0465 -0.9356
  138SAPE    HX14983   5.738   1.319  10.588 -0.4309  1.5918 -0.6063
  138SAPE    HY14984   5.576   1.254  10.642 -0.0183 -0.3618 -1.5019
  138SAPE   O3114985   5.581   1.320  10.443 -0.6356  0.5074 -0.4659
  138SAPE   C3114986   5.651   1.409  10.371  0.3366  0.1657 -0.6870
  138SAPE   O3214987   5.762   1.454  10.400  0.6125 -0.3444 -0.5253
  138SAPE   C3214988   5.556   1.459  10.268  0.2906 -0.2783  1.1401
  138SAPE   H2X14989   5.482   1.532  10.309 -1.1628 -2.1083  1.9423
  138SAPE   H2Y14990   5.505   1.370  10.224  0.0735  1.8289 -3.4433
  138SAPE   C2314991   5.985   0.964  10.146 -0.0376 -0.0224  0.2594
  138SAPE   H3R14992   5.922   0.873  10.137 -0.1470 -0.1480  1.9320
  138SAPE   H3S14993   6.065   0.939  10.219  0.8383 -0.6526 -0.8929
  138SAPE   C2414994   6.052   0.993  10.010 -0.1548  0.2938  0.1856
  138SAPE   H4R14995   6.114   0.904   9.987 -1.1138 -0.6271  1.0547
  138SAPE   H4S14996   6.117   1.083  10.015 -0.4870  0.7389 -2.0592
  138SAPE   C2514997   5.958   1.023   9.898 -0.4816  0.7392 -0.3585
  138SAPE   H5R14998   5.880   1.098   9.919  2.2143  2.9899  2.7454
  138SAPE   C2614999   5.955   0.958   9.775 -0.1110 -0.1036  0.6551
  138SAPE   H6R15000   5.864   0.976   9.716 -1.1856  0.6093  2.4457
  138SAPE   C2715001   6.046   0.844   9.735 -0.1166  0.4514  1.3310
  138SAPE   H7R15002   6.041   0.754   9.799  4.3914 -0.9343  0.1690
  138SAPE   H7S15003   6.150   0.884   9.744 -0.2261  1.0643  0.1837
  138SAPE   C2815004   6.030   0.818   9.581 -0.1936  0.1753  0.8998
  138SAPE   H8R15005   5.973   0.891   9.522  2.3337  0.6242 -1.1955
  138SAPE   C2915006   6.047   0.700   9.515  0.0026  0.0556  0.5459
  138SAPE   H9R15007   6.037   0.707   9.405 -1.1495 -0.8739  0.5673
  138SAPE  C21015008   6.097   0.571   9.578 -0.4314  0.0465  0.5590
  138SAPE  H10R15009   6.158   0.585   9.670  2.0458 -1.6941 -0.7362
  138SAPE  H10S15010   6.179   0.534   9.513 -0.7172  2.7314 -1.5027
  138SAPE  C21115011   6.000   0.457   9.582 -0.3672 -0.1107 -0.2868
  138SAPE  H11R15012   5.961   0.420   9.678 -0.9458 -0.2116 -0.5549
  138SAPE  C21215013   5.964   0.377   9.475 -0.2299  0.6152 -0.0659
  138SAPE  H12R15014   5.877   0.312   9.487  0.6546 -0.8937 -1.3828
  138SAPE  C21315015   6.011   0.402   9.339 -0.0313 -0.3359 -0.3540
  138SAPE  H13R15016   6.107   0.346   9.332  0.1179  0.1057 -2.7612
  138SAPE  H13S15017   6.030   0.508   9.311  2.3451 -1.1571 -2.2303
  138SAPE  C21415018   5.930   0.329   9.242 -0.3935 -0.1772 -0.8052
  138SAPE  H14R15019   5.933   0.220   9.249  0.4615 -0.0715  0.9986
  138SAPE  C21515020   5.872   0.371   9.129  0.4777 -0.2841 -0.1785
  138SAPE  H15R15021   5.813   0.299   9.070 -1.3342 -0.2385  1.5035
  138SAPE  C21615022   5.877   0.517   9.092  0.4924  0.1745  0.3765
  138SAPE  H16R15023   5.979   0.552   9.067  0.6217  1.1812  2.1801
  138SAPE  H16S15024   5.835   0.574   9.178 -1.5736  1.3693 -1.3282
  138SAPE  C21715025   5.786   0.545   8.966 -0.0040  0.1303  0.4345
  138SAPE  H17R15026   5.684   0.505   8.982  0.1939 -1.6357 -2.0522
  138SAPE  H17S15027   5.835   0.515   8.871  0.5986  3.3735 -0.3897
  138SAPE  C21815028   5.761   0.693   8.968 -0.3721 -0.1147 -0.3501
  138SAPE  H18R15029   5.844   0.737   8.909  1.8766 -2.5449  0.8098
  138SAPE  H18S15030   5.761   0.727   9.074  2.8869  1.7791 -0.8365
  138SAPE  C21915031   5.623   0.741   8.907 -0.7721 -0.4687 -0.4006
  138SAPE  H19R15032   5.620   0.848   8.938  1.5293 -1.0112  2.0088
  138SAPE  H19S15033   5.539   0.693   8.962  0.1145 -0.2109  1.2453
  138SAPE  C22015034   5.602   0.720   8.759  0.0052  0.3086  0.2941
  138SAPE  H20R15035   5.599   0.610   8.740  0.1594  0.1881  0.9273
  138SAPE  H20S15036   5.680   0.780   8.707 -0.1024  0.0976 -0.1197
  138SAPE  H20T15037   5.506   0.749   8.711  0.0699 -0.9361 -0.6590
  138SAPE   C3315038   5.638   1.524  10.152 -0.1043 -0.1165  0.1293
  138SAPE   H3X15039   5.564   1.536  10.070  1.2324  1.8392 -0.8404
  138SAPE   H3Y15040   5.719   1.455  10.121  0.8549  1.3657 -0.7640
  138SAPE   C3415041   5.685   1.667  10.182 -0.9673  0.1906  0.1180
  138SAPE   H4X15042   5.776   1.671  10.246  0.2347 -0.9576 -1.4409
  138SAPE   H4Y15043   5.603   1.718  10.236 -0.5148  0.5880  0.4337
  138SAPE   C3515044   5.716   1.743  10.055 -0.2510  0.3216 -0.4063
  138SAPE   H5X15045   5.623   1.752   9.995 -0.5397  1.7096  0.2160
  138SAPE   H5Y15046   5.784   1.673  10.002 -1.2779  0.8454 -2.5474
  138SAPE   C3615047   5.782   1.886  10.062  0.0021  0.0480  0.0910
  138SAPE   H6X15048   5.871   1.875  10.128  1.1850  0.2782 -1.4016
  138SAPE   H6Y15049   5.710   1.953  10.113  1.2159  0.1924  1.6920
  138SAPE   C3715050   5.818   1.959   9.932 -0.4536 -0.2487 -0.3379
  138SAPE   H7X15051   5.874   2.051   9.962 -0.5577 -1.1985  3.2153
  138SAPE   H7Y15052   5.729   1.992   9.875 -0.8461  0.7381  0.8141
  138SAPE   C3815053   5.900   1.876   9.829  0.1242  0.0951  0.2940
  138SAPE   H8X15054   5.845   1.781   9.807 -0.1958  0.0576  1.1821
  138SAPE   H8Y15055   5.998   1.845   9.872 -0.1541  3.1955  3.6184
  138SAPE   C3915056   5.939   1.958   9.707  0.5660  0.2444  0.4392
  138SAPE   H9X15057   6.007   2.043   9.724 -0.8507  1.5367 -0.1112
  138SAPE   H9Y15058   5.839   1.994   9.674 -0.5285 -1.6448  1.5176
  138SAPE  C31015059   5.992   1.870   9.589 -0.9061 -0.1793 -0.7810
  138SAPE  H10X15060   5.936   1.774   9.574  0.0081 -0.9124  0.3471
  138SAPE  H10Y15061   6.101   1.854   9.604 -0.5097  4.1373  2.9715
  138SAPE  C31115062   5.989   1.952   9.465  0.0323 -0.4814 -0.2520
  138SAPE  H11X15063   6.070   2.028   9.465 -0.0677 -0.3698 -0.6859
  138SAPE  H11Y15064   5.897   2.013   9.467  1.5019  1.8552  2.1749
  138SAPE  C31215065   6.012   1.885   9.334  0.0593 -0.2410 -0.4582
  138SAPE  H12X15066   6.091   1.809   9.351  0.7346 -0.0124 -2.2791
  138SAPE  H12Y15067   6.060   1.951   9.258  0.0797 -0.8175 -0.9532
  138SAPE  C31315068   5.884   1.815   9.281 -0.1031 -0.1313  0.3139
  138SAPE  H13X15069   5.808   1.896   9.280  2.1289  2.1511  2.1728
  138SAPE  H13Y15070   5.848   1.738   9.352  0.3211 -1.8766 -1.2934
  138SAPE  C31415071   5.902   1.735   9.152  0.1644  0.5316  0.7523
  138SAPE  H14X15072   5.997   1.678   9.143 -1.3887 -1.8856 -2.6034
  138SAPE  H14Y15073   5.905   1.799   9.062 -0.2134 -2.0070 -1.1739
  138SAPE  C31515074   5.784   1.637   9.125 -0.8160 -0.1091 -0.5194
  138SAPE  H15X15075   5.780   1.576   9.218 -0.3373  0.7153  0.0561
  138SAPE  H15Y15076   5.810   1.571   9.040 -0.0879 -0.1465 -0.2752
  138SAPE  C31615077   5.663   1.706   9.082  0.2187 -0.7724  0.8413
  138SAPE  H16X15078   5.694   1.766   8.994  0.7424 -2.1941  0.0248
  138SAPE  H16Y15079   5.633   1.767   9.171  0.3036 -1.6109  1.4528
  138SAPE  C31715080   5.541   1.617   9.038 -0.5476 -0.6053 -0.5117
  138SAPE  H17X15081   5.515   1.542   9.116 -0.6750  0.3844  0.4156
  138SAPE  H17Y15082   5.581   1.563   8.949 -1.8317 -1.8591 -0.3574
  138SAPE  C31815083   5.421   1.689   8.982  0.4422  0.0280  0.3204
  138SAPE  H18X15084   5.374   1.768   9.046  0.3703  0.6380 -0.4680
  138SAPE  H18Y15085   5.353   1.612   8.942 -0.1031  0.4685  0.3904
  138SAPE  H18Z15086   5.455   1.746   8.893 -0.7524 -1.1471 -0.9254
  139SAPE     N15087   5.422   0.655  10.724  0.5666 -0.0384  1.1302
  139SAPE   HN115088   5.416   0.561  10.767 -0.0591 -0.3751  0.3260
  139SAPE   HN215089   5.503   0.715  10.750  1.8084  0.1849 -2.5554
  139SAPE   HN315090   5.334   0.701  10.753 -0.1042 -0.4597 -0.1688
  139SAPE   C1215091   5.432   0.646  10.569  0.2750 -0.6870  0.2127
  139SAPE  H12A15092   5.525   0.589  10.551 -0.2319 -0.8565 -2.2135
  139SAPE  H12B15093   5.448   0.750  10.533 -0.0419 -0.7162 -0.0196
  139SAPE   C1115094   5.314   0.594  10.488 -0.5407 -0.2994 -0.2608
  139SAPE  H11A15095   5.348   0.590  10.383  1.2224 -1.8165  0.3060
  139SAPE  H11B15096   5.233   0.669  10.496 -0.2192 -0.0293  0.7151
  139SAPE     P15097   5.313   0.332  10.489 -0.0126  0.5096 -0.1569
  139SAPE   O1315098   5.463   0.319  10.477  0.5183  0.3299  0.1148
  139SAPE   O1415099   5.241   0.231  10.568 -0.3628 -0.1298 -0.3001
  139SAPE   O1215100   5.272   0.475  10.545 -0.1325 -0.3347  0.2564
  139SAPE   O1115101   5.250   0.317  10.342  0.0404  0.0121 -0.4015
  139SAPE    C115102   5.123   0.376  10.308  0.4794  0.0780 -0.2608
  139SAPE    HA15103   5.100   0.463  10.373  1.6816 -0.2800  0.6800
  139SAPE    HB15104   5.120   0.430  10.211  1.9596 -1.2092 -1.0722
  139SAPE    C215105   5.012   0.270  10.305  0.1321  0.8228  0.2013
  139SAPE    HS15106   5.040   0.197  10.384  0.6356 -1.5346 -2.0370
  139SAPE   O2115107   5.015   0.212  10.169  0.6707 -0.0094 -0.0959
  139SAPE   C2115108   4.937   0.099  10.167 -0.1849 -0.3377  0.0824
  139SAPE   O2215109   4.887   0.041  10.262 -0.1211 -0.3939 -0.6536
  139SAPE   C2215110   4.918   0.061  10.023  0.0505 -1.0561 -0.0818
  139SAPE   H2R15111   4.859   0.141   9.973  0.1165 -0.1594  1.2272
  139SAPE   H2S15112   5.019   0.067   9.978 -0.4819  0.9056 -1.1580
  139SAPE    C315113   4.877   0.334  10.349 -0.1163 -0.0908  0.9849
  139SAPE    HX15114   4.877   0.359  10.457 -1.4513  1.5163  0.6551
  139SAPE    HY15115   4.796   0.259  10.346  1.2137 -1.6246  2.0543
  139SAPE   O3115116   4.868   0.455  10.276 -0.0372  0.6080  0.7227
  139SAPE   C3115117   4.771   0.451  10.183  0.3381  0.8121  0.2098
  139SAPE   O3215118   4.700   0.350  10.170  0.3179  0.2020  0.0461
  139SAPE   C3215119   4.772   0.576  10.102 -0.1970 -0.3555  0.2195
  139SAPE   H2X15120   4.835   0.648  10.160 -1.9427  0.2397  1.4499
  139SAPE   H2Y15121   4.671   0.621  10.102 -0.1974 -0.3517  0.7974
  139SAPE   C2315122   4.863  -0.085   9.997 -0.4056  0.0965 -0.0046
  139SAPE   H3R15123   4.772  -0.096  10.060 -0.3385  0.0563  0.0836
  139SAPE   H3S15124   4.936  -0.158  10.037  1.5050  2.3486  0.8113
  139SAPE   C2415125   4.812  -0.107   9.853  0.5207 -0.1810 -0.4769
  139SAPE   H4R15126   4.761  -0.014   9.819 -1.3050 -0.0947  2.1838
  139SAPE   H4S15127   4.749  -0.198   9.860  0.5292 -0.2168 -0.8247
  139SAPE   C2515128   4.945  -0.125   9.781  0.3047 -0.0289  0.5896
  139SAPE   H5R15129   4.979  -0.228   9.795  0.3193 -0.1531 -0.3072
  139SAPE   C2615130   5.014  -0.042   9.703 -0.1960  0.2899 -0.2477
  139SAPE   H6R15131   5.113  -0.079   9.672 -1.8551 -3.3297 -1.8496
  139SAPE   C2715132   4.999   0.102   9.657  0.2570  1.0943  0.0453
  139SAPE   H7R15133   5.082   0.154   9.709  0.8551 -0.5303  0.7668
  139SAPE   H7S15134   4.898   0.138   9.688 -0.3218  0.6191 -1.2163
  139SAPE   C2815135   5.001   0.108   9.510  0.1311  0.1298 -0.0980
  139SAPE   H8R15136   4.975   0.013   9.462 -2.1234 -0.1548  1.5207
  139SAPE   C2915137   5.044   0.211   9.436  0.5121 -0.2956 -0.0607
  139SAPE   H9R15138   5.040   0.198   9.327  0.1022  1.3886 -0.2727
  139SAPE  C21015139   5.106   0.339   9.475 -0.0827 -0.1520 -0.0114
  139SAPE  H10R15140   5.124   0.396   9.381  3.2622 -1.4954 -0.3395
  139SAPE  H10S15141   5.210   0.328   9.513 -0.3230  1.2457  1.0879
  139SAPE  C21115142   5.009   0.427   9.558 -0.1523 -0.5613  0.8132
  139SAPE  H11R15143   5.066   0.476   9.638 -0.0604 -2.6555  2.1109
  139SAPE  C21215144   4.879   0.451   9.535 -0.4194 -0.1217 -0.7614
  139SAPE  H12R15145   4.836   0.523   9.608 -1.4604 -1.2036 -0.2733
  139SAPE  C21315146   4.787   0.390   9.434 -0.0741 -0.1006  0.3330
  139SAPE  H13R15147   4.723   0.307   9.471 -0.0426 -1.0802 -1.6524
  139SAPE  H13S15148   4.844   0.355   9.345 -0.1275 -1.8364  0.9390
  139SAPE  C21415149   4.692   0.493   9.378 -0.5827 -0.6206  0.2235
  139SAPE  H14R15150   4.681   0.597   9.411 -0.5685 -0.2300 -0.9674
  139SAPE  C21515151   4.610   0.465   9.274  1.0243  0.1749 -0.5800
  139SAPE  H15R15152   4.546   0.538   9.222 -0.2765 -2.5007 -3.0417
  139SAPE  C21615153   4.600   0.335   9.205  0.0272 -0.0112  0.4481
  139SAPE  H16R15154   4.504   0.338   9.149  0.3240  1.2942 -0.0262
  139SAPE  H16S15155   4.598   0.249   9.276  0.0166  0.3959  0.9394
  139SAPE  C21715156   4.713   0.311   9.102  0.7420  0.6098 -0.3099
  139SAPE  H17R15157   4.667   0.233   9.038  0.0964 -1.8740  2.8709
  139SAPE  H17S15158   4.795   0.264   9.160  0.3774 -0.3857 -0.5692
  139SAPE  C21815159   4.756   0.428   9.010 -0.6517  0.0383 -0.2996
  139SAPE  H18R15160   4.804   0.513   9.063  0.3566 -0.7696  0.1243
  139SAPE  H18S15161   4.660   0.467   8.972 -1.2729 -1.1682 -0.0072
  139SAPE  C21915162   4.839   0.375   8.888 -0.2516  0.5045 -0.3949
  139SAPE  H19R15163   4.799   0.279   8.850 -2.5626  0.9148  0.8305
  139SAPE  H19S15164   4.945   0.359   8.917 -1.1398 -0.7323  2.4871
  139SAPE  C22015165   4.839   0.488   8.783  0.7267 -0.2625 -0.4353
  139SAPE  H20R15166   4.740   0.498   8.734  0.5615 -0.8331 -0.2309
  139SAPE  H20S15167   4.911   0.456   8.704 -0.9529 -0.6141 -1.8882
  139SAPE  H20T15168   4.861   0.584   8.833 -1.9383  0.2838 -0.1497
  139SAPE   C3315169   4.827   0.556   9.960  0.1640 -0.2237 -0.8160
  139SAPE   H3X15170   4.766   0.467   9.934 -1.0158  0.6419 -1.0784
  139SAPE   H3Y15171   4.936   0.533   9.964  0.6404  1.9461  0.9784
  139SAPE   C3415172   4.792   0.663   9.868  0.8269 -0.3528  0.1545
  139SAPE   H4X15173   4.879   0.677   9.800  1.9282 -0.3169  1.5368
  139SAPE   H4Y15174   4.786   0.761   9.920 -2.4209  1.1891 -2.7146
  139SAPE   C3515175   4.658   0.647   9.798 -0.2799  0.0938  0.0714
  139SAPE   H5X15176   4.587   0.640   9.883 -0.1423 -0.2253  0.1624
  139SAPE   H5Y15177   4.644   0.551   9.743  2.7219 -0.4014 -0.0161
  139SAPE   C3615178   4.626   0.776   9.715 -0.3992  0.1015 -0.0722
  139SAPE   H6X15179   4.703   0.788   9.636  1.5757 -1.1347  1.5451
  139SAPE   H6Y15180   4.643   0.862   9.783  1.6698 -0.5539  0.3115
  139SAPE   C3715181   4.483   0.778   9.655 -0.4261  0.3210 -0.0579
  139SAPE   H7X15182   4.466   0.883   9.622  1.1400  1.2319  1.8148
  139SAPE   H7Y15183   4.415   0.760   9.741  0.9404  0.7670  1.1524
  139SAPE   C3815184   4.455   0.672   9.540 -0.5456  0.5212 -0.2209
  139SAPE   H8X15185   4.487   0.568   9.561 -2.2590 -0.4079 -1.8428
  139SAPE   H8Y15186   4.511   0.720   9.456 -2.0977  2.4126 -0.2601
  139SAPE   C3915187   4.310   0.665   9.486  0.0835  0.5338  0.3809
  139SAPE   H9X15188   4.252   0.758   9.474 -0.0573  0.7937  2.7179
  139SAPE   H9Y15189   4.260   0.603   9.563  1.2392 -0.7341  0.1630
  139SAPE  C31015190   4.310   0.587   9.351  0.1750 -0.7580  0.3610
  139SAPE  H10X15191   4.369   0.494   9.368  0.3828 -0.5337  0.9012
  139SAPE  H10Y15192   4.370   0.645   9.279  0.6265 -0.3171  1.0785
  139SAPE  C31115193   4.173   0.556   9.290  0.7388  0.2205  0.9586
  139SAPE  H11X15194   4.117   0.649   9.268  1.4947  0.2254 -1.2456
  139SAPE  H11Y15195   4.102   0.506   9.359 -0.5486  3.0198  1.8017
  139SAPE  C31215196   4.194   0.485   9.151  0.4936 -0.4380  0.5603
  139SAPE  H12X15197   4.234   0.382   9.164  0.5068 -0.2656  2.2252
  139SAPE  H12Y15198   4.264   0.541   9.085 -0.4151 -0.4030 -0.3949
  139SAPE  C31315199   4.062   0.481   9.076  0.0053  0.5532 -0.6615
  139SAPE  H13X15200   4.022   0.585   9.069  1.9758  1.5985  1.9647
  139SAPE  H13Y15201   3.990   0.425   9.139 -1.1334  0.0220 -2.3454
  139SAPE  C31415202   4.090   0.414   8.944  0.1445  0.6375  0.3676
  139SAPE  H14X15203   3.992   0.393   8.895  1.1369 -1.8597 -0.7190
  139SAPE  H14Y15204   4.144   0.317   8.950 -0.8376  0.0265 -0.3406
  139SAPE  C31515205   4.176   0.501   8.847  0.0888 -0.6194  0.1912
  139SAPE  H15X15206   4.269   0.536   8.897 -1.0688 -2.1175  3.6865
  139SAPE  H15Y15207   4.123   0.596   8.824  0.8168  0.3958  2.4672
  139SAPE  C31615208   4.208   0.442   8.715  0.9779  0.2668  0.6894
  139SAPE  H16X15209   4.260   0.344   8.711  1.5741  0.6206 -0.9069
  139SAPE  H16Y15210   4.109   0.424   8.668  0.0668  1.2044  2.1415
  139SAPE  C31715211   4.299   0.540   8.627 -0.0477 -0.1690 -0.1056
  139SAPE  H17X15212   4.236   0.631   8.610  1.9099  0.9735 -1.7793
  139SAPE  H17Y15213   4.308   0.481   8.533  0.8821 -2.5953  1.4267
  139SAPE  C31815214   4.440   0.570   8.672 -0.4404 -0.2317 -0.0607
  139SAPE  H18X15215   4.497   0.627   8.596  0.0898 -2.1770 -1.1902
  139SAPE  H18Y15216   4.497   0.482   8.707  0.1252 -0.0091 -0.4063
  139SAPE  H18Z15217   4.427   0.629   8.766 -2.7291 -1.1747  0.2955
  140SAPE     N15218   2.114   3.356  11.143  0.3506 -0.5624  0.2304
  140SAPE   HN115219   2.148   3.269  11.096 -0.1970 -1.7284  1.9192
  140SAPE   HN215220   2.156   3.354  11.238  1.3248  3.7772  0.1155
  140SAPE   HN315221   2.012   3.338  11.150  0.0596  0.7197 -0.3332
  140SAPE   C1215222   2.128   3.493  11.081  0.2774  0.3812  0.3605
  140SAPE  H12A15223   2.107   3.502  10.973  0.9357 -1.7916 -0.0032
  140SAPE  H12B15224   2.235   3.509  11.107  0.2606 -0.9732  1.3895
  140SAPE   C1115225   2.042   3.584  11.167 -0.0250 -0.1569 -0.5850
  140SAPE  H11A15226   2.055   3.686  11.125  0.2222  0.4023  0.8010
  140SAPE  H11B15227   2.075   3.600  11.272 -1.7613 -0.4945  0.0391
  140SAPE     P15228   1.784   3.633  11.201 -0.0350 -0.1353  0.5707
  140SAPE   O1315229   1.661   3.562  11.235  0.4186 -0.0952  0.1685
  140SAPE   O1415230   1.838   3.713  11.306  0.3624 -0.3514 -0.1170
  140SAPE   O1215231   1.905   3.540  11.161 -0.1942 -0.4971 -0.2088
  140SAPE   O1115232   1.763   3.725  11.076 -0.2722  0.0058  0.2397
  140SAPE    C115233   1.734   3.664  10.951 -0.6376  0.1857  0.3924
  140SAPE    HA15234   1.755   3.737  10.870  0.3328 -1.7366 -1.1740
  140SAPE    HB15235   1.806   3.584  10.925 -0.8850  0.7020 -2.1639
  140SAPE    C215236   1.595   3.609  10.937  0.0530 -0.6586  0.3573
  140SAPE    HS15237   1.585   3.529  11.013  0.7096 -0.7683  0.3374
  140SAPE   O2115238   1.593   3.552  10.802 -0.0503  0.0435 -0.2175
  140SAPE   C2115239   1.471   3.506  10.753  0.1342  0.0125 -0.3999
  140SAPE   O2215240   1.371   3.497  10.824 -0.3395  0.0555 -0.6811
  140SAPE   C2215241   1.493   3.490  10.605  0.5952 -0.4251 -0.2289
  140SAPE   H2R15242   1.512   3.591  10.563  0.3645 -0.3211 -0.0857
  140SAPE   H2S15243   1.583   3.424  10.603  0.1776 -1.0131 -2.7457
  140SAPE    C315244   1.492   3.725  10.970 -0.5072  0.0489  0.0702
  140SAPE    HX15245   1.488   3.744  11.079 -0.6757 -1.9695  0.4481
  140SAPE    HY15246   1.388   3.695  10.945 -0.7171 -0.1449  1.1219
  140SAPE   O3115247   1.533   3.842  10.902 -0.2050 -0.2702 -0.5204
  140SAPE   C3115248   1.474   3.865  10.786  0.3580 -0.0349 -0.9240
  140SAPE   O3215249   1.392   3.790  10.737  0.1702  0.3267  0.9724
  140SAPE   C3215250   1.531   3.989  10.715 -0.5077 -0.6459  0.7143
  140SAPE   H2X15251   1.641   3.992  10.728 -0.0036 -0.6472 -2.7720
  140SAPE   H2Y15252   1.481   4.074  10.765 -2.5364 -1.1013 -0.4332
  140SAPE   C2315253   1.376   3.430  10.540  0.0080 -0.1583  0.4009
  140SAPE   H3R15254   1.299   3.508  10.525  2.6499  1.9601 -3.9127
  140SAPE   H3S15255   1.333   3.345  10.598 -0.9560  1.0530  1.5317
  140SAPE   C2415256   1.405   3.370  10.405 -0.3156  0.1584  0.7672
  140SAPE   H4R15257   1.476   3.286  10.418  0.1241  0.2219 -0.9814
  140SAPE   H4S15258   1.452   3.449  10.343  0.9645 -1.6677 -0.7127
  140SAPE   C2515259   1.278   3.329  10.344  0.0784 -0.1310  0.4739
  140SAPE   H5R15260   1.189   3.387  10.369 -0.4497 -0.1355 -1.2887
  140SAPE   C2615261   1.277   3.233  10.251 -1.0198  0.2965  0.3788
  140SAPE   H6R15262   1.181   3.209  10.201 -1.2927 -0.0957  1.0761
  140SAPE   C2715263   1.391   3.146  10.202 -0.2185  0.8695  0.6318
  140SAPE   H7R15264   1.494   3.175  10.233  0.3199  0.0745 -0.3612
  140SAPE   H7S15265   1.390   3.146  10.091  0.3701  1.9943  0.6092
  140SAPE   C2815266   1.380   3.011  10.261  0.4265  0.5547 -0.4395
  140SAPE   H8R15267   1.416   2.996  10.364  0.9338 -0.8984 -0.7933
  140SAPE   C2915268   1.320   2.907  10.193 -0.2114  0.3359 -0.6601
  140SAPE   H9R15269   1.336   2.807  10.237 -1.0218  1.3874  2.2841
  140SAPE  C21015270   1.256   2.909  10.060 -0.4226  0.4775  0.4379
  140SAPE  H10R15271   1.259   2.804  10.022  0.4946  0.8552 -0.5866
  140SAPE  H10S15272   1.322   2.966   9.991  0.0391  1.0531  1.3519
  140SAPE  C21115273   1.111   2.955  10.057 -0.4790 -0.2947  0.5355
  140SAPE  H11R15274   1.055   2.929  10.148  0.3675  0.6947  1.3738
  140SAPE  C21215275   1.046   3.026   9.969  0.2448  0.1539  0.0368
  140SAPE  H12R15276   0.939   3.050   9.977  1.0084  4.4463 -0.3707
  140SAPE  C21315277   1.111   3.084   9.846  0.2816  0.1542  0.7168
  140SAPE  H13R15278   1.214   3.125   9.861  0.1954  0.2131  1.1653
  140SAPE  H13S15279   1.051   3.170   9.809 -1.6653 -1.3475  0.2726
  140SAPE  C21415280   1.132   2.985   9.732 -0.0047  0.4802 -0.2999
  140SAPE  H14R15281   1.190   2.896   9.761 -0.7723  0.2567  0.5519
  140SAPE  C21515282   1.079   2.979   9.611  0.3937 -0.2017 -0.6042
  140SAPE  H15R15283   1.114   2.919   9.526  0.0412  0.6684 -1.3837
  140SAPE  C21615284   0.986   3.084   9.561 -0.4817 -1.0122 -0.2646
  140SAPE  H16R15285   1.053   3.166   9.526  0.6831 -0.9922  1.8299
  140SAPE  H16S15286   0.924   3.133   9.639 -1.6529  0.4227 -2.0123
  140SAPE  C21715287   0.897   3.045   9.443 -0.0169  0.4255 -0.0373
  140SAPE  H17R15288   0.825   3.125   9.415 -3.4531 -1.7786  1.7466
  140SAPE  H17S15289   0.826   2.966   9.478  1.0265 -1.0844 -1.1920
  140SAPE  C21815290   0.971   3.006   9.317  0.9117  0.5386  0.0688
  140SAPE  H18R15291   0.902   2.967   9.239  1.3751  0.0194 -0.0880
  140SAPE  H18S15292   1.054   2.936   9.338  1.6216  0.4374 -2.6353
  140SAPE  C21915293   1.045   3.128   9.253  0.0172  0.1793 -0.0771
  140SAPE  H19R15294   1.131   3.170   9.309 -1.1034  1.1375  1.0183
  140SAPE  H19S15295   0.972   3.212   9.244  0.6973  0.6048 -2.1626
  140SAPE  C22015296   1.106   3.087   9.119  0.1025 -0.4545  0.0884
  140SAPE  H20R15297   1.143   3.176   9.064  2.4625  0.2525  2.5766
  140SAPE  H20S15298   1.037   3.028   9.054 -1.3840  0.7416  0.5084
  140SAPE  H20T15299   1.187   3.015   9.142 -1.0049 -1.5524  0.7216
  140SAPE   C3315300   1.497   3.976  10.562  0.5219  0.3440  0.5922
  140SAPE   H3X15301   1.397   3.929  10.552  0.4084  0.1991  2.2652
  140SAPE   H3Y15302   1.572   3.901  10.530  0.5502  0.2250  0.9332
  140SAPE   C3415303   1.518   4.095  10.459  0.6484 -0.3701 -0.3635
  140SAPE   H4X15304   1.626   4.120  10.459  0.4644  0.5497 -1.9566
  140SAPE   H4Y15305   1.467   4.184  10.502  0.4802 -0.6509  0.0258
  140SAPE   C3515306   1.476   4.074  10.312 -0.5952 -0.2296 -0.4459
  140SAPE   H5X15307   1.370   4.040  10.310 -0.6841 -0.0403  0.7615
  140SAPE   H5Y15308   1.529   3.988  10.265  3.2885  2.4497 -1.4780
  140SAPE   C3615309   1.466   4.197  10.218 -0.9112 -0.3951 -0.0333
  140SAPE   H6X15310   1.568   4.240  10.209 -0.7623 -0.2228  2.0006
  140SAPE   H6Y15311   1.411   4.283  10.262  1.4439  1.4060 -0.4380
  140SAPE   C3715312   1.394   4.158  10.087  0.1092 -0.1740  0.6464
  140SAPE   H7X15313   1.290   4.120  10.089  1.0493 -2.9399  2.1722
  140SAPE   H7Y15314   1.441   4.066  10.047 -1.3658 -1.0455  0.8446
  140SAPE   C3815315   1.416   4.268   9.980  0.4256 -0.1278 -0.1605
  140SAPE   H8X15316   1.526   4.286   9.975  0.3234  1.8393  2.5319
  140SAPE   H8Y15317   1.363   4.362  10.006 -2.4559 -1.8470  0.5908
  140SAPE   C3915318   1.359   4.224   9.842  0.1727  1.0084  0.4103
  140SAPE   H9X15319   1.249   4.233   9.830  0.2238  1.3968  0.2248
  140SAPE   H9Y15320   1.382   4.115   9.840  1.2622  1.2337 -0.7900
  140SAPE  C31015321   1.424   4.280   9.715  0.1601 -0.8204 -0.2227
  140SAPE  H10X15322   1.534   4.277   9.726  0.1562  1.0369  0.7566
  140SAPE  H10Y15323   1.406   4.390   9.708 -0.0646 -0.4606  3.9194
  140SAPE  C31115324   1.364   4.208   9.588 -0.2748 -0.9442  0.1406
  140SAPE  H11X15325   1.254   4.220   9.593 -0.1380  0.1710  0.8939
  140SAPE  H11Y15326   1.407   4.106   9.587  1.1390 -0.3878  0.3133
  140SAPE  C31215327   1.405   4.289   9.459 -0.2229 -0.6755  0.4222
  140SAPE  H12X15328   1.510   4.327   9.466 -0.3215 -0.4743  0.8580
  140SAPE  H12Y15329   1.349   4.385   9.463  0.0157 -0.4882 -0.5736
  140SAPE  C31315330   1.377   4.216   9.329 -0.5693  0.0534  0.0142
  140SAPE  H13X15331   1.273   4.229   9.294 -0.7455  2.0950  1.1309
  140SAPE  H13Y15332   1.417   4.112   9.329  1.9582  0.9291  1.5652
  140SAPE  C31415333   1.470   4.284   9.227 -0.2389 -0.3525  0.2810
  140SAPE  H14X15334   1.569   4.232   9.232  0.7344  1.3256 -0.7976
  140SAPE  H14Y15335   1.483   4.389   9.261 -1.4139  0.8697 -2.7573
  140SAPE  C31515336   1.421   4.293   9.086 -0.0024 -0.6712 -0.3585
  140SAPE  H15X15337   1.352   4.378   9.066  1.1923  0.3098 -0.4175
  140SAPE  H15Y15338   1.358   4.204   9.060 -0.7195  0.0109 -1.0144
  140SAPE  C31615339   1.534   4.271   8.977 -0.1780 -0.3268 -0.3240
  140SAPE  H16X15340   1.581   4.172   8.993 -0.6234 -0.8584 -2.1158
  140SAPE  H16Y15341   1.616   4.345   8.990  1.3330 -1.9466 -0.3832
  140SAPE  C31715342   1.493   4.296   8.836  0.8397  0.5071  0.4717
  140SAPE  H17X15343   1.454   4.400   8.830 -2.6901 -0.7162  0.3002
  140SAPE  H17Y15344   1.412   4.226   8.808  1.9371  0.3463 -2.7140
  140SAPE  C31815345   1.595   4.268   8.735  1.3630 -0.1850 -0.4362
  140SAPE  H18X15346   1.693   4.320   8.747  1.1917  0.2129 -0.7153
  140SAPE  H18Y15347   1.551   4.292   8.635  1.2705 -1.9697 -0.8462
  140SAPE  H18Z15348   1.631   4.164   8.748  2.1699  0.4498  3.8656
  141SAPE     N15349   1.701   4.843  10.703  0.0716  0.0268  0.1309
  141SAPE   HN115350   1.728   4.926  10.760  3.2020 -0.3892 -0.5847
  141SAPE   HN215351   1.727   4.859  10.604  0.8500 -0.9864  0.1581
  141SAPE   HN315352   1.597   4.835  10.710 -0.2000  1.4166 -1.6069
  141SAPE   C1215353   1.759   4.718  10.762 -1.0077  0.1493  0.4539
  141SAPE  H12A15354   1.866   4.743  10.782 -1.2269 -0.5080  2.7372
  141SAPE  H12B15355   1.749   4.640  10.683 -0.3247 -0.2277  0.7265
  141SAPE   C1115356   1.702   4.671  10.889  0.1957 -0.6820  0.5728
  141SAPE  H11A15357   1.723   4.565  10.912 -0.7569 -1.1381 -0.5647
  141SAPE  H11B15358   1.591   4.673  10.876 -0.1938 -0.6560  3.2559
  141SAPE     P15359   1.848   4.733  11.105 -0.2221  0.3357  0.0602
  141SAPE   O1315360   1.888   4.869  11.142 -0.2367 -0.3439  0.3862
  141SAPE   O1415361   1.795   4.655  11.214  0.2457  0.3654 -0.6827
  141SAPE   O1215362   1.741   4.757  11.002 -0.2086 -0.3488  0.3052
  141SAPE   O1115363   1.973   4.665  11.039 -0.1651  0.3936  0.0487
  141SAPE    C115364   1.989   4.523  11.019 -0.2907 -0.7193  0.0778
  141SAPE    HA15365   1.982   4.466  11.114 -1.6699  0.3263  0.6465
  141SAPE    HB15366   1.909   4.474  10.960  0.9421 -1.0030 -1.4200
  141SAPE    C215367   2.123   4.510  10.948  0.1597 -0.0327  0.1238
  141SAPE    HS15368   2.199   4.574  10.998  0.0836  0.5243 -0.4539
  141SAPE   O2115369   2.111   4.558  10.814  0.2820  1.2550 -0.0618
  141SAPE   C2115370   2.221   4.582  10.745  0.0063 -0.4050 -0.3890
  141SAPE   O2215371   2.334   4.576  10.799  0.4326 -0.1310  0.3609
  141SAPE   C2215372   2.192   4.625  10.603  0.0553  0.8904  0.4726
  141SAPE   H2R15373   2.190   4.529  10.548  0.2155 -0.3217  2.4987
  141SAPE   H2S15374   2.091   4.672  10.608 -0.4155  0.4214 -2.4284
  141SAPE    C315375   2.165   4.358  10.943  0.1410 -0.1796 -0.0399
  141SAPE    HX15376   2.180   4.329  11.050 -0.5895  2.1226  0.7403
  141SAPE    HY15377   2.255   4.353  10.879 -0.8816  1.3895 -1.6882
  141SAPE   O3115378   2.067   4.268  10.883 -0.4833 -0.5025  0.2092
  141SAPE   C3115379   2.067   4.248  10.752 -0.4145  0.6337 -0.1413
  141SAPE   O3215380   2.160   4.283  10.676 -0.2181  0.0983 -0.1243
  141SAPE   C3215381   1.938   4.173  10.713  0.1187  0.1390  1.2932
  141SAPE   H2X15382   1.852   4.219  10.766 -1.7098 -1.7957  0.1489
  141SAPE   H2Y15383   1.947   4.069  10.751  1.3125 -0.3886 -0.3330
  141SAPE   C2315384   2.302   4.719  10.548  0.5637 -0.3424  0.3238
  141SAPE   H3R15385   2.396   4.659  10.550  0.0833 -1.0965  0.4662
  141SAPE   H3S15386   2.305   4.806  10.617  0.7407 -0.5334  0.5564
  141SAPE   C2415387   2.269   4.772  10.408 -0.0189  0.5936 -0.5272
  141SAPE   H4R15388   2.340   4.853  10.379  0.5616  0.3173  0.0838
  141SAPE   H4S15389   2.169   4.816  10.425 -0.8444 -1.9180  1.9721
  141SAPE   C2515390   2.259   4.670  10.296 -0.5970  0.1462  0.2347
  141SAPE   H5R15391   2.179   4.594  10.300 -1.4517  1.0470  0.8048
  141SAPE   C2615392   2.352   4.654  10.201 -0.5886  0.3601  0.0027
  141SAPE   H6R15393   2.333   4.581  10.121  1.9477 -0.9206  0.4623
  141SAPE   C2715394   2.483   4.726  10.186 -0.4154 -0.5451  0.0221
  141SAPE   H7R15395   2.563   4.652  10.208 -0.6605 -0.7475  0.2381
  141SAPE   H7S15396   2.504   4.798  10.268  0.1739 -1.2722  0.5293
  141SAPE   C2815397   2.513   4.765  10.045  0.0066 -0.1079 -0.3598
  141SAPE   H8R15398   2.465   4.857  10.007 -0.0323 -0.0300 -0.1257
  141SAPE   C2915399   2.593   4.695   9.967 -0.1790 -0.1185  0.3962
  141SAPE   H9R15400   2.606   4.735   9.866  0.7083 -0.4076  0.3804
  141SAPE  C21015401   2.662   4.555   9.997  0.3616 -0.1641  0.4479
  141SAPE  H10R15402   2.596   4.483  10.048  0.4544 -0.8808 -0.4124
  141SAPE  H10S15403   2.750   4.572  10.063  0.1091 -2.0646  1.3477
  141SAPE  C21115404   2.706   4.486   9.865 -0.2321 -0.6310 -0.8953
  141SAPE  H11R15405   2.814   4.491   9.846 -0.1513  1.5335 -0.1453
  141SAPE  C21215406   2.627   4.421   9.769  0.0395  0.0279 -0.2507
  141SAPE  H12R15407   2.675   4.399   9.672 -0.2368  0.2554 -0.4415
  141SAPE  C21315408   2.476   4.398   9.769  0.0307 -0.3652 -0.2050
  141SAPE  H13R15409   2.443   4.394   9.875 -1.4860 -0.9283 -0.6842
  141SAPE  H13S15410   2.454   4.298   9.728  1.8428 -0.8283 -0.1412
  141SAPE  C21415411   2.400   4.512   9.697 -0.4169  0.1671  0.7851
  141SAPE  H14R15412   2.385   4.603   9.756  0.2909 -0.2382  1.6023
  141SAPE  C21515413   2.347   4.516   9.570 -0.6167  0.6994 -0.1269
  141SAPE  H15R15414   2.291   4.608   9.549 -0.4321  0.8114 -0.1329
  141SAPE  C21615415   2.362   4.406   9.465  0.3334 -0.6104  0.8110
  141SAPE  H16R15416   2.265   4.355   9.447 -0.3200  1.2326 -1.2247
  141SAPE  H16S15417   2.433   4.325   9.492 -0.2756 -1.0352  1.1656
  141SAPE  C21715418   2.421   4.449   9.329  0.4024  0.3032  0.9110
  141SAPE  H17R15419   2.520   4.496   9.349  0.6018  0.4011 -0.2280
  141SAPE  H17S15420   2.368   4.540   9.292  0.5554  0.6695  1.5678
  141SAPE  C21815421   2.416   4.329   9.227 -0.6441 -0.7280 -0.2382
  141SAPE  H18R15422   2.313   4.290   9.235  0.1639 -2.8958  0.3843
  141SAPE  H18S15423   2.481   4.250   9.271  0.7847  0.2576 -0.4949
  141SAPE  C21915424   2.452   4.369   9.080 -0.1088 -0.5438 -0.2287
  141SAPE  H19R15425   2.563   4.378   9.082 -0.1186 -0.1707  2.4847
  141SAPE  H19S15426   2.401   4.465   9.060  0.3376  0.5168  3.0405
  141SAPE  C22015427   2.407   4.263   8.983  0.0717  0.0555  0.3351
  141SAPE  H20R15428   2.444   4.168   9.029 -0.1428 -0.0695  0.2536
  141SAPE  H20S15429   2.449   4.271   8.881  0.8483 -0.1884  0.6243
  141SAPE  H20T15430   2.296   4.251   8.983  0.0156  0.5628  0.0104
  141SAPE   C3315431   1.916   4.175  10.554 -0.1973  0.3693 -1.0663
  141SAPE   H3X15432   1.842   4.094  10.539  0.1807 -0.2977  0.3851
  141SAPE   H3Y15433   2.010   4.150  10.500  0.1067  2.0415 -1.3678
  141SAPE   C3415434   1.856   4.303  10.499 -0.1510 -0.1554  0.9183
  141SAPE   H4X15435   1.901   4.394  10.545  1.0306  0.1298 -0.7021
  141SAPE   H4Y15436   1.752   4.312  10.537  0.5178  1.9499  2.4369
  141SAPE   C3515437   1.848   4.314  10.343 -0.1519 -0.3419 -0.1341
  141SAPE   H5X15438   1.750   4.366  10.331  0.4793  0.9856  0.3340
  141SAPE   H5Y15439   1.824   4.216  10.295 -3.5133 -0.4863  1.5499
  141SAPE   C3615440   1.960   4.405  10.287  0.0629  0.3160  0.8322
  141SAPE   H6X15441   2.045   4.334  10.276 -1.1377 -1.0533 -0.0437
  141SAPE   H6Y15442   1.974   4.481  10.367 -2.8741 -0.5338  2.2924
  141SAPE   C3715443   1.912   4.472  10.152  0.2490 -0.2060  0.5066
  141SAPE   H7X15444   1.998   4.538  10.126  1.3774 -0.7165  2.7476
  141SAPE   H7Y15445   1.821   4.526  10.186  0.2238  0.1002 -0.0283
  141SAPE   C3815446   1.880   4.371  10.034  0.0912  0.4009 -0.5492
  141SAPE   H8X15447   1.803   4.300  10.071  2.0206 -1.6924 -0.3512
  141SAPE   H8Y15448   1.971   4.309  10.020 -0.1266  0.5734 -3.1806
  141SAPE   C3915449   1.835   4.432   9.899 -0.3663 -0.0254  0.4292
  141SAPE   H9X15450   1.909   4.510   9.870 -2.1636  1.7592  0.4736
  141SAPE   H9Y15451   1.734   4.477   9.894  0.1344  1.0185 -0.7794
  141SAPE  C31015452   1.859   4.336   9.780  0.4808 -0.2648 -0.3821
  141SAPE  H10X15453   1.790   4.249   9.795 -3.5203  2.5341 -0.9506
  141SAPE  H10Y15454   1.963   4.299   9.788  1.2357  2.0856  2.9951
  141SAPE  C31115455   1.819   4.407   9.651 -0.5326 -0.5356 -0.4645
  141SAPE  H11X15456   1.876   4.500   9.629 -0.2562 -0.6503 -0.2380
  141SAPE  H11Y15457   1.715   4.445   9.662 -0.5763 -1.0795  1.4295
  141SAPE  C31215458   1.846   4.321   9.521  0.4818  0.5085 -0.3643
  141SAPE  H12X15459   1.783   4.380   9.452 -0.6312 -1.0555 -0.7313
  141SAPE  H12Y15460   1.803   4.220   9.536 -1.1240  0.9291 -1.8667
  141SAPE  C31315461   1.988   4.312   9.474  0.9755  0.3145  0.2739
  141SAPE  H13X15462   2.067   4.274   9.542  3.1704  2.5348 -0.8871
  141SAPE  H13Y15463   2.015   4.417   9.451 -0.0826  0.0603 -2.6328
  141SAPE  C31415464   2.008   4.249   9.339  0.0583  0.9039  0.2047
  141SAPE  H14X15465   2.113   4.261   9.305 -0.1867  3.0616  0.0453
  141SAPE  H14Y15466   1.948   4.307   9.265 -2.2180 -0.4629  0.8796
  141SAPE  C31515467   1.979   4.099   9.318  0.7282  0.2119 -0.3776
  141SAPE  H15X15468   1.870   4.095   9.338  0.7713  2.2410  0.5283
  141SAPE  H15Y15469   2.031   4.038   9.394 -1.9125 -0.9271  0.6269
  141SAPE  C31615470   2.006   4.055   9.174  0.3845  0.5839 -1.6199
  141SAPE  H16X15471   2.018   3.945   9.185 -0.9435  0.4984 -0.8492
  141SAPE  H16Y15472   2.099   4.100   9.135  0.7635  1.5345  0.2847
  141SAPE  C31715473   1.902   4.088   9.064 -0.2101  0.3179 -0.8752
  141SAPE  H17X15474   1.896   4.199   9.056  1.2827  0.4400 -0.7293
  141SAPE  H17Y15475   1.804   4.041   9.083 -0.7360  1.8225  0.2731
  141SAPE  C31815476   1.951   4.037   8.929  0.7708  0.6981 -0.2708
  141SAPE  H18X15477   1.969   3.928   8.940  2.1539  0.9387 -0.0329
  141SAPE  H18Y15478   2.046   4.091   8.914  1.5273 -0.5175  0.0299
  141SAPE  H18Z15479   1.883   4.066   8.846  0.3646  2.1782  0.5394
  142SAPE     N15480   2.654   4.103  10.935  0.3260  0.0535  0.1148
  142SAPE   HN115481   2.599   4.031  10.986 -1.7412  1.4980  0.0304
  142SAPE   HN215482   2.676   4.070  10.839 -0.0362 -1.1725  0.4358
  142SAPE   HN315483   2.732   4.132  10.998 -0.5251  1.6151  0.4881
  142SAPE   C1215484   2.571   4.229  10.937 -0.0554 -0.0280  0.3136
  142SAPE  H12A15485   2.463   4.209  10.917 -0.2658 -0.0894  1.4465
  142SAPE  H12B15486   2.614   4.298  10.862 -1.2903  0.2462 -0.1766
  142SAPE   C1115487   2.576   4.306  11.066  0.0309 -0.6990 -0.1434
  142SAPE  H11A15488   2.542   4.239  11.148 -0.0340 -1.7878 -1.0407
  142SAPE  H11B15489   2.517   4.400  11.070  0.6055 -0.3441  3.2777
  142SAPE     P15490   2.797   4.455  11.045  0.3317  0.1618  0.3795
  142SAPE   O1315491   2.721   4.580  11.027  0.5954 -0.2668 -0.1018
  142SAPE   O1415492   2.923   4.460  11.120 -0.2382  0.1156  0.3719
  142SAPE   O1215493   2.711   4.335  11.109  0.2301 -0.5740  0.1319
  142SAPE   O1115494   2.835   4.402  10.903 -0.1170  0.2206 -0.1510
  142SAPE    C115495   2.821   4.468  10.777 -0.4651 -1.0452 -1.3042
  142SAPE    HA15496   2.730   4.531  10.771 -2.1694 -2.8528  2.0285
  142SAPE    HB15497   2.914   4.526  10.764  1.2149 -3.5039 -0.9328
  142SAPE    C215498   2.817   4.364  10.662  0.2152  0.0794  0.0423
  142SAPE    HS15499   2.855   4.414  10.571  2.8743 -0.1922  0.9035
  142SAPE   O2115500   2.684   4.316  10.646  0.7663 -0.6703  0.1094
  142SAPE   C2115501   2.603   4.382  10.572 -0.3491 -0.1251  0.2968
  142SAPE   O2215502   2.616   4.494  10.527 -0.2588  0.3373 -0.4540
  142SAPE   C2215503   2.474   4.300  10.560 -0.1990  0.2662  0.0113
  142SAPE   H2R15504   2.436   4.267  10.659 -0.7284 -1.3576 -0.6924
  142SAPE   H2S15505   2.393   4.361  10.513 -1.0008 -1.2105 -0.5869
  142SAPE    C315506   2.910   4.240  10.691  0.3465 -0.0379  0.5681
  142SAPE    HX15507   2.902   4.204  10.796  1.6834 -3.8110 -0.4880
  142SAPE    HY15508   3.012   4.283  10.693  0.3342 -0.0210  0.8425
  142SAPE   O3115509   2.911   4.150  10.577  0.4053 -0.1161 -0.2269
  142SAPE   C3115510   2.815   4.055  10.584  0.1385  0.0420 -0.0448
  142SAPE   O3215511   2.751   4.038  10.685  0.4310  0.2620  0.1987
  142SAPE   C3215512   2.821   3.967  10.461  0.1322  0.3751  0.0621
  142SAPE   H2X15513   2.913   3.988  10.402  0.5077  1.6978  1.0838
  142SAPE   H2Y15514   2.725   3.986  10.407 -0.0635 -0.6805  0.0113
  142SAPE   C2315515   2.490   4.176  10.467  0.3832 -0.7753 -0.6427
  142SAPE   H3R15516   2.390   4.131  10.449  1.2431 -3.4884  0.8824
  142SAPE   H3S15517   2.537   4.096  10.527  0.0696 -1.8313 -1.7612
  142SAPE   C2415518   2.557   4.190  10.330 -0.4753 -0.8292  0.2453
  142SAPE   H4R15519   2.573   4.093  10.279 -0.8195 -3.1241  4.0516
  142SAPE   H4S15520   2.660   4.231  10.346 -0.9396  0.3198  0.3964
  142SAPE   C2515521   2.482   4.291  10.242  0.3011  0.0175  0.7709
  142SAPE   H5R15522   2.506   4.398  10.257 -0.2230  0.2169  0.2177
  142SAPE   C2615523   2.393   4.260  10.143  0.0212 -0.4487  0.5428
  142SAPE   H6R15524   2.353   4.343  10.083 -0.5787  0.0547  1.6276
  142SAPE   C2715525   2.349   4.122  10.112  0.3742  0.5782  0.1322
  142SAPE   H7R15526   2.247   4.121  10.068  1.3004 -0.5799 -2.1509
  142SAPE   H7S15527   2.340   4.069  10.208  2.8089 -1.0667 -0.4788
  142SAPE   C2815528   2.447   4.050  10.019  0.3486  0.5688  0.5098
  142SAPE   H8R15529   2.548   4.046  10.062  1.0376 -1.2593 -1.1422
  142SAPE   C2915530   2.421   4.003   9.897 -0.2264 -0.1529  0.3472
  142SAPE   H9R15531   2.501   3.949   9.845  0.5114 -1.7338  2.8994
  142SAPE  C21015532   2.284   4.007   9.828  0.1613  0.0641  0.4377
  142SAPE  H10R15533   2.270   4.106   9.780  1.1418  1.0243  2.0665
  142SAPE  H10S15534   2.205   3.988   9.903 -0.1353 -1.4613 -0.2158
  142SAPE  C21115535   2.269   3.895   9.729  0.1380  0.3958  0.0838
  142SAPE  H11R15536   2.229   3.809   9.784 -1.1661  2.1276  1.9993
  142SAPE  C21215537   2.293   3.901   9.594  0.4577  0.4049 -0.3365
  142SAPE  H12R15538   2.284   3.807   9.537  1.6146  0.3003 -0.3809
  142SAPE  C21315539   2.336   4.019   9.512 -0.2826  0.0855 -0.0161
  142SAPE  H13R15540   2.369   4.109   9.569  1.5744 -0.7650  0.3107
  142SAPE  H13S15541   2.245   4.044   9.453 -0.3904  0.9238  0.4816
  142SAPE  C21415542   2.448   3.989   9.414  0.0750 -0.1058 -0.2784
  142SAPE  H14R15543   2.542   4.038   9.445 -0.3739  1.9498 -1.9615
  142SAPE  C21515544   2.440   3.935   9.289  0.1830 -0.5376 -0.9329
  142SAPE  H15R15545   2.537   3.909   9.243  0.5047 -0.9242 -0.0572
  142SAPE  C21615546   2.319   3.867   9.245 -0.1514 -0.9479  0.2231
  142SAPE  H16R15547   2.225   3.921   9.266  0.0576 -1.0679  1.5474
  142SAPE  H16S15548   2.300   3.767   9.291  0.1773 -1.1021  0.0293
  142SAPE  C21715549   2.321   3.856   9.091  0.0704 -0.0321 -0.0032
  142SAPE  H17R15550   2.326   3.959   9.051 -2.6711  0.1468 -0.0738
  142SAPE  H17S15551   2.224   3.816   9.053  0.9550 -1.7567 -0.5703
  142SAPE  C21815552   2.419   3.759   9.018 -0.0706 -0.2406 -0.3369
  142SAPE  H18R15553   2.405   3.661   9.068  0.5056  1.0533  2.5537
  142SAPE  H18S15554   2.514   3.805   9.053 -0.1279  0.0946 -0.6191
  142SAPE  C21915555   2.415   3.753   8.861  0.2208  0.3672 -0.5809
  142SAPE  H19R15556   2.308   3.736   8.835 -0.2320 -0.0918  1.3701
  142SAPE  H19S15557   2.458   3.657   8.826 -0.1899  0.0262 -0.1667
  142SAPE  C22015558   2.482   3.873   8.795 -0.2443  0.1062  0.2529
  142SAPE  H20R15559   2.583   3.882   8.841 -0.0324 -0.6337 -0.0600
  142SAPE  H20S15560   2.427   3.967   8.819  0.7404 -0.0017  3.4336
  142SAPE  H20T15561   2.502   3.862   8.687  0.0186  2.6226 -0.0222
  142SAPE   C3315562   2.817   3.815  10.486 -0.5006  0.2986  0.4627
  142SAPE   H3X15563   2.733   3.778  10.550 -0.3752 -0.2462  0.3179
  142SAPE   H3Y15564   2.905   3.794  10.550  0.2900 -0.2753 -0.7872
  142SAPE   C3415565   2.839   3.731  10.360 -0.6805  1.0107  0.4053
  142SAPE   H4X15566   2.836   3.622  10.381  2.5453  1.2825  3.1349
  142SAPE   H4Y15567   2.941   3.761  10.328  0.8618 -1.8023  2.2719
  142SAPE   C3515568   2.750   3.756  10.244  0.0630 -0.1060 -0.5339
  142SAPE   H5X15569   2.730   3.865  10.235 -1.5684 -0.3589 -0.2761
  142SAPE   H5Y15570   2.647   3.718  10.258 -0.3067  1.1652  0.4827
  142SAPE   C3615571   2.813   3.701  10.114 -0.6966  0.0657 -0.0715
  142SAPE   H6X15572   2.840   3.594  10.120 -1.4570 -0.2519 -1.7099
  142SAPE   H6Y15573   2.916   3.742  10.106 -0.5922 -0.4968 -2.2496
  142SAPE   C3715574   2.727   3.736   9.998  0.2345  0.6066 -0.6291
  142SAPE   H7X15575   2.733   3.846   9.996  2.9588  0.5583  0.5266
  142SAPE   H7Y15576   2.620   3.706  10.007  0.5268 -0.2680  0.2470
  142SAPE   C3815577   2.773   3.676   9.874 -0.2505  0.2640 -0.1145
  142SAPE   H8X15578   2.804   3.571   9.891  2.8999  1.1386  0.2444
  142SAPE   H8Y15579   2.869   3.723   9.844 -1.3263  0.4327 -3.7438
  142SAPE   C3915580   2.679   3.678   9.753 -1.0797  0.4455  0.0165
  142SAPE   H9X15581   2.658   3.785   9.733 -1.7616  0.4797  0.8228
  142SAPE   H9Y15582   2.587   3.620   9.779 -1.2067  0.1258 -1.1268
  142SAPE  C31015583   2.755   3.605   9.638 -0.1656 -0.1803  0.2763
  142SAPE  H10X15584   2.796   3.504   9.659 -0.1115  0.0860  1.5486
  142SAPE  H10Y15585   2.842   3.666   9.604 -1.0512  0.7876 -0.3101
  142SAPE  C31115586   2.672   3.601   9.505  0.3540  0.6229  0.6589
  142SAPE  H11X15587   2.627   3.699   9.479 -1.3374 -0.5719 -1.1321
  142SAPE  H11Y15588   2.592   3.527   9.526  1.7390 -1.6092 -1.5175
  142SAPE  C31215589   2.754   3.552   9.380 -0.0835  0.5210  0.5465
  142SAPE  H12X15590   2.786   3.447   9.399 -3.2896 -0.3812  1.6590
  142SAPE  H12Y15591   2.842   3.613   9.352  0.9089 -1.6608 -1.4690
  142SAPE  C31315592   2.659   3.549   9.265 -0.0583  0.0299 -0.4112
  142SAPE  H13X15593   2.610   3.644   9.238 -0.6202 -0.6851 -2.0007
  142SAPE  H13Y15594   2.578   3.473   9.270 -0.6138  0.3902 -2.9071
  142SAPE  C31415595   2.730   3.501   9.135  0.8365 -0.3820 -0.1386
  142SAPE  H14X15596   2.791   3.413   9.166  1.2752 -0.1911 -0.4380
  142SAPE  H14Y15597   2.803   3.578   9.102  2.2742 -1.7029 -0.1485
  142SAPE  C31515598   2.633   3.458   9.024  0.0867 -0.3736  0.5350
  142SAPE  H15X15599   2.583   3.550   8.988  0.2658  0.5239  2.4457
  142SAPE  H15Y15600   2.555   3.385   9.055 -1.5900  0.9374 -0.4393
  142SAPE  C31615601   2.707   3.405   8.908  1.0044  0.2821  0.5089
  142SAPE  H16X15602   2.738   3.303   8.941 -1.5063 -0.2850  1.3584
  142SAPE  H16Y15603   2.795   3.466   8.879 -0.1673  0.6803 -2.5408
  142SAPE  C31715604   2.620   3.403   8.781 -0.6423 -0.3786 -0.3178
  142SAPE  H17X15605   2.682   3.345   8.709  1.5409  0.0715  1.1048
  142SAPE  H17Y15606   2.611   3.509   8.748 -0.6093 -0.2578  0.0554
  142SAPE  C31815607   2.481   3.343   8.801 -0.2333 -0.0134 -0.0467
  142SAPE  H18X15608   2.421   3.383   8.885  0.1109  0.5722 -0.0722
  142SAPE  H18Y15609   2.493   3.236   8.830 -2.5002 -0.0307  1.0234
  142SAPE  H18Z15610   2.418   3.349   8.709  1.4187  2.8511 -1.1124
  143SAPE     N15611   4.269   3.314  11.152 -0.1331  0.3981 -0.0164
  143SAPE   HN115612   4.221   3.392  11.102 -1.0303  0.8282  1.4555
  143SAPE   HN215613   4.334   3.254  11.098 -0.4957 -1.3582  1.4271
  143SAPE   HN315614   4.197   3.249  11.190  1.4972 -1.3142  0.2351
  143SAPE   C1215615   4.352   3.381  11.258  0.3250 -0.2892 -0.1399
  143SAPE  H12A15616   4.381   3.302  11.331  1.1409 -0.3796 -0.5571
  143SAPE  H12B15617   4.297   3.462  11.311  3.0086  1.6000 -0.0209
  143SAPE   C1115618   4.482   3.435  11.199 -0.0538  0.5718  0.7671
  143SAPE  H11A15619   4.539   3.484  11.280 -1.4189  2.6711  0.5493
  143SAPE  H11B15620   4.448   3.518  11.133 -0.2999 -0.5685 -0.5931
  143SAPE     P15621   4.675   3.264  11.156 -0.1552 -0.1599 -0.3237
  143SAPE   O1315622   4.781   3.359  11.206  0.3242  0.0762  0.0824
  143SAPE   O1415623   4.641   3.152  11.244 -0.3479  0.1003 -0.4939
  143SAPE   O1215624   4.550   3.347  11.111 -0.7543 -0.1783  0.1619
  143SAPE   O1115625   4.717   3.214  11.021 -0.8389  0.0394 -0.2807
  143SAPE    C115626   4.727   3.296  10.900  0.4198  0.2147  0.6875
  143SAPE    HA15627   4.677   3.395  10.902 -0.6214 -0.2822  0.3568
  143SAPE    HB15628   4.834   3.314  10.878  0.2026 -1.9926 -3.1254
  143SAPE    C215629   4.669   3.217  10.774 -0.3523  0.3420  0.0431
  143SAPE    HS15630   4.561   3.199  10.795 -0.5152  1.2051  0.0167
  143SAPE   O2115631   4.740   3.100  10.741 -0.8617  0.2314 -0.3675
  143SAPE   C2115632   4.664   2.990  10.731 -0.3598  0.1361 -0.6160
  143SAPE   O2215633   4.549   2.981  10.759  0.2472  0.1172 -0.6916
  143SAPE   C2215634   4.766   2.867  10.722  0.0685 -0.7771  0.5566
  143SAPE   H2R15635   4.846   2.891  10.650 -0.5659 -1.5958 -0.4393
  143SAPE   H2S15636   4.798   2.839  10.825 -2.0074  1.3452  1.8902
  143SAPE    C315637   4.679   3.308  10.649 -0.2267 -0.7091  0.0827
  143SAPE    HX15638   4.782   3.299  10.609 -0.3512 -0.7930 -0.2254
  143SAPE    HY15639   4.655   3.412  10.679 -0.6514 -1.2938  1.8911
  143SAPE   O3115640   4.590   3.260  10.550 -0.1404 -0.1417  0.8119
  143SAPE   C3115641   4.470   3.328  10.539  0.1230  0.3756  0.1618
  143SAPE   O3215642   4.436   3.407  10.622  0.2866  0.2564  0.5015
  143SAPE   C3215643   4.383   3.275  10.426 -0.2356  0.8933 -0.0923
  143SAPE   H2X15644   4.312   3.196  10.459 -0.1122  0.0699 -1.6967
  143SAPE   H2Y15645   4.446   3.230  10.346 -3.9112 -0.7529 -2.2788
  143SAPE   C2315646   4.695   2.745  10.667 -0.4135  0.2306 -0.2589
  143SAPE   H3R15647   4.615   2.708  10.735 -0.2492 -1.9760 -1.1622
  143SAPE   H3S15648   4.768   2.661  10.670 -0.2851  0.2080 -2.4316
  143SAPE   C2415649   4.635   2.754  10.524 -0.2391  0.2024  0.1937
  143SAPE   H4R15650   4.590   2.855  10.523  1.1664  0.8448 -0.6811
  143SAPE   H4S15651   4.558   2.676  10.503  0.4115 -0.5413  0.5406
  143SAPE   C2515652   4.740   2.747  10.421 -0.6182  0.4166  0.2933
  143SAPE   H5R15653   4.784   2.646  10.425 -0.5138  0.3853 -1.1390
  143SAPE   C2615654   4.778   2.843  10.334 -0.0470 -0.6795  0.6969
  143SAPE   H6R15655   4.859   2.819  10.265  1.8586  0.1032  2.5589
  143SAPE   C2715656   4.709   2.979  10.311 -0.5683  0.3124  0.2024
  143SAPE   H7R15657   4.626   3.003  10.382  1.7120  2.1866  2.4464
  143SAPE   H7S15658   4.672   2.978  10.206 -0.5434 -0.7107  0.1946
  143SAPE   C2815659   4.806   3.092  10.340  1.2199 -0.3843  0.3171
  143SAPE   H8R15660   4.800   3.126  10.445 -1.0456 -1.4557  0.6062
  143SAPE   C2915661   4.883   3.153  10.243 -0.0870 -0.5214  0.3401
  143SAPE   H9R15662   4.958   3.228  10.275 -1.2990  0.1966  1.6555
  143SAPE  C21015663   4.888   3.119  10.097  0.3180  0.1386  0.3526
  143SAPE  H10R15664   4.802   3.170  10.048  0.8470  0.4375 -0.2817
  143SAPE  H10S15665   4.854   3.014  10.090 -0.7097  0.5278 -0.8285
  143SAPE  C21115666   5.023   3.154  10.035  0.7542  0.4205 -0.0677
  143SAPE  H11R15667   5.105   3.176  10.106  1.1903  0.4578 -0.5751
  143SAPE  C21215668   5.048   3.184   9.904 -0.2604  0.4973 -0.3601
  143SAPE  H12R15669   5.155   3.200   9.881 -0.4323 -0.3807 -1.8817
  143SAPE  C21315670   4.947   3.191   9.801  0.4983  0.1219 -0.3418
  143SAPE  H13R15671   4.850   3.156   9.841  0.9271  0.7468  1.3195
  143SAPE  H13S15672   4.977   3.126   9.716 -1.3599 -1.4617  0.1326
  143SAPE  C21415673   4.916   3.331   9.757 -0.0519 -0.0967 -1.4055
  143SAPE  H14R15674   4.869   3.392   9.835  1.1147  0.6402 -1.2608
  143SAPE  C21515675   4.938   3.374   9.631  0.3832 -0.7456  0.2229
  143SAPE  H15R15676   4.902   3.474   9.602 -0.4652 -1.0114  0.3061
  143SAPE  C21615677   5.001   3.302   9.520  0.0570  0.5353 -0.0346
  143SAPE  H16R15678   5.093   3.250   9.556 -0.1644 -0.5484 -1.0130
  143SAPE  H16S15679   5.044   3.369   9.442  1.5201 -1.3997 -0.9606
  143SAPE  C21715680   4.901   3.198   9.451 -0.4354 -0.6017 -0.5866
  143SAPE  H17R15681   4.876   3.106   9.509  2.5976 -1.6770 -0.7764
  143SAPE  H17S15682   4.956   3.164   9.360  1.3687 -0.6232  0.4616
  143SAPE  C21815683   4.778   3.253   9.382  0.6040  0.2925 -0.1414
  143SAPE  H18R15684   4.761   3.187   9.294  1.3859 -1.7661  1.1526
  143SAPE  H18S15685   4.800   3.356   9.349  2.2413 -0.1633 -0.5642
  143SAPE  C21915686   4.653   3.257   9.470  0.0387 -0.3055  0.2969
  143SAPE  H19R15687   4.664   3.319   9.561 -1.5630  2.2731 -1.1275
  143SAPE  H19S15688   4.643   3.152   9.504  2.4708 -0.9734 -0.8103
  143SAPE  C22015689   4.528   3.306   9.395 -0.3837  0.0581 -0.4535
  143SAPE  H20R15690   4.556   3.383   9.320 -2.1706  1.4809  0.2604
  143SAPE  H20S15691   4.455   3.351   9.466  0.7825  1.6119 -0.1830
  143SAPE  H20T15692   4.482   3.220   9.341 -2.6950 -0.5048  2.1973
  143SAPE   C3315693   4.286   3.382  10.368  0.1894  0.3510  0.3086
  143SAPE   H3X15694   4.341   3.453  10.303 -0.6549 -1.2718 -2.3337
  143SAPE   H3Y15695   4.234   3.441  10.447  0.9687  1.5592 -0.0517
  143SAPE   C3415696   4.188   3.319  10.268  0.5772 -0.4669 -0.1934
  143SAPE   H4X15697   4.130   3.398  10.217  1.0098  1.1463  1.6971
  143SAPE   H4Y15698   4.109   3.266  10.326  0.2726 -1.3100 -1.3518
  143SAPE   C3515699   4.255   3.222  10.170 -0.1524  1.0296 -0.0656
  143SAPE   H5X15700   4.299   3.130  10.214 -0.1377  1.1860  0.2500
  143SAPE   H5Y15701   4.341   3.276  10.124 -1.0820  0.4620 -2.6671
  143SAPE   C3615702   4.173   3.192  10.047 -0.5703  0.0405  0.0163
  143SAPE   H6X15703   4.114   3.285  10.031 -1.8330 -0.2009  2.7753
  143SAPE   H6Y15704   4.101   3.119  10.090 -0.7359 -0.3205 -0.8552
  143SAPE   C3715705   4.256   3.139   9.926 -0.0959 -0.4219  0.6988
  143SAPE   H7X15706   4.332   3.081   9.983 -0.5732 -1.2674  0.4925
  143SAPE   H7Y15707   4.284   3.225   9.862  0.8167 -0.5144  0.9665
  143SAPE   C3815708   4.184   3.037   9.837 -0.3954  0.7518 -0.4033
  143SAPE   H8X15709   4.078   3.064   9.821 -0.5228 -0.2729 -1.3761
  143SAPE   H8Y15710   4.184   2.933   9.876 -0.6348 -0.0176 -2.3374
  143SAPE   C3915711   4.246   3.022   9.698  0.6414  0.0611 -0.3866
  143SAPE   H9X15712   4.346   2.978   9.717  0.4381  0.1063  0.8312
  143SAPE   H9Y15713   4.243   3.123   9.651 -1.9156 -0.2148 -0.9860
  143SAPE  C31015714   4.173   2.926   9.605  0.3093 -0.0315  0.2070
  143SAPE  H10X15715   4.063   2.945   9.610  0.3991  1.8839 -2.5325
  143SAPE  H10Y15716   4.185   2.822   9.641  2.1163  0.4414  1.0875
  143SAPE  C31115717   4.224   2.950   9.464  0.7204 -0.8741  0.0447
  143SAPE  H11X15718   4.204   3.057   9.441  1.8715 -1.0512 -1.9840
  143SAPE  H11Y15719   4.161   2.889   9.396  2.4686 -2.2609 -0.3990
  143SAPE  C31215720   4.373   2.913   9.446  0.3183 -0.7507 -0.2737
  143SAPE  H12X15721   4.384   2.811   9.488 -1.8489 -0.6795  0.5697
  143SAPE  H12Y15722   4.432   2.987   9.504 -0.9661 -2.2522  3.1712
  143SAPE  C31315723   4.405   2.925   9.299  0.5224 -0.0799  0.1681
  143SAPE  H13X15724   4.373   3.024   9.260 -0.4097  0.3347  1.8726
  143SAPE  H13Y15725   4.339   2.850   9.251  1.0483 -0.8424  0.6147
  143SAPE  C31415726   4.551   2.905   9.261 -0.9026 -0.2504  0.0562
  143SAPE  H14X15727   4.588   2.800   9.263  1.5220  0.4635 -1.9206
  143SAPE  H14Y15728   4.603   2.964   9.340 -1.0554  0.0745 -0.0858
  143SAPE  C31515729   4.586   2.969   9.129 -0.8386 -0.1919 -0.3851
  143SAPE  H15X15730   4.535   3.068   9.130 -1.4068 -0.4733 -0.7495
  143SAPE  H15Y15731   4.556   2.907   9.041  1.8431  2.1536 -3.1823
  143SAPE  C31615732   4.738   2.987   9.104 -0.1996  0.3087 -0.1039
  143SAPE  H16X15733   4.775   2.886   9.074  1.1350  1.5870 -3.1048
  143SAPE  H16Y15734   4.783   3.023   9.199  0.2946  1.3988 -0.7365
  143SAPE  C31715735   4.789   3.075   8.994 -0.8091 -0.3534  0.9021
  143SAPE  H17X15736   4.738   3.173   9.002 -0.4968 -0.1625  0.5775
  143SAPE  H17Y15737   4.771   3.034   8.892  0.8770 -0.4046  0.6066
  143SAPE  C31815738   4.941   3.092   9.005 -0.3309 -0.2764  0.0216
  143SAPE  H18X15739   4.978   3.170   8.935 -0.5680 -1.1639 -1.1236
  143SAPE  H18Y15740   5.011   3.008   8.984  2.0151  1.9252 -1.5838
  143SAPE  H18Z15741   4.963   3.116   9.111 -0.5120 -1.2687  0.2997
  144SAPE     N15742   6.139   1.025  11.302 -0.5159 -0.3989 -0.4342
  144SAPE   HN115743   6.180   0.941  11.348  2.2771  1.4286  0.7156
  144SAPE   HN215744   6.066   1.055  11.369  1.2246  0.8883  0.9742
  144SAPE   HN315745   6.094   0.997  11.212  0.2235 -0.8544 -0.6811
  144SAPE   C1215746   6.248   1.132  11.263 -0.2808 -0.2224  0.2461
  144SAPE  H12A15747   6.346   1.083  11.279 -0.7647 -1.1845  0.3423
  144SAPE  H12B15748   6.231   1.215  11.335 -0.0656  0.5468 -0.5743
  144SAPE   C1115749   6.236   1.173  11.115  0.3328  0.4369  0.1778
  144SAPE  H11A15750   6.136   1.198  11.075  1.6163  4.6406 -0.9905
  144SAPE  H11B15751   6.267   1.089  11.050 -0.2218  0.0171  0.4421
  144SAPE     P15752   6.465   1.273  11.053 -0.1066  0.4896  0.0748
  144SAPE   O1315753   6.534   1.404  11.042  0.3946 -0.0379  0.1578
  144SAPE   O1415754   6.526   1.173  11.145  0.0479 -0.1319 -0.3296
  144SAPE   O1215755   6.318   1.292  11.103  0.3886  0.0032 -0.3073
  144SAPE   O1115756   6.432   1.224  10.908 -0.0024  0.1584 -0.0555
  144SAPE    C115757   6.384   1.303  10.800  0.2277 -0.2124 -0.4530
  144SAPE    HA15758   6.273   1.311  10.802  0.1515 -1.1764  0.1051
  144SAPE    HB15759   6.421   1.406  10.820  1.6868 -0.8385  0.2354
  144SAPE    C215760   6.452   1.265  10.660 -0.4308 -0.4629 -0.7716
  144SAPE    HS15761   6.493   1.361  10.624 -0.0956 -0.2863  0.0491
  144SAPE   O2115762   6.357   1.207  10.574  0.0867  0.9384  0.0113
  144SAPE   C2115763   6.271   1.298  10.525 -0.0460  0.1484 -0.1053
  144SAPE   O2215764   6.277   1.419  10.557  0.0552 -0.3177  0.3844
  144SAPE   C2215765   6.176   1.238  10.426 -0.1610  0.5497 -0.1004
  144SAPE   H2R15766   6.173   1.129  10.449 -2.3711  1.3189  4.3102
  144SAPE   H2S15767   6.081   1.293  10.435 -0.8219 -0.7232  1.0693
  144SAPE    C315768   6.575   1.171  10.666 -0.4635  0.5363 -0.5352
  144SAPE    HX15769   6.547   1.070  10.702  1.7110 -0.1271 -0.5814
  144SAPE    HY15770   6.648   1.204  10.743 -0.8059  0.2265 -0.0691
  144SAPE   O3115771   6.631   1.171  10.530  0.1036  0.4335 -0.4847
  144SAPE   C3115772   6.719   1.070  10.505 -0.3320 -0.1962  0.3023
  144SAPE   O3215773   6.760   0.994  10.588 -0.2308  0.1406 -0.5573
  144SAPE   C3215774   6.758   1.080  10.359  0.8160 -0.3702  0.2960
  144SAPE   H2X15775   6.822   1.172  10.361 -1.8543  1.6542  3.0410
  144SAPE   H2Y15776   6.662   1.107  10.311  0.7213  0.9428  1.1596
  144SAPE   C2315777   6.228   1.270  10.284  0.2568 -0.3355 -0.1814
  144SAPE   H3R15778   6.252   1.379  10.281 -0.8084 -0.0635  0.4890
  144SAPE   H3S15779   6.152   1.269  10.204  0.4778 -2.5358 -0.4142
  144SAPE   C2415780   6.354   1.195  10.242 -0.4093 -0.6016 -0.3876
  144SAPE   H4R15781   6.431   1.215  10.319  1.1915  2.2141 -2.5457
  144SAPE   H4S15782   6.394   1.244  10.151 -2.7567 -1.1073 -1.8031
  144SAPE   C2515783   6.346   1.051  10.208 -0.4535 -0.3291  0.0600
  144SAPE   H5R15784   6.300   0.987  10.284 -2.1415 -0.8711 -1.3775
  144SAPE   C2615785   6.371   0.990  10.090 -0.9995  0.1934 -0.4227
  144SAPE   H6R15786   6.364   0.880  10.091  0.3330  0.0789  1.2294
  144SAPE   C2715787   6.414   1.060   9.961  0.2236  0.5349 -0.2715
  144SAPE   H7R15788   6.391   1.167   9.975 -1.7323  0.0080  0.8292
  144SAPE   H7S15789   6.358   1.025   9.871 -0.1342  3.2037 -1.1769
  144SAPE   C2815790   6.563   1.052   9.926  0.1618  0.9231 -0.0440
  144SAPE   H8R15791   6.628   1.088  10.007 -1.5258  0.4189  1.6035
  144SAPE   C2915792   6.615   0.997   9.811 -0.0139 -0.3809 -0.0756
  144SAPE   H9R15793   6.724   1.008   9.808  0.2141 -2.4910 -1.0535
  144SAPE  C21015794   6.527   0.942   9.697 -0.0651 -0.4239 -0.5175
  144SAPE  H10R15795   6.456   1.022   9.668 -0.0023 -0.1095  0.1739
  144SAPE  H10S15796   6.459   0.871   9.749  2.7733 -2.0861  1.1587
  144SAPE  C21115797   6.573   0.865   9.574 -0.4196  0.3253  0.3266
  144SAPE  H11R15798   6.627   0.773   9.599 -0.1297 -0.8127 -3.7099
  144SAPE  C21215799   6.535   0.881   9.447 -0.2471 -0.0894 -0.5725
  144SAPE  H12R15800   6.587   0.823   9.369  2.4017  0.7643  0.4843
  144SAPE  C21315801   6.449   0.994   9.405  0.0835 -0.6846  0.5821
  144SAPE  H13R15802   6.486   1.042   9.312  0.1090  1.4841  1.6636
  144SAPE  H13S15803   6.453   1.080   9.475 -1.6227  0.7299 -0.9437
  144SAPE  C21415804   6.305   0.950   9.370 -0.9576 -0.2557 -0.4820
  144SAPE  H14R15805   6.238   0.949   9.456 -0.8583 -0.4503 -0.4052
  144SAPE  C21515806   6.250   0.899   9.261  0.2219  0.2396  0.3690
  144SAPE  H15R15807   6.144   0.868   9.266  0.9216 -2.5919 -0.6420
  144SAPE  C21615808   6.324   0.868   9.125  0.3305  0.8177  0.1156
  144SAPE  H16R15809   6.341   0.759   9.120  2.5444  1.1710 -1.4067
  144SAPE  H16S15810   6.427   0.905   9.144  0.4741  0.1679  0.6439
  144SAPE  C21715811   6.250   0.925   9.000  0.2269  0.2421 -0.0411
  144SAPE  H17R15812   6.324   0.932   8.917 -0.5418 -0.5838 -0.8190
  144SAPE  H17S15813   6.235   1.030   9.031  1.9458  0.3322  0.6196
  144SAPE  C21815814   6.128   0.841   8.956  0.0769 -0.0757  0.0227
  144SAPE  H18R15815   6.052   0.892   8.892 -1.2336 -1.0765  0.7313
  144SAPE  H18S15816   6.088   0.794   9.048 -0.1194 -1.0814 -0.5629
  144SAPE  C21915817   6.165   0.717   8.869  0.0519 -0.2402  0.2833
  144SAPE  H19R15818   6.094   0.632   8.869 -0.9673  0.5819 -0.6386
  144SAPE  H19S15819   6.256   0.667   8.907 -0.2445 -0.8956  0.1394
  144SAPE  C22015820   6.201   0.751   8.727 -0.4061 -0.2652  0.0701
  144SAPE  H20R15821   6.116   0.765   8.657  0.2325  0.0567 -0.6596
  144SAPE  H20S15822   6.273   0.675   8.689 -1.7457 -1.6159  0.1410
  144SAPE  H20T15823   6.253   0.849   8.722 -1.3516  0.1862 -2.8105
  144SAPE   C3315824   6.819   0.956  10.295 -0.3657 -0.7699  0.5415
  144SAPE   H3X15825   6.901   0.922  10.362 -0.0116 -1.7340 -0.3482
  144SAPE   H3Y15826   6.858   1.001  10.201 -1.3737  1.3434  1.0720
  144SAPE   C3415827   6.731   0.845  10.235  0.0416 -0.4576 -0.0374
  144SAPE   H4X15828   6.630   0.886  10.214  0.0889 -0.1220  0.3879
  144SAPE   H4Y15829   6.720   0.763  10.310  0.4656 -0.2340  0.2711
  144SAPE   C3515830   6.781   0.782  10.102  0.1758  0.1191 -0.6861
  144SAPE   H5X15831   6.887   0.754  10.120  0.9576  1.7822 -2.3289
  144SAPE   H5Y15832   6.784   0.867  10.031 -2.7718 -0.9816 -2.3071
  144SAPE   C3615833   6.695   0.668  10.047 -0.0246 -0.5356 -0.3393
  144SAPE   H6X15834   6.587   0.692  10.035 -0.0164 -1.2475 -2.2307
  144SAPE   H6Y15835   6.700   0.581  10.115 -0.6777 -1.0033 -0.8807
  144SAPE   C3715836   6.741   0.632   9.900  0.3181  0.1981 -0.3821
  144SAPE   H7X15837   6.836   0.574   9.895  0.0578 -0.6773  2.7739
  144SAPE   H7Y15838   6.752   0.732   9.853  0.7091  0.1661 -0.3635
  144SAPE   C3815839   6.639   0.529   9.820  0.3200 -0.6730 -0.0591
  144SAPE   H8X15840   6.544   0.587   9.820  1.1568  0.7811 -2.1388
  144SAPE   H8Y15841   6.627   0.439   9.885 -2.7384 -0.7276 -0.5407
  144SAPE   C3915842   6.688   0.496   9.679 -0.0763  0.0435  0.0666
  144SAPE   H9X15843   6.783   0.438   9.681  0.9083  1.6190  0.6088
  144SAPE   H9Y15844   6.709   0.593   9.629 -0.9313  0.9991  1.4928
  144SAPE  C31015845   6.575   0.426   9.595 -0.5395 -0.5454  0.2913
  144SAPE  H10X15846   6.480   0.467   9.636 -0.4059  0.7060 -0.6009
  144SAPE  H10Y15847   6.584   0.320   9.627  2.0710 -0.3236  0.5067
  144SAPE  C31115848   6.574   0.434   9.437 -0.0721 -0.3489 -0.1743
  144SAPE  H11X15849   6.660   0.390   9.383  1.4535  0.1700  1.7402
  144SAPE  H11Y15850   6.566   0.542   9.409 -1.7394 -0.2802  0.4258
  144SAPE  C31215851   6.451   0.366   9.381  0.0347 -0.3065 -0.8705
  144SAPE  H12X15852   6.359   0.425   9.400  0.2756  0.0982 -0.9670
  144SAPE  H12Y15853   6.440   0.260   9.412  0.8931  0.3420  1.9258
  144SAPE  C31315854   6.451   0.359   9.227 -0.2586 -0.1864 -1.0087
  144SAPE  H13X15855   6.555   0.320   9.216 -0.9667 -2.8855  0.9815
  144SAPE  H13Y15856   6.438   0.460   9.181  0.0942 -0.3518 -1.4844
  144SAPE  C31415857   6.360   0.260   9.161  0.1383  0.8204  0.7493
  144SAPE  H14X15858   6.253   0.291   9.172 -0.6759 -2.0562  1.9964
  144SAPE  H14Y15859   6.372   0.159   9.205 -1.2415  1.2083  2.1377
  144SAPE  C31515860   6.388   0.268   9.014  0.8197  0.3600  0.0067
  144SAPE  H15X15861   6.498   0.273   9.000  0.6975  1.2706 -0.7225
  144SAPE  H15Y15862   6.340   0.359   8.972 -0.3610 -0.8155 -1.2976
  144SAPE  C31615863   6.325   0.157   8.932  0.2784  0.8936  0.5255
  144SAPE  H16X15864   6.215   0.164   8.946  0.2072 -0.2086  0.5815
  144SAPE  H16Y15865   6.345   0.055   8.971 -3.2293  0.5504  1.7925
  144SAPE  C31715866   6.360   0.161   8.784  0.0562  0.2155  0.0902
  144SAPE  H17X15867   6.466   0.127   8.779 -0.3784 -1.0181 -1.6070
  144SAPE  H17Y15868   6.357   0.264   8.744  2.2832 -0.0776 -1.0354
  144SAPE  C31815869   6.278   0.065   8.703 -0.4316  0.1790 -0.0636
  144SAPE  H18X15870   6.170   0.083   8.723 -0.6469 -1.2019  0.1380
  144SAPE  H18Y15871   6.313  -0.039   8.717 -0.4329  0.2827  0.7733
  144SAPE  H18Z15872   6.292   0.094   8.597  0.8994  0.3907  0.1546
  145SAPE     N15873   5.929   3.627  11.447  0.1124  0.7663 -0.1381
  145SAPE   HN115874   5.976   3.703  11.501  3.4795 -0.3382 -1.2760
  145SAPE   HN215875   5.887   3.567  11.521  0.3313 -0.9384 -1.3452
  145SAPE   HN315876   5.996   3.587  11.379  0.8516 -1.0056  1.5490
  145SAPE   C1215877   5.810   3.679  11.364 -0.3644 -0.0809  0.1372
  145SAPE  H12A15878   5.851   3.745  11.284  1.5457 -1.4379 -0.0638
  145SAPE  H12B15879   5.738   3.731  11.431 -1.7617 -0.5974 -0.9162
  145SAPE   C1115880   5.737   3.561  11.300  0.5366 -0.2768 -0.4895
  145SAPE  H11A15881   5.811   3.495  11.250 -1.8337 -3.0123 -0.5896
  145SAPE  H11B15882   5.678   3.587  11.210  0.7594 -3.4288 -1.6529
  145SAPE     P15883   5.648   3.326  11.401 -0.2397 -0.2859  0.0483
  145SAPE   O1315884   5.783   3.266  11.426 -0.3833 -0.0587  0.5249
  145SAPE   O1415885   5.541   3.295  11.497  0.0834  0.1854  0.4669
  145SAPE   O1215886   5.653   3.488  11.391 -0.0537  0.7804  0.2472
  145SAPE   O1115887   5.611   3.293  11.256 -0.2520 -0.4505 -0.2122
  145SAPE    C115888   5.483   3.339  11.212  0.2183 -0.8433  0.6625
  145SAPE    HA15889   5.404   3.295  11.277  0.2645 -1.6258  0.2009
  145SAPE    HB15890   5.481   3.450  11.203 -2.4883 -0.9391 -1.1056
  145SAPE    C215891   5.436   3.294  11.069 -0.2069  0.5060  0.3670
  145SAPE    HS15892   5.449   3.184  11.073 -0.9079  0.4512  1.8739
  145SAPE   O2115893   5.514   3.357  10.963 -0.3474  0.0555  0.4959
  145SAPE   C2115894   5.537   3.275  10.855  1.1982  0.1711  0.3465
  145SAPE   O2215895   5.508   3.160  10.845  0.0828  0.2608  0.2229
  145SAPE   C2215896   5.607   3.367  10.753  0.4353  0.5480 -0.2282
  145SAPE   H2R15897   5.532   3.437  10.711 -0.1646  0.1516  0.1750
  145SAPE   H2S15898   5.684   3.422  10.811  0.9637 -0.1999 -0.1960
  145SAPE    C315899   5.284   3.326  11.049 -0.0587 -0.1048 -0.0861
  145SAPE    HX15900   5.261   3.429  11.084 -0.3375  0.1780 -1.0733
  145SAPE    HY15901   5.221   3.277  11.127  0.6339 -0.8739 -0.0005
  145SAPE   O3115902   5.236   3.314  10.914  0.5675  0.8390 -0.2368
  145SAPE   C3115903   5.179   3.195  10.884  0.3054 -0.2513  0.1949
  145SAPE   O3215904   5.132   3.114  10.961 -0.0248 -0.4751  0.2487
  145SAPE   C3215905   5.178   3.177  10.740 -0.1082 -0.2094  0.3446
  145SAPE   H2X15906   5.279   3.150  10.704  0.1468  1.3488 -0.1414
  145SAPE   H2Y15907   5.166   3.276  10.692 -0.6278 -1.0297 -1.2620
  145SAPE   C2315908   5.669   3.292  10.638  0.2076 -0.2872  0.2791
  145SAPE   H3R15909   5.747   3.220  10.670  1.0955 -0.0560 -1.2791
  145SAPE   H3S15910   5.735   3.366  10.588 -2.9947  2.6439 -0.0437
  145SAPE   C2415911   5.577   3.245  10.523 -0.0634 -0.4321 -0.5233
  145SAPE   H4R15912   5.502   3.328  10.517  0.0920 -0.2212  0.4160
  145SAPE   H4S15913   5.528   3.154  10.563  0.3932 -1.0099 -1.2344
  145SAPE   C2515914   5.647   3.215  10.388 -0.3799 -0.0443 -0.1146
  145SAPE   H5R15915   5.747   3.170  10.391 -0.9010 -1.3531 -1.3049
  145SAPE   C2615916   5.601   3.230  10.259 -0.6163 -0.2826  0.2622
  145SAPE   H6R15917   5.670   3.199  10.180 -3.1660 -0.4620 -2.0519
  145SAPE   C2715918   5.465   3.284  10.220  0.0159 -0.3874  0.1250
  145SAPE   H7R15919   5.472   3.394  10.207  1.3749 -0.6566 -1.8210
  145SAPE   H7S15920   5.384   3.274  10.296 -0.3851 -1.1807 -0.3808
  145SAPE   C2815921   5.412   3.233  10.086  0.2243 -0.2636  0.1878
  145SAPE   H8R15922   5.335   3.155  10.096  1.9771 -1.9142  1.5843
  145SAPE   C2915923   5.451   3.271   9.965  0.1186 -0.5839 -0.0706
  145SAPE   H9R15924   5.398   3.233   9.877  0.8625  0.7220 -1.1176
  145SAPE  C21015925   5.557   3.377   9.938 -0.2200  0.3560 -0.3785
  145SAPE  H10R15926   5.624   3.398  10.025 -0.0359  0.2276 -0.4872
  145SAPE  H10S15927   5.525   3.480   9.913  0.3842  0.3400 -1.3037
  145SAPE  C21115928   5.657   3.324   9.833  0.3277 -0.2427 -0.3520
  145SAPE  H11R15929   5.754   3.287   9.871 -0.0299 -1.4514 -0.5812
  145SAPE  C21215930   5.646   3.316   9.705 -0.5633  0.6201  0.0485
  145SAPE  H12R15931   5.729   3.261   9.657  0.6768  1.0810  1.5771
  145SAPE  C21315932   5.531   3.338   9.619 -0.0777  0.3866  0.1051
  145SAPE  H13R15933   5.441   3.370   9.677 -1.1316 -0.9789 -0.7197
  145SAPE  H13S15934   5.503   3.241   9.572 -0.1487  0.4520  0.0128
  145SAPE  C21415935   5.575   3.430   9.508 -0.3513  0.1343  0.3338
  145SAPE  H14R15936   5.651   3.504   9.537  0.3048 -0.3121 -0.1975
  145SAPE  C21515937   5.542   3.430   9.378 -0.1918 -0.2702 -0.0219
  145SAPE  H15R15938   5.603   3.489   9.307  0.1070  0.5311  0.8815
  145SAPE  C21615939   5.453   3.322   9.318 -0.5546 -0.9374 -0.2026
  145SAPE  H16R15940   5.381   3.296   9.398 -1.6549  0.1821 -0.7872
  145SAPE  H16S15941   5.516   3.234   9.292  0.5469 -0.5075  0.8855
  145SAPE  C21715942   5.363   3.348   9.193 -0.0005  0.1767 -1.1697
  145SAPE  H17R15943   5.422   3.395   9.111 -0.1678  0.9444 -0.8616
  145SAPE  H17S15944   5.291   3.424   9.231 -2.0722 -1.4360 -1.7008
  145SAPE  C21815945   5.292   3.228   9.139  0.9116  0.6537  0.2034
  145SAPE  H18R15946   5.216   3.258   9.064  3.4969  1.9749 -2.0778
  145SAPE  H18S15947   5.232   3.193   9.226 -0.0628 -0.7162 -0.9911
  145SAPE  C21915948   5.382   3.115   9.077 -0.3701 -0.3095 -0.4444
  145SAPE  H19R15949   5.465   3.086   9.145  1.1053 -1.1994 -2.5275
  145SAPE  H19S15950   5.450   3.160   9.002 -0.5976  0.1625 -0.3736
  145SAPE  C22015951   5.309   2.994   9.030  0.0244  0.0430  0.1450
  145SAPE  H20R15952   5.378   2.919   8.985 -1.6343 -1.9860  0.7913
  145SAPE  H20S15953   5.225   3.026   8.965  0.5370 -0.8228 -0.9668
  145SAPE  H20T15954   5.261   2.931   9.109  1.3054 -1.4631 -0.2307
  145SAPE   C3315955   5.086   3.072  10.681 -0.1952  0.2404  0.3240
  145SAPE   H3X15956   4.986   3.117  10.700  0.5115  1.2438  1.8566
  145SAPE   H3Y15957   5.111   2.976  10.731  0.1218  0.3154  0.3090
  145SAPE   C3415958   5.100   3.048  10.533 -0.3011  0.6085 -0.2709
  145SAPE   H4X15959   5.115   3.140  10.473  2.7192 -0.0770 -0.7892
  145SAPE   H4Y15960   5.012   2.987  10.503 -0.7808  0.8302  0.6818
  145SAPE   C3515961   5.213   2.952  10.511 -0.3619  0.1381 -0.1460
  145SAPE   H5X15962   5.185   2.865  10.574  0.8907  0.4097  0.8033
  145SAPE   H5Y15963   5.310   2.989  10.550  0.2463 -0.6947 -0.8281
  145SAPE   C3615964   5.224   2.916  10.361  0.4385 -0.7209 -0.2242
  145SAPE   H6X15965   5.246   3.009  10.304 -0.4996  2.0511  3.5190
  145SAPE   H6Y15966   5.127   2.873  10.328  1.3690 -1.3591 -2.3016
  145SAPE   C3715967   5.336   2.809  10.339 -0.0191 -0.2006  0.0085
  145SAPE   H7X15968   5.320   2.724  10.408  1.2208 -0.0307  0.5377
  145SAPE   H7Y15969   5.430   2.861  10.369 -0.9137  1.1417  0.5698
  145SAPE   C3815970   5.338   2.769  10.192 -0.1777 -0.6470  0.6302
  145SAPE   H8X15971   5.244   2.716  10.164  0.9495 -1.4446 -2.0049
  145SAPE   H8Y15972   5.416   2.691  10.186 -0.6677 -1.3837  3.0904
  145SAPE   C3915973   5.361   2.882  10.093 -0.3436  0.1570  0.4634
  145SAPE   H9X15974   5.458   2.931  10.117  1.1460 -1.7201 -1.3298
  145SAPE   H9Y15975   5.279   2.956  10.101 -0.3069  0.2842 -0.2743
  145SAPE  C31015976   5.358   2.837   9.941  0.4777 -0.2717 -0.6375
  145SAPE  H10X15977   5.264   2.781   9.924  0.5512 -1.2086  1.6064
  145SAPE  H10Y15978   5.440   2.762   9.934  1.3653  0.7410 -1.3789
  145SAPE  C31115979   5.368   2.949   9.839 -0.0321  0.0601 -0.1308
  145SAPE  H11X15980   5.454   3.017   9.856  0.9668 -1.4576  1.1995
  145SAPE  H11Y15981   5.276   3.011   9.837  0.1658  0.3384 -2.1143
  145SAPE  C31215982   5.383   2.894   9.701 -0.0542  0.0791  0.0908
  145SAPE  H12X15983   5.472   2.827   9.695 -0.6035 -0.7779  1.2332
  145SAPE  H12Y15984   5.403   2.980   9.633 -2.5612  2.9395  2.6917
  145SAPE  C31315985   5.263   2.824   9.644 -0.0702 -0.1723 -0.0676
  145SAPE  H13X15986   5.173   2.882   9.675  0.1515  1.0645 -1.5836
  145SAPE  H13Y15987   5.250   2.735   9.708 -0.9736 -0.7443 -1.0112
  145SAPE  C31415988   5.275   2.801   9.501  0.4277  0.3063 -0.3048
  145SAPE  H14X15989   5.339   2.711   9.492  0.9682  0.5523  0.9072
  145SAPE  H14Y15990   5.325   2.890   9.457  1.0401  0.3065  0.3727
  145SAPE  C31515991   5.133   2.763   9.445 -0.6125 -0.3312 -0.0743
  145SAPE  H15X15992   5.068   2.853   9.438 -0.9201 -0.4191  1.2619
  145SAPE  H15Y15993   5.093   2.694   9.523  0.5150 -0.5542  0.3318
  145SAPE  C31615994   5.143   2.688   9.313  0.3176 -0.1644 -0.7379
  145SAPE  H16X15995   5.231   2.620   9.323 -0.4430 -1.0816 -0.1391
  145SAPE  H16Y15996   5.176   2.759   9.233 -0.5110  0.6951 -0.3290
  145SAPE  C31715997   5.023   2.604   9.267  0.6128  0.1845 -0.1424
  145SAPE  H17X15998   4.996   2.541   9.354  0.5983  1.4939  0.8293
  145SAPE  H17Y15999   5.039   2.534   9.182 -0.8111 -0.9044  0.4383
  145SAPE  C31816000   4.909   2.696   9.225 -0.0044 -0.0499 -0.7426
  145SAPE  H18X16001   4.941   2.755   9.136  0.7643 -1.1082 -1.1978
  145SAPE  H18Y16002   4.889   2.752   9.318 -0.5599 -0.5865 -0.5308
  145SAPE  H18Z16003   4.821   2.632   9.204 -1.4622  1.2780  1.0559
  146SAPE     N16004   2.737   1.585  11.232  0.7443 -0.0942 -0.7910
  146SAPE   HN116005   2.816   1.525  11.262  0.6056 -1.1946 -2.4745
  146SAPE   HN216006   2.737   1.676  11.282  1.5371 -0.8107  0.5660
  146SAPE   HN316007   2.658   1.529  11.268  0.4609 -0.2293 -1.6140
  146SAPE   C1216008   2.728   1.594  11.084 -0.1217 -0.4996 -0.5283
  146SAPE  H12A16009   2.826   1.639  11.055 -1.2499  3.1921  0.8094
  146SAPE  H12B16010   2.649   1.665  11.053 -1.0514 -0.9578  0.7113
  146SAPE   C1116011   2.717   1.453  11.022 -0.2122  0.2152 -0.6232
  146SAPE  H11A16012   2.794   1.380  11.056 -2.0676 -1.6679 -0.2952
  146SAPE  H11B16013   2.748   1.457  10.916 -1.1431  0.3020 -0.8958
  146SAPE     P16014   2.534   1.257  10.995  0.1195  0.2018  0.1146
  146SAPE   O1316015   2.636   1.156  10.984  0.2396  0.2153  0.5668
  146SAPE   O1416016   2.414   1.219  11.073 -0.4104  0.5458 -0.0091
  146SAPE   O1216017   2.594   1.388  11.052  0.1999 -0.1633  0.6193
  146SAPE   O1116018   2.495   1.288  10.847 -0.3868  0.2019  0.5157
  146SAPE    C116019   2.468   1.415  10.798 -0.3358 -0.2031 -0.5485
  146SAPE    HA16020   2.412   1.476  10.871 -0.7800 -1.9453  0.6315
  146SAPE    HB16021   2.569   1.460  10.787  0.3074 -0.3213  3.4484
  146SAPE    C216022   2.388   1.415  10.669  0.9350  1.1695 -0.4378
  146SAPE    HS16023   2.387   1.517  10.624 -0.3916  0.9185 -1.0243
  146SAPE   O2116024   2.253   1.362  10.696  0.1690 -0.9237  0.4260
  146SAPE   C2116025   2.169   1.454  10.752 -0.0434 -1.0926 -0.0954
  146SAPE   O2216026   2.198   1.572  10.770  0.6248  0.4195 -0.8731
  146SAPE   C2216027   2.038   1.391  10.800  0.3103 -0.9568 -0.2317
  146SAPE   H2R16028   2.067   1.295  10.848  1.6152 -0.4992 -0.0644
  146SAPE   H2S16029   1.987   1.450  10.879 -1.2575 -1.0477 -1.1299
  146SAPE    C316030   2.454   1.318  10.564 -0.4802 -0.4841  0.7427
  146SAPE    HX16031   2.372   1.257  10.520  1.6744 -1.0429 -2.9093
  146SAPE    HY16032   2.530   1.248  10.606  1.4059  0.7581 -0.4358
  146SAPE   O3116033   2.508   1.401  10.458  0.3204 -0.1297 -0.0611
  146SAPE   C3116034   2.600   1.342  10.383  0.2878 -0.1205  0.0476
  146SAPE   O3216035   2.621   1.226  10.373 -0.0492 -0.5523 -0.2776
  146SAPE   C3216036   2.689   1.450  10.323 -0.0806  0.1752 -0.4890
  146SAPE   H2X16037   2.788   1.453  10.372  0.2717  3.1881 -1.2084
  146SAPE   H2Y16038   2.650   1.553  10.338 -0.0314  0.2061 -0.5737
  146SAPE   C2316039   1.935   1.371  10.683  0.3514  0.4203 -0.8828
  146SAPE   H3R16040   1.904   1.472  10.649 -2.7541 -0.4533 -0.9110
  146SAPE   H3S16041   1.838   1.338  10.725  1.2919  0.3299  1.3078
  146SAPE   C2416042   1.982   1.275  10.574 -0.6594 -0.2099  0.5853
  146SAPE   H4R16043   2.027   1.184  10.620  2.0116  1.1965  0.9563
  146SAPE   H4S16044   2.060   1.317  10.506  1.9154 -3.6446  1.1248
  146SAPE   C2516045   1.855   1.231  10.504 -0.7304 -0.4128  0.4907
  146SAPE   H5R16046   1.799   1.154  10.557  0.8307 -1.9587 -0.0173
  146SAPE   C2616047   1.812   1.275  10.382 -0.5680 -0.3831  0.1629
  146SAPE   H6R16048   1.718   1.244  10.334 -1.1623  0.7809  0.5558
  146SAPE   C2716049   1.890   1.373  10.291  0.2630 -0.3561  0.2418
  146SAPE   H7R16050   1.861   1.362  10.184 -0.4303 -0.5082  0.4386
  146SAPE   H7S16051   1.990   1.323  10.290  0.4521 -0.1003  2.2119
  146SAPE   C2816052   1.879   1.516  10.326 -0.4719  0.0542 -0.6033
  146SAPE   H8R16053   1.859   1.535  10.432  1.0874  2.4865 -0.6438
  146SAPE   C2916054   1.877   1.626  10.252 -0.2811 -0.1387 -0.0036
  146SAPE   H9R16055   1.865   1.723  10.302 -2.2728 -0.2855 -0.1015
  146SAPE  C21016056   1.900   1.648  10.102 -0.2916  0.5491 -0.0033
  146SAPE  H10R16057   1.960   1.564  10.061  1.0766  0.6672  1.6539
  146SAPE  H10S16058   1.967   1.737  10.094 -0.2511  0.8815  2.9669
  146SAPE  C21116059   1.769   1.643  10.031  0.6518 -0.6507 -0.2147
  146SAPE  H11R16060   1.680   1.618  10.091 -0.0106  1.4819 -0.2149
  146SAPE  C21216061   1.755   1.664   9.899  0.1655  0.0065  0.0699
  146SAPE  H12R16062   1.653   1.660   9.857  0.5269 -1.2559 -0.7480
  146SAPE  C21316063   1.858   1.684   9.795 -0.3589  0.6161  0.0073
  146SAPE  H13R16064   1.857   1.595   9.727 -1.6410 -1.3138  2.3655
  146SAPE  H13S16065   1.959   1.664   9.835  0.0436  0.5762 -1.0126
  146SAPE  C21416066   1.870   1.820   9.732  0.0986  0.1162 -0.3279
  146SAPE  H14R16067   1.932   1.889   9.791  1.9247 -1.3415 -0.4410
  146SAPE  C21516068   1.834   1.857   9.612  0.0481  0.4213  0.7323
  146SAPE  H15R16069   1.854   1.958   9.575 -1.7370  1.1892  1.7357
  146SAPE  C21616070   1.762   1.762   9.516  0.3603 -0.0283  0.0635
  146SAPE  H16R16071   1.668   1.816   9.489 -1.8917 -3.0065  1.3456
  146SAPE  H16S16072   1.738   1.675   9.581  1.3299 -1.2657 -1.1652
  146SAPE  C21716073   1.838   1.712   9.389  0.0768  0.0487 -0.3697
  146SAPE  H17R16074   1.935   1.659   9.402  0.2505 -0.1020 -2.1354
  146SAPE  H17S16075   1.864   1.807   9.337  1.3916 -0.1198 -0.0646
  146SAPE  C21816076   1.756   1.610   9.301 -0.2357 -0.7161  0.4432
  146SAPE  H18R16077   1.652   1.648   9.293  0.5311  1.3499 -0.3238
  146SAPE  H18S16078   1.752   1.512   9.354 -3.7784 -0.6976  0.4411
  146SAPE  C21916079   1.802   1.587   9.153  0.4465 -0.0160 -0.1657
  146SAPE  H19R16080   1.730   1.520   9.102 -1.1617 -0.6717  2.6961
  146SAPE  H19S16081   1.891   1.521   9.161 -0.7870 -1.5563  1.8501
  146SAPE  C22016082   1.810   1.717   9.070 -0.0215 -0.2987  0.5760
  146SAPE  H20R16083   1.817   1.707   8.960  0.4426  1.0592  0.4589
  146SAPE  H20S16084   1.910   1.756   9.099 -0.0309 -0.8382  1.3743
  146SAPE  H20T16085   1.728   1.788   9.095 -0.8006 -0.2734 -1.8433
  146SAPE   C3316086   2.716   1.427  10.176  0.5537  0.1760 -0.2976
  146SAPE   H3X16087   2.627   1.385  10.125 -0.1345  1.0450  0.1582
  146SAPE   H3Y16088   2.792   1.349  10.161  1.4550  0.7023  1.2503
  146SAPE   C3416089   2.770   1.552  10.118 -0.7650 -0.2840  0.2712
  146SAPE   H4X16090   2.875   1.563  10.153 -1.0474  0.6396  0.8772
  146SAPE   H4Y16091   2.707   1.637  10.151  1.1032  0.8401  1.1345
  146SAPE   C3516092   2.786   1.562   9.965  0.6471  0.4762  0.3645
  146SAPE   H5X16093   2.685   1.569   9.919  0.3108  0.1003  1.0386
  146SAPE   H5Y16094   2.818   1.459   9.940 -0.6578  0.4593 -1.4858
  146SAPE   C3616095   2.883   1.671   9.920 -0.1776 -0.5415  0.4006
  146SAPE   H6X16096   2.982   1.645   9.963  0.1652 -0.9464 -0.6278
  146SAPE   H6Y16097   2.846   1.767   9.963  0.1814  0.8124 -2.1577
  146SAPE   C3716098   2.897   1.701   9.774  0.6471  0.1823  0.0398
  146SAPE   H7X16099   2.963   1.790   9.770 -1.5624  1.9572  1.1343
  146SAPE   H7Y16100   2.800   1.729   9.728  0.9883  1.9058  0.3132
  146SAPE   C3816101   2.969   1.585   9.686  0.2536 -0.0310  0.1221
  146SAPE   H8X16102   2.901   1.498   9.674 -1.2740  1.1757 -0.3033
  146SAPE   H8Y16103   3.062   1.559   9.740 -0.0302 -2.8721 -0.5861
  146SAPE   C3916104   3.001   1.626   9.544  0.0118  0.3164  0.5871
  146SAPE   H9X16105   3.088   1.578   9.494 -1.3691 -3.0398  1.1342
  146SAPE   H9Y16106   3.033   1.733   9.552  0.7997  0.0581  1.0246
  146SAPE  C31016107   2.887   1.611   9.445  1.0081  0.2578 -0.5057
  146SAPE  H10X16108   2.805   1.677   9.482 -1.3312 -2.6485 -0.1617
  146SAPE  H10Y16109   2.851   1.509   9.419  2.1201 -0.2711 -0.0219
  146SAPE  C31116110   2.921   1.685   9.315 -0.4021 -0.4757 -0.2999
  146SAPE  H11X16111   3.005   1.626   9.273 -0.3690 -0.2077 -0.6094
  146SAPE  H11Y16112   2.960   1.786   9.339  1.4370 -1.0864 -0.6250
  146SAPE  C31216113   2.800   1.693   9.214 -0.4779 -0.2186 -0.2321
  146SAPE  H12X16114   2.735   1.608   9.243  0.1292 -1.1972 -1.6220
  146SAPE  H12Y16115   2.834   1.664   9.112 -0.3088 -2.5738  0.4262
  146SAPE  C31316116   2.735   1.832   9.221 -0.1339 -0.0204 -0.1767
  146SAPE  H13X16117   2.807   1.910   9.186 -1.1919  0.7196 -0.7940
  146SAPE  H13Y16118   2.709   1.852   9.327  1.0915 -1.8184  0.4968
  146SAPE  C31416119   2.606   1.834   9.137  0.1753 -0.0488 -0.0492
  146SAPE  H14X16120   2.551   1.930   9.144 -0.7506 -0.4825 -1.0099
  146SAPE  H14Y16121   2.533   1.755   9.164 -1.3343  0.6548 -1.8017
  146SAPE  C31516122   2.640   1.814   8.985 -0.4577 -0.1280 -0.3797
  146SAPE  H15X16123   2.542   1.824   8.933 -0.2397 -0.7690 -0.9211
  146SAPE  H15Y16124   2.682   1.713   8.970  0.7410  0.4115 -0.7787
  146SAPE  C31616125   2.752   1.911   8.929 -0.5906 -0.3203 -0.7432
  146SAPE  H16X16126   2.854   1.894   8.970 -0.2576  0.0429 -1.3995
  146SAPE  H16Y16127   2.712   2.014   8.945  0.9731 -0.0621  1.9757
  146SAPE  C31716128   2.753   1.887   8.783 -0.3194  0.4993 -0.2693
  146SAPE  H17X16129   2.652   1.917   8.749  0.1915  0.9447 -1.4402
  146SAPE  H17Y16130   2.761   1.782   8.750  1.3326  0.4821  0.0990
  146SAPE  C31816131   2.864   1.960   8.709 -0.3020 -0.2181 -0.0099
  146SAPE  H18X16132   2.850   2.070   8.716 -1.7474 -0.4282  0.8797
  146SAPE  H18Y16133   2.852   1.942   8.600 -0.6868 -0.8657  0.1309
  146SAPE  H18Z16134   2.968   1.936   8.742 -0.7351 -0.1491  1.4810
  147SAPE     N16135   1.004   5.271   6.152 -0.2586  0.8768 -0.2473
  147SAPE   HN116136   1.096   5.311   6.123 -0.1909  2.0104  1.4186
  147SAPE   HN216137   0.988   5.180   6.106  0.5270 -0.1370  1.4066
  147SAPE   HN316138   0.931   5.342   6.130 -0.2955  1.3071  1.1819
  147SAPE   C1216139   1.007   5.257   6.297  0.0133 -0.0959 -0.5970
  147SAPE  H12A16140   0.985   5.354   6.347 -0.9261 -0.2418 -0.7070
  147SAPE  H12B16141   1.109   5.220   6.321 -0.0993 -0.2765 -0.3988
  147SAPE   C1116142   0.903   5.157   6.343  0.2707 -0.0031 -0.2450
  147SAPE  H11A16143   0.908   5.136   6.451 -0.6217 -3.7544 -0.8074
  147SAPE  H11B16144   0.925   5.058   6.297  1.7085 -1.0545  2.5171
  147SAPE     P16145   0.642   5.161   6.393  0.2682 -0.0379 -0.1074
  147SAPE   O1316146   0.524   5.228   6.331  0.2687  0.2968  0.0248
  147SAPE   O1416147   0.634   5.014   6.406  0.7350 -0.0266  0.6009
  147SAPE   O1216148   0.769   5.192   6.308 -0.2330 -0.0302  0.3367
  147SAPE   O1116149   0.681   5.215   6.534 -0.1984  0.0343  0.2206
  147SAPE    C116150   0.707   5.360   6.550 -0.3698  0.7989  0.0240
  147SAPE    HA16151   0.802   5.376   6.493 -0.1440  0.1713  0.2112
  147SAPE    HB16152   0.626   5.419   6.503 -0.4942  0.9230  0.3959
  147SAPE    C216153   0.716   5.394   6.701  0.2042  0.0487  0.5669
  147SAPE    HS16154   0.725   5.502   6.724  1.7706 -0.0460  0.5362
  147SAPE   O2116155   0.829   5.326   6.761  0.3981  0.3844  0.2123
  147SAPE   C2116156   0.950   5.366   6.719 -0.0209 -0.3713  0.3045
  147SAPE   O2216157   0.971   5.469   6.652 -0.1765 -0.2976  0.3606
  147SAPE   C2216158   1.059   5.284   6.774 -0.0170  0.7266  0.6199
  147SAPE   H2R16159   1.020   5.198   6.834  2.5172  0.1797  1.6302
  147SAPE   H2S16160   1.115   5.234   6.692  0.4783  0.9515  0.8163
  147SAPE    C316161   0.589   5.343   6.773 -0.0910 -0.8799  0.6904
  147SAPE    HX16162   0.573   5.241   6.731  1.5487  0.0041 -2.3320
  147SAPE    HY16163   0.508   5.408   6.735  2.8346  2.3559 -0.5467
  147SAPE   O3116164   0.608   5.345   6.919  0.2681  0.0644  0.2892
  147SAPE   C3116165   0.652   5.242   6.980 -1.1634 -0.1520 -0.7820
  147SAPE   O3216166   0.693   5.134   6.933 -0.1531 -0.4789 -0.2252
  147SAPE   C3216167   0.652   5.275   7.139  1.4311 -0.3573  0.4899
  147SAPE   H2X16168   0.555   5.233   7.174 -0.4869  0.3939 -3.3199
  147SAPE   H2Y16169   0.645   5.386   7.145 -0.2929 -0.4730  1.1378
  147SAPE   C2316170   1.150   5.377   6.859 -0.2624  0.0815  0.2775
  147SAPE   H3R16171   1.162   5.475   6.809  0.2697 -0.6358 -1.0338
  147SAPE   H3S16172   1.249   5.328   6.859  0.3768  1.2509  2.4839
  147SAPE   C2416173   1.110   5.378   7.005  0.0282 -0.8047  0.1853
  147SAPE   H4R16174   1.002   5.401   7.014 -0.2232 -2.1752  0.7989
  147SAPE   H4S16175   1.162   5.464   7.054  0.1429 -0.6567 -0.1935
  147SAPE   C2516176   1.125   5.257   7.091 -0.2147  1.0993 -0.0161
  147SAPE   H5R16177   1.131   5.156   7.047  0.8022  0.2695  1.8893
  147SAPE   C2616178   1.138   5.261   7.224 -0.2465 -0.2059 -0.4213
  147SAPE   H6R16179   1.150   5.165   7.278  1.2425 -0.4778 -1.2051
  147SAPE   C2716180   1.138   5.379   7.319 -0.0638  0.0164 -0.1890
  147SAPE   H7R16181   1.079   5.455   7.263  1.0924  0.6572 -0.5667
  147SAPE   H7S16182   1.241   5.420   7.330 -0.1146  0.1623 -0.2626
  147SAPE   C2816183   1.078   5.360   7.454 -0.1563  0.3315  0.2228
  147SAPE   H8R16184   0.970   5.381   7.455 -0.8464 -1.8148 -3.9285
  147SAPE   C2916185   1.129   5.291   7.550  0.7330  0.4857 -0.4656
  147SAPE   H9R16186   1.089   5.293   7.653  3.2631 -0.4249  0.6186
  147SAPE  C21016187   1.268   5.237   7.558 -0.3385  0.7038  0.1351
  147SAPE  H10R16188   1.330   5.284   7.637 -1.2067 -0.9977  1.9171
  147SAPE  H10S16189   1.330   5.267   7.470 -1.1671  0.7678 -0.4399
  147SAPE  C21116190   1.251   5.085   7.578  0.1070  0.3629 -0.0436
  147SAPE  H11R16191   1.258   5.021   7.488 -0.1626  3.1212 -2.1478
  147SAPE  C21216192   1.242   5.013   7.696  0.5236 -0.2510  0.3887
  147SAPE  H12R16193   1.247   4.903   7.700  0.5414 -0.2513  0.3607
  147SAPE  C21316194   1.241   5.078   7.833  0.3172 -0.2024 -0.0584
  147SAPE  H13R16195   1.239   5.188   7.816  0.4134 -0.3124 -0.8052
  147SAPE  H13S16196   1.345   5.059   7.867  0.9113  1.5464 -0.7660
  147SAPE  C21416197   1.130   5.026   7.927  0.0269 -0.2607 -0.0756
  147SAPE  H14R16198   1.029   5.036   7.883  0.2793  1.4869 -0.3294
  147SAPE  C21516199   1.137   4.964   8.044 -0.6762 -0.1664 -0.2468
  147SAPE  H15R16200   1.042   4.926   8.084  0.1550 -1.8441  0.2405
  147SAPE  C21616201   1.257   4.917   8.125 -0.5214 -0.2728 -0.3681
  147SAPE  H16R16202   1.358   4.929   8.081  0.0554 -1.0838  0.6684
  147SAPE  H16S16203   1.250   4.808   8.143 -1.4758 -0.0568  0.6927
  147SAPE  C21716204   1.287   4.986   8.259 -0.3955 -0.7123  0.7692
  147SAPE  H17R16205   1.288   5.096   8.246 -1.0329 -0.8252 -0.3899
  147SAPE  H17S16206   1.394   4.967   8.283  0.3760  0.3413 -1.5907
  147SAPE  C21816207   1.195   4.940   8.374 -0.8191 -0.3580  0.5493
  147SAPE  H18R16208   1.207   4.830   8.389 -3.9865 -1.2480 -2.1165
  147SAPE  H18S16209   1.092   4.954   8.335  0.3551  0.9570 -2.3886
  147SAPE  C21916210   1.229   5.020   8.501  0.0344 -0.2342  0.0681
  147SAPE  H19R16211   1.217   5.130   8.495 -0.6414 -0.2444  1.0060
  147SAPE  H19S16212   1.335   4.989   8.517 -0.2279 -1.1165  0.1657
  147SAPE  C22016213   1.151   4.978   8.631 -0.0904 -0.1113  0.0076
  147SAPE  H20R16214   1.144   4.869   8.647  1.1968 -0.0093  1.5644
  147SAPE  H20S16215   1.044   5.008   8.620 -0.2669 -1.1267 -1.2566
  147SAPE  H20T16216   1.201   5.025   8.719 -0.5295 -1.1109  0.8039
  147SAPE   C3316217   0.776   5.229   7.211 -0.4363  0.3846 -0.2053
  147SAPE   H3X16218   0.858   5.295   7.176  1.0090 -0.6500  1.0894
  147SAPE   H3Y16219   0.803   5.125   7.180 -1.8711  0.0271 -0.3168
  147SAPE   C3416220   0.763   5.228   7.368  0.0240 -0.3495  0.1922
  147SAPE   H4X16221   0.866   5.227   7.409  1.3488 -0.4272 -2.8761
  147SAPE   H4Y16222   0.697   5.140   7.386 -1.0176  0.1549 -1.0350
  147SAPE   C3516223   0.689   5.344   7.423  0.2901  0.4541 -0.3485
  147SAPE   H5X16224   0.597   5.374   7.368  0.6167  3.7171  0.6618
  147SAPE   H5Y16225   0.755   5.433   7.421  1.8620 -0.6136 -4.2888
  147SAPE   C3616226   0.630   5.326   7.569 -0.3030 -0.3538  0.2000
  147SAPE   H6X16227   0.553   5.247   7.577  1.1211 -1.8051  0.0894
  147SAPE   H6Y16228   0.588   5.421   7.608  0.0297 -0.6304  1.2767
  147SAPE   C3716229   0.743   5.301   7.673  0.2869  0.3147  0.4510
  147SAPE   H7X16230   0.801   5.395   7.663  1.1982 -0.3340 -0.5538
  147SAPE   H7Y16231   0.811   5.220   7.639 -0.3793 -0.4236  0.8294
  147SAPE   C3816232   0.695   5.272   7.815  0.6284 -0.3446 -0.0569
  147SAPE   H8X16233   0.635   5.179   7.803 -0.5948  0.5933 -1.8067
  147SAPE   H8Y16234   0.626   5.353   7.848  1.0310  0.1841 -0.4888
  147SAPE   C3916235   0.814   5.261   7.908 -0.0940 -0.8400 -0.3759
  147SAPE   H9X16236   0.876   5.353   7.897  1.8253 -1.8181  1.5840
  147SAPE   H9Y16237   0.876   5.177   7.871 -0.5142 -1.6371  0.6788
  147SAPE  C31016238   0.791   5.239   8.061  0.3607 -0.4339 -0.6789
  147SAPE  H10X16239   0.751   5.135   8.064  0.7013 -0.6470 -2.2841
  147SAPE  H10Y16240   0.707   5.302   8.095  0.5455 -1.2445  1.4435
  147SAPE  C31116241   0.912   5.238   8.149  0.5595 -0.1252  0.0432
  147SAPE  H11X16242   0.995   5.191   8.091 -1.3011 -2.3137 -0.9806
  147SAPE  H11Y16243   0.904   5.176   8.241 -1.9251  1.6031  1.0857
  147SAPE  C31216244   0.952   5.376   8.205 -0.4909 -0.1873 -0.1728
  147SAPE  H12X16245   0.859   5.421   8.244 -0.0472 -1.9343  3.4201
  147SAPE  H12Y16246   0.998   5.438   8.125  1.9204 -0.4828  0.8754
  147SAPE  C31316247   1.043   5.367   8.327 -0.2136 -0.4001  0.2912
  147SAPE  H13X16248   1.124   5.293   8.312  0.3458  0.6102 -2.2778
  147SAPE  H13Y16249   0.984   5.321   8.409  0.2052 -2.0116 -0.2847
  147SAPE  C31416250   1.097   5.498   8.375  0.2707  0.4415  1.0928
  147SAPE  H14X16251   1.146   5.478   8.472 -2.0500 -0.5109  2.1296
  147SAPE  H14Y16252   1.011   5.564   8.402 -1.1559 -0.2125 -1.4833
  147SAPE  C31516253   1.197   5.572   8.278  0.3313 -0.0258 -0.0747
  147SAPE  H15X16254   1.148   5.600   8.182  0.4272  0.5075  0.0338
  147SAPE  H15Y16255   1.276   5.499   8.248  0.4020 -0.0711  0.2210
  147SAPE  C31616256   1.247   5.703   8.347  0.0883  0.3428 -0.1762
  147SAPE  H16X16257   1.170   5.780   8.370  0.3340  0.6078 -0.2387
  147SAPE  H16Y16258   1.315   5.746   8.270  0.3885 -1.1699 -0.7842
  147SAPE  C31716259   1.326   5.675   8.474  0.4213  0.2499  0.9944
  147SAPE  H17X16260   1.369   5.573   8.470 -0.1959  0.0180 -2.6644
  147SAPE  H17Y16261   1.259   5.672   8.563 -2.2069 -1.1386 -0.8807
  147SAPE  C31816262   1.437   5.779   8.503 -0.2930 -0.2744 -0.6885
  147SAPE  H18X16263   1.385   5.877   8.503  0.0171 -0.1062 -0.4702
  147SAPE  H18Y16264   1.512   5.794   8.421 -2.4108  2.3587 -2.3056
  147SAPE  H18Z16265   1.491   5.768   8.599 -1.2385 -1.9086 -0.3144
  148SAPE     N16266   5.830   5.418   6.623 -0.5281 -0.8075  0.7762
  148SAPE   HN116267   5.779   5.505   6.596 -1.2869 -1.3559  0.4016
  148SAPE   HN216268   5.911   5.426   6.559 -2.4546  0.7335 -1.6756
  148SAPE   HN316269   5.764   5.345   6.589 -0.6069  0.7063 -2.8053
  148SAPE   C1216270   5.877   5.407   6.762  0.7008 -0.6340  0.1551
  148SAPE  H12A16271   5.944   5.496   6.771 -0.8354  0.8542 -2.1631
  148SAPE  H12B16272   5.937   5.316   6.782  0.1918 -1.4982 -1.9691
  148SAPE   C1116273   5.762   5.413   6.859 -0.8827 -0.5835 -0.4437
  148SAPE  H11A16274   5.701   5.505   6.845 -0.2169  0.0824  0.9024
  148SAPE  H11B16275   5.805   5.422   6.961 -0.0751 -0.9596 -0.7486
  148SAPE     P16276   5.535   5.290   6.847  0.1325 -0.4018  0.2682
  148SAPE   O1316277   5.475   5.375   6.749 -0.1400 -0.5605  0.0690
  148SAPE   O1416278   5.497   5.149   6.841 -0.1830 -0.1744 -0.4656
  148SAPE   O1216279   5.691   5.296   6.845  0.4351  0.2150 -0.0673
  148SAPE   O1116280   5.508   5.352   6.985 -0.3291 -0.2262 -0.3943
  148SAPE    C116281   5.510   5.286   7.113  0.0377  0.2534  0.1785
  148SAPE    HA16282   5.436   5.204   7.124  1.6442 -1.2075  0.5120
  148SAPE    HB16283   5.599   5.221   7.124 -0.0412 -0.1563 -1.3267
  148SAPE    C216284   5.504   5.387   7.226  0.5708 -0.9117 -1.0494
  148SAPE    HS16285   5.589   5.456   7.209  1.3627 -1.8375 -0.9052
  148SAPE   O2116286   5.505   5.322   7.352  0.1420  0.6584  0.1798
  148SAPE   C2116287   5.616   5.278   7.395  0.0387  0.6494  0.0779
  148SAPE   O2216288   5.727   5.293   7.347  0.0935 -0.6467  0.5621
  148SAPE   C2216289   5.599   5.216   7.537  0.7718 -0.4704 -0.6751
  148SAPE   H2R16290   5.679   5.265   7.596  0.1058  0.3144 -0.4093
  148SAPE   H2S16291   5.495   5.236   7.570  1.3309  0.7728  0.4167
  148SAPE    C316292   5.359   5.446   7.231  0.2956  0.0755  0.8978
  148SAPE    HX16293   5.279   5.373   7.256 -0.1172  0.1249 -0.2326
  148SAPE    HY16294   5.351   5.487   7.128 -1.1813 -0.6825  0.6842
  148SAPE   O3116295   5.347   5.540   7.337  0.0627  0.0395  0.8276
  148SAPE   C3116296   5.261   5.639   7.316  0.3538  0.0815  0.4175
  148SAPE   O3216297   5.197   5.650   7.212  0.1531 -0.3193 -0.4639
  148SAPE   C3216298   5.257   5.734   7.432 -0.1653 -0.5218 -0.1153
  148SAPE   H2X16299   5.361   5.772   7.442 -1.1687  2.2779  0.3431
  148SAPE   H2Y16300   5.229   5.683   7.526 -2.5435 -2.0229 -1.5305
  148SAPE   C2316301   5.632   5.063   7.535 -0.2948  0.4862  0.2513
  148SAPE   H3R16302   5.741   5.051   7.522 -0.3639  1.5207 -1.6269
  148SAPE   H3S16303   5.597   5.010   7.444 -1.8005  1.4506  0.2309
  148SAPE   C2416304   5.577   4.992   7.662 -0.1667 -0.3226  0.4084
  148SAPE   H4R16305   5.616   4.888   7.664 -1.2255 -0.7140  1.3760
  148SAPE   H4S16306   5.467   4.988   7.651  0.0399 -0.9101 -2.1713
  148SAPE   C2516307   5.615   5.056   7.793  0.3699 -0.6936  0.3686
  148SAPE   H5R16308   5.717   5.096   7.802  1.2016 -2.0003 -2.1347
  148SAPE   C2616309   5.544   5.047   7.907  0.1170  0.6608 -0.5452
  148SAPE   H6R16310   5.568   5.109   7.995 -0.6385  0.4673 -0.2003
  148SAPE   C2716311   5.417   4.973   7.938 -0.1404  0.4860  0.6594
  148SAPE   H7R16312   5.362   4.957   7.843 -0.0969  3.3206  0.0892
  148SAPE   H7S16313   5.345   5.035   7.995 -0.8887  0.0684  0.1957
  148SAPE   C2816314   5.440   4.837   8.002 -0.2089  0.1894  0.1786
  148SAPE   H8R16315   5.484   4.753   7.947  0.5021  1.1041 -0.6855
  148SAPE   C2916316   5.399   4.805   8.122 -0.4461 -0.0251  0.0321
  148SAPE   H9R16317   5.428   4.705   8.157  3.2526  1.2576  1.0963
  148SAPE  C21016318   5.327   4.894   8.224 -0.4653  0.2479  0.1358
  148SAPE  H10R16319   5.225   4.923   8.191 -0.9637 -0.7690  0.7452
  148SAPE  H10S16320   5.393   4.981   8.246  1.1460 -1.0981  0.8421
  148SAPE  C21116321   5.298   4.840   8.365  0.1217 -0.9878  0.2352
  148SAPE  H11R16322   5.195   4.802   8.377  0.3663 -1.8336 -0.3094
  148SAPE  C21216323   5.391   4.825   8.461  0.8798  0.2177  0.3098
  148SAPE  H12R16324   5.354   4.803   8.563 -0.5848 -0.2583 -0.3027
  148SAPE  C21316325   5.544   4.848   8.447  0.8718  0.1209  0.1405
  148SAPE  H13R16326   5.564   4.918   8.363  0.1257 -0.9147 -0.9415
  148SAPE  H13S16327   5.597   4.756   8.415 -0.3636 -0.9300  0.9731
  148SAPE  C21416328   5.601   4.920   8.562  0.0485 -0.1220  0.0075
  148SAPE  H14R16329   5.538   4.998   8.608 -0.2259 -0.4630  0.2129
  148SAPE  C21516330   5.717   4.900   8.624 -0.2454 -0.0988 -0.2190
  148SAPE  H15R16331   5.744   4.969   8.705  0.1940 -1.2573  0.6516
  148SAPE  C21616332   5.828   4.806   8.605 -0.3953 -0.1388 -0.4345
  148SAPE  H16R16333   5.812   4.737   8.520  0.7655 -3.7542  2.0820
  148SAPE  H16S16334   5.818   4.747   8.699 -1.3507 -3.5501 -2.5071
  148SAPE  C21716335   5.962   4.887   8.585 -0.6185  0.3217  0.1670
  148SAPE  H17R16336   5.962   4.930   8.482 -0.2373 -0.2680 -0.0881
  148SAPE  H17S16337   6.042   4.810   8.595 -2.0957 -1.3285 -0.2005
  148SAPE  C21816338   5.983   4.992   8.700 -0.0803 -0.5729 -0.0191
  148SAPE  H18R16339   5.978   4.929   8.792  0.0590  0.2564  0.5657
  148SAPE  H18S16340   5.912   5.077   8.706 -0.5382 -1.0053  1.1958
  148SAPE  C21916341   6.129   5.046   8.699  0.2914 -0.1065 -0.8591
  148SAPE  H19R16342   6.147   5.123   8.622  2.3863 -0.5684 -0.9113
  148SAPE  H19S16343   6.198   4.964   8.669  2.5205  1.6103 -0.6634
  148SAPE  C22016344   6.167   5.104   8.836  0.7800 -0.1651 -0.5251
  148SAPE  H20R16345   6.142   5.051   8.930  0.9704  1.8517  0.7347
  148SAPE  H20S16346   6.110   5.200   8.840 -0.6067 -0.9916  2.1173
  148SAPE  H20T16347   6.276   5.128   8.843  0.5696  0.2994  2.1325
  148SAPE   C3316348   5.177   5.855   7.394 -0.3345 -0.0751  1.0641
  148SAPE   H3X16349   5.077   5.814   7.367 -0.2904 -0.5589  1.6246
  148SAPE   H3Y16350   5.233   5.902   7.310  2.2596 -0.6308  2.3924
  148SAPE   C3416351   5.171   5.945   7.514  0.5370 -0.0694 -0.4238
  148SAPE   H4X16352   5.275   5.956   7.552  0.7984  0.8110 -1.3451
  148SAPE   H4Y16353   5.108   5.896   7.591  0.6820 -0.2283 -0.4049
  148SAPE   C3516354   5.108   6.077   7.482 -0.4593  0.8910  0.4070
  148SAPE   H5X16355   4.999   6.067   7.466 -0.1282 -1.3265 -1.0247
  148SAPE   H5Y16356   5.142   6.103   7.379 -2.2465 -0.2722 -0.5306
  148SAPE   C3616357   5.137   6.191   7.581 -0.4390  0.0227  0.6732
  148SAPE   H6X16358   5.116   6.289   7.534 -0.1953 -0.0933  0.3144
  148SAPE   H6Y16359   5.246   6.190   7.602 -0.9277 -0.6483  3.6483
  148SAPE   C3716360   5.081   6.181   7.722  0.8582 -0.3636  0.4937
  148SAPE   H7X16361   5.078   6.074   7.751  0.9924 -0.3467  0.5692
  148SAPE   H7Y16362   4.975   6.213   7.712  0.8774 -0.4395  0.0090
  148SAPE   C3816363   5.161   6.268   7.819 -0.1900 -0.0098  0.4332
  148SAPE   H8X16364   5.151   6.371   7.779  1.7936 -0.3317 -1.0253
  148SAPE   H8Y16365   5.267   6.235   7.818 -0.1858  0.0135  0.2185
  148SAPE   C3916366   5.110   6.264   7.959 -0.4309 -0.3058  0.5705
  148SAPE   H9X16367   5.132   6.168   8.012  2.3994  0.8624  1.7180
  148SAPE   H9Y16368   5.003   6.288   7.945 -0.6186  0.1932  2.5533
  148SAPE  C31016369   5.169   6.372   8.051 -0.0027 -0.1631 -0.0655
  148SAPE  H10X16370   5.138   6.476   8.027 -0.3048 -0.3752 -0.6345
  148SAPE  H10Y16371   5.279   6.366   8.038  0.1931  2.3483  0.0831
  148SAPE  C31116372   5.120   6.339   8.193  0.2104  0.3182  0.2478
  148SAPE  H11X16373   5.130   6.229   8.204  0.9273  0.4359  0.7672
  148SAPE  H11Y16374   5.014   6.367   8.214 -0.6598 -1.0612 -1.8836
  148SAPE  C31216375   5.207   6.399   8.303 -0.5233 -0.5140  0.2360
  148SAPE  H12X16376   5.190   6.508   8.306 -1.7117 -0.5878 -1.8243
  148SAPE  H12Y16377   5.310   6.376   8.269 -0.3150 -0.3814  0.7686
  148SAPE  C31316378   5.186   6.336   8.442  0.4775 -0.2364 -0.0071
  148SAPE  H13X16379   5.201   6.226   8.442  0.7519 -0.2350 -2.3677
  148SAPE  H13Y16380   5.080   6.348   8.470  0.7824 -0.5187  1.3830
  148SAPE  C31416381   5.258   6.395   8.566  0.5636  0.0695 -0.3250
  148SAPE  H14X16382   5.227   6.334   8.654 -0.2360  0.9442  0.0188
  148SAPE  H14Y16383   5.228   6.502   8.567  0.1023 -0.0462  1.2718
  148SAPE  C31516384   5.413   6.391   8.557  0.5594 -0.2195  0.0174
  148SAPE  H15X16385   5.429   6.446   8.462 -0.9951 -0.1565 -0.2470
  148SAPE  H15Y16386   5.447   6.287   8.536  0.9370 -0.2069  0.5518
  148SAPE  C31616387   5.484   6.460   8.673 -0.6068 -0.2600 -0.2462
  148SAPE  H16X16388   5.590   6.473   8.642 -1.1740 -1.2108 -2.7943
  148SAPE  H16Y16389   5.471   6.414   8.774  0.1133  0.8791  0.3894
  148SAPE  C31716390   5.445   6.612   8.701 -0.0200 -0.3933 -0.5253
  148SAPE  H17X16391   5.339   6.615   8.733 -0.6020 -0.8729 -2.3081
  148SAPE  H17Y16392   5.444   6.671   8.607  1.1374  0.4211 -0.0558
  148SAPE  C31816393   5.529   6.698   8.802 -0.2629 -0.0759  0.5716
  148SAPE  H18X16394   5.521   6.654   8.904 -0.8410  1.3185  1.1612
  148SAPE  H18Y16395   5.496   6.804   8.805 -0.3991 -0.0846 -0.4799
  148SAPE  H18Z16396   5.635   6.702   8.772 -0.5215 -1.2573 -0.6209
  149SAPE     N16397   5.882   5.765   6.311  0.7797  0.6853  0.1225
  149SAPE   HN116398   5.899   5.795   6.409  0.1251  1.4023  0.0267
  149SAPE   HN216399   5.898   5.663   6.303  2.4866  0.9449 -0.2500
  149SAPE   HN316400   5.959   5.806   6.254  0.9689  2.4027  1.5211
  149SAPE   C1216401   5.744   5.802   6.271  0.4703 -0.6563  0.3135
  149SAPE  H12A16402   5.672   5.755   6.342 -0.2838  3.6539  2.7919
  149SAPE  H12B16403   5.733   5.771   6.165  1.4737 -0.0880  0.0333
  149SAPE   C1116404   5.721   5.960   6.282 -0.2219  0.2384 -0.3687
  149SAPE  H11A16405   5.612   5.975   6.267 -0.5845  0.7672  2.2633
  149SAPE  H11B16406   5.781   6.008   6.203  2.7204  0.2892  1.7497
  149SAPE     P16407   5.653   6.010   6.526  0.1615 -0.0552 -0.0316
  149SAPE   O1316408   5.558   6.120   6.495 -0.0263  0.5328  0.1972
  149SAPE   O1416409   5.596   5.876   6.537  0.1010 -0.4398 -0.0505
  149SAPE   O1216410   5.766   6.006   6.410  0.0843  0.0738  0.9470
  149SAPE   O1116411   5.717   6.054   6.660  0.1376 -0.1099 -0.5834
  149SAPE    C116412   5.855   6.036   6.684 -0.2761  0.0626  0.0291
  149SAPE    HA16413   5.886   5.938   6.644  0.5059 -0.3748  1.6314
  149SAPE    HB16414   5.924   6.110   6.637  0.8080 -1.8079 -1.4265
  149SAPE    C216415   5.890   6.045   6.836 -0.1183  0.4073  0.1084
  149SAPE    HS16416   5.991   6.002   6.856  1.1686  3.5495  1.0201
  149SAPE   O2116417   5.785   5.981   6.915 -0.1763 -0.4566  0.0821
  149SAPE   C2116418   5.774   5.852   6.895  0.2551  0.6292 -0.1149
  149SAPE   O2216419   5.853   5.781   6.837 -0.1010  0.0698  0.3250
  149SAPE   C2216420   5.636   5.804   6.951 -1.3733  0.3427  0.0313
  149SAPE   H2R16421   5.552   5.829   6.882  0.1426  1.2936 -1.5645
  149SAPE   H2S16422   5.643   5.693   6.960 -4.3917  0.0622 -0.0652
  149SAPE    C316423   5.895   6.200   6.885  0.4119 -0.4785  0.3439
  149SAPE    HX16424   5.796   6.240   6.854 -0.2609 -0.9066  1.8412
  149SAPE    HY16425   5.970   6.248   6.819  2.5685 -2.8724  0.8837
  149SAPE   O3116426   5.918   6.219   7.028  0.3173 -0.0293  1.0029
  149SAPE   C3116427   6.031   6.183   7.070  0.8532  0.9185  0.7547
  149SAPE   O3216428   6.127   6.150   6.998  0.6114 -0.0847 -0.1628
  149SAPE   C3216429   6.024   6.179   7.224  0.1675 -0.3233  0.1359
  149SAPE   H2X16430   5.919   6.193   7.258  0.1420  0.6088 -0.2932
  149SAPE   H2Y16431   6.084   6.266   7.257 -0.0132 -0.3700  0.6084
  149SAPE   C2316432   5.603   5.866   7.089 -0.0729  0.3059  0.0126
  149SAPE   H3R16433   5.506   5.821   7.119 -0.5157 -0.1379 -1.9515
  149SAPE   H3S16434   5.585   5.976   7.084 -0.0040  0.3131 -0.0793
  149SAPE   C2416435   5.709   5.850   7.202 -0.9775 -0.3449 -0.2801
  149SAPE   H4R16436   5.656   5.889   7.292 -0.6638 -0.0301 -0.2273
  149SAPE   H4S16437   5.789   5.923   7.178 -0.7041  0.3116  2.2878
  149SAPE   C2516438   5.769   5.717   7.219 -0.2501 -0.7844 -0.0426
  149SAPE   H5R16439   5.792   5.666   7.124 -1.7911  0.2923 -1.0541
  149SAPE   C2616440   5.790   5.645   7.331  0.1369 -0.1665  0.6090
  149SAPE   H6R16441   5.829   5.544   7.315 -2.7141 -1.2639 -0.0317
  149SAPE   C2716442   5.763   5.690   7.475 -0.4071  0.1501  0.5878
  149SAPE   H7R16443   5.746   5.800   7.479 -3.5874 -0.2743  1.9137
  149SAPE   H7S16444   5.856   5.681   7.536 -0.6404 -0.9407  0.8082
  149SAPE   C2816445   5.637   5.625   7.519 -0.3384 -0.1084 -0.4286
  149SAPE   H8R16446   5.564   5.596   7.441  0.6496 -5.2110  0.2429
  149SAPE   C2916447   5.602   5.594   7.651 -0.3540  0.4315 -0.1875
  149SAPE   H9R16448   5.503   5.548   7.663 -1.3912  2.7011  0.5678
  149SAPE  C21016449   5.689   5.594   7.774  0.1411 -1.0548 -0.2337
  149SAPE  H10R16450   5.648   5.674   7.840 -0.8302 -0.7906 -1.1335
  149SAPE  H10S16451   5.779   5.653   7.746 -3.2331  4.7446 -0.4628
  149SAPE  C21116452   5.710   5.464   7.837 -0.5484  0.5388  0.7490
  149SAPE  H11R16453   5.780   5.391   7.794 -1.6219 -1.1713  1.7616
  149SAPE  C21216454   5.657   5.424   7.951 -0.1088 -0.1089  0.8337
  149SAPE  H12R16455   5.677   5.323   7.992 -2.4315 -0.9342  0.0498
  149SAPE  C21316456   5.558   5.497   8.043  0.3787  0.0790  0.4314
  149SAPE  H13R16457   5.520   5.418   8.111 -4.5473  0.5422 -1.3891
  149SAPE  H13S16458   5.474   5.536   7.981 -1.1638 -0.7836  1.8827
  149SAPE  C21416459   5.620   5.608   8.113 -0.1807 -0.6765 -0.4952
  149SAPE  H14R16460   5.686   5.673   8.053 -1.3911  0.6968 -0.4028
  149SAPE  C21516461   5.597   5.634   8.246  0.1902  0.5001 -0.5025
  149SAPE  H15R16462   5.644   5.722   8.293 -1.9736  1.9982 -1.0253
  149SAPE  C21616463   5.498   5.552   8.334  1.3407 -0.3475 -0.1639
  149SAPE  H16R16464   5.515   5.442   8.341 -1.4968 -0.9892 -1.7814
  149SAPE  H16S16465   5.398   5.556   8.285  1.7070  1.5489 -0.8337
  149SAPE  C21716466   5.478   5.596   8.480  0.7027 -0.6541  0.4510
  149SAPE  H17R16467   5.450   5.703   8.485  1.9497 -0.2224 -0.9465
  149SAPE  H17S16468   5.577   5.589   8.531  0.7080 -0.8932  0.4100
  149SAPE  C21816469   5.376   5.518   8.560  0.4998 -0.5278 -0.1000
  149SAPE  H18R16470   5.420   5.417   8.574  0.1112 -0.6335  0.3860
  149SAPE  H18S16471   5.281   5.499   8.506  0.9288  0.7643 -1.3861
  149SAPE  C21916472   5.357   5.581   8.699  0.1199 -0.1758 -0.0783
  149SAPE  H19R16473   5.293   5.671   8.688  1.4903  1.2389  2.5986
  149SAPE  H19S16474   5.448   5.639   8.724  0.4316  0.1176 -1.7322
  149SAPE  C22016475   5.283   5.497   8.810  0.1482  0.1995 -0.1487
  149SAPE  H20R16476   5.229   5.565   8.879 -0.8108 -0.6874  0.0143
  149SAPE  H20S16477   5.353   5.434   8.870 -0.5489  0.1781  0.6711
  149SAPE  H20T16478   5.200   5.432   8.773 -2.6274  1.8193  2.6825
  149SAPE   C3316479   6.069   6.050   7.294  0.4311 -0.1061 -0.4624
  149SAPE   H3X16480   6.174   6.014   7.280 -0.0368 -0.7508 -2.7543
  149SAPE   H3Y16481   6.000   5.975   7.251  0.5048 -0.0101 -0.7547
  149SAPE   C3416482   6.036   6.061   7.444 -0.2826 -0.3236 -0.1772
  149SAPE   H4X16483   5.932   6.087   7.474  0.1273  2.0116 -0.5722
  149SAPE   H4Y16484   6.097   6.142   7.491  1.6931 -0.4041 -2.4094
  149SAPE   C3516485   6.054   5.928   7.503  0.4309 -0.0775  0.4082
  149SAPE   H5X16486   6.161   5.914   7.532  0.0630  1.1847  2.6246
  149SAPE   H5Y16487   6.009   5.843   7.449 -2.0269  1.7241 -0.5496
  149SAPE   C3616488   5.992   5.922   7.637 -0.2498  0.7964  0.1736
  149SAPE   H6X16489   5.886   5.889   7.640  0.3490 -1.2847 -0.0794
  149SAPE   H6Y16490   5.997   6.027   7.672  0.3625  0.6071  0.6707
  149SAPE   C3716491   6.070   5.837   7.739  0.3345 -0.1110 -0.2031
  149SAPE   H7X16492   6.179   5.846   7.726  0.0906  1.1643 -1.5048
  149SAPE   H7Y16493   6.045   5.729   7.724 -2.9603  0.3718  1.0046
  149SAPE   C3816494   6.030   5.869   7.883 -0.2664 -0.3768  0.2636
  149SAPE   H8X16495   5.920   5.873   7.901  0.1046  3.1170  2.7330
  149SAPE   H8Y16496   6.072   5.964   7.922  1.4805 -1.6225  1.5865
  149SAPE   C3916497   6.078   5.772   7.976  0.3277  0.7771 -0.2430
  149SAPE   H9X16498   6.189   5.767   7.979  0.2746 -0.3037  1.6253
  149SAPE   H9Y16499   6.026   5.680   7.943  0.0704  1.7161 -2.6367
  149SAPE  C31016500   6.023   5.794   8.125 -0.2969 -0.6651  0.2254
  149SAPE  H10X16501   5.913   5.804   8.115 -0.2509 -0.9463 -0.6832
  149SAPE  H10Y16502   6.072   5.886   8.163  0.1912 -0.7282 -0.2282
  149SAPE  C31116503   6.050   5.683   8.216 -0.1219 -0.2182 -0.2078
  149SAPE  H11X16504   6.159   5.662   8.214 -0.2152 -0.7310 -0.0925
  149SAPE  H11Y16505   6.002   5.593   8.172  1.8280 -1.0488 -0.7470
  149SAPE  C31216506   6.019   5.703   8.366  0.3981 -0.7193  0.0161
  149SAPE  H12X16507   5.917   5.746   8.368  0.4952 -0.5199  1.7984
  149SAPE  H12Y16508   6.100   5.768   8.405  0.8245 -1.0320 -0.3360
  149SAPE  C31316509   6.021   5.579   8.441 -0.3545  0.5883 -0.4434
  149SAPE  H13X16510   6.121   5.529   8.441  0.1383  1.5376  0.5907
  149SAPE  H13Y16511   5.944   5.509   8.403 -0.2094  0.0862  0.1662
  149SAPE  C31416512   5.979   5.613   8.589 -0.2651 -0.8094 -0.0444
  149SAPE  H14X16513   5.895   5.686   8.592  1.1516  0.8810  1.3148
  149SAPE  H14Y16514   6.068   5.670   8.626  0.6115 -0.6274 -2.2683
  149SAPE  C31516515   5.945   5.496   8.678  0.6122  0.2579 -0.3893
  149SAPE  H15X16516   5.977   5.522   8.781 -1.4237  3.3044 -0.4194
  149SAPE  H15Y16517   6.006   5.407   8.649  2.5953  1.6707 -0.7726
  149SAPE  C31616518   5.792   5.446   8.680  0.0200 -0.1413 -0.3960
  149SAPE  H16X16519   5.743   5.457   8.581 -1.4500 -2.3085  0.0161
  149SAPE  H16Y16520   5.747   5.521   8.748 -0.6023 -0.3978 -0.5228
  149SAPE  C31716521   5.771   5.307   8.731  0.8220  0.2405  0.1937
  149SAPE  H17X16522   5.837   5.290   8.818  0.0090 -0.4151  0.6944
  149SAPE  H17Y16523   5.809   5.238   8.652  1.7420  1.9372 -0.9033
  149SAPE  C31816524   5.622   5.267   8.761 -0.1853  0.4385 -0.3470
  149SAPE  H18X16525   5.605   5.198   8.846  1.0119  0.4936 -0.0526
  149SAPE  H18Y16526   5.576   5.237   8.665  0.2708 -0.9881 -0.1477
  149SAPE  H18Z16527   5.558   5.356   8.781  1.2811  1.8965 -1.7710
  150SAPE     N16528   5.285   6.148   6.559 -0.1710  0.0792  0.5549
  150SAPE   HN116529   5.253   6.053   6.588 -1.2704  0.7473  1.6288
  150SAPE   HN216530   5.238   6.184   6.474  0.5386 -0.2762  0.0057
  150SAPE   HN316531   5.385   6.141   6.532  0.1120  3.4829  0.2864
  150SAPE   C1216532   5.271   6.249   6.665  0.8124  0.1986 -1.0237
  150SAPE  H12A16533   5.297   6.204   6.763  1.7822  1.7204 -0.5391
  150SAPE  H12B16534   5.165   6.281   6.672  1.1957  1.2310  0.5296
  150SAPE   C1116535   5.366   6.366   6.634  0.5118  0.1006 -0.5333
  150SAPE  H11A16536   5.468   6.323   6.627  0.1352 -0.9319  0.0201
  150SAPE  H11B16537   5.368   6.434   6.722  2.9056  0.0759 -0.4901
  150SAPE     P16538   5.200   6.535   6.515  0.5198 -0.3936  0.5857
  150SAPE   O1316539   5.238   6.677   6.496  0.0325 -0.4210  0.0708
  150SAPE   O1416540   5.113   6.477   6.408  0.7897 -0.1263 -0.0286
  150SAPE   O1216541   5.326   6.451   6.523 -0.3708 -0.2759  0.0528
  150SAPE   O1116542   5.132   6.517   6.663  1.0559 -0.6778 -0.0653
  150SAPE    C116543   5.095   6.639   6.730  0.3793 -0.1810 -0.5682
  150SAPE    HA16544   5.179   6.687   6.784 -0.8436  1.1157  0.2287
  150SAPE    HB16545   5.051   6.712   6.658 -2.2419 -0.4232  0.6732
  150SAPE    C216546   4.991   6.600   6.847 -0.2776  0.3762  0.1578
  150SAPE    HS16547   4.958   6.692   6.900 -0.8188 -0.6029  1.5942
  150SAPE   O2116548   5.045   6.512   6.945  0.5784  0.0443  0.0208
  150SAPE   C2116549   5.130   6.571   7.022 -0.2885  0.5061  0.2008
  150SAPE   O2216550   5.157   6.692   7.023 -0.5665  0.3895  0.2304
  150SAPE   C2216551   5.198   6.463   7.112 -0.4410  0.6473  0.6588
  150SAPE   H2R16552   5.158   6.365   7.077  0.2297  1.3919 -2.4832
  150SAPE   H2S16553   5.308   6.475   7.102 -0.2933 -1.2460 -0.4432
  150SAPE    C316554   4.866   6.532   6.786 -1.2109  0.1767 -0.4261
  150SAPE    HX16555   4.907   6.433   6.754  0.6705  0.9285 -0.4751
  150SAPE    HY16556   4.830   6.589   6.698  0.8992 -0.2295 -1.6394
  150SAPE   O3116557   4.767   6.520   6.895  0.3615  0.0358 -0.6437
  150SAPE   C3116558   4.671   6.611   6.898 -0.1072  0.2107 -0.9572
  150SAPE   O3216559   4.661   6.702   6.819 -0.4275 -0.1787  0.0914
  150SAPE   C3216560   4.574   6.562   7.005  0.4610  0.7886 -0.2785
  150SAPE   H2X16561   4.602   6.592   7.108 -1.4251 -2.6548  1.4256
  150SAPE   H2Y16562   4.563   6.452   7.018  0.2972  1.0308  2.0490
  150SAPE   C2316563   5.165   6.464   7.261 -0.1211  0.4793 -0.0319
  150SAPE   H3R16564   5.216   6.378   7.310  0.7144  0.1467 -1.4515
  150SAPE   H3S16565   5.058   6.436   7.264 -0.0817 -0.0640  4.4727
  150SAPE   C2416566   5.182   6.596   7.339  0.5174 -0.6252 -0.3160
  150SAPE   H4R16567   5.141   6.588   7.442 -1.0533 -0.5150 -0.9123
  150SAPE   H4S16568   5.115   6.672   7.295  0.4694 -1.6216 -2.0531
  150SAPE   C2516569   5.314   6.646   7.331 -0.8419 -0.0157 -0.0187
  150SAPE   H5R16570   5.352   6.666   7.229  4.6579 -1.6771  1.3517
  150SAPE   C2616571   5.396   6.657   7.428 -0.5260 -0.4408  0.3307
  150SAPE   H6R16572   5.498   6.693   7.405 -0.6243  0.1805  0.8390
  150SAPE   C2716573   5.377   6.614   7.576 -0.1759 -0.0326  0.2304
  150SAPE   H7R16574   5.477   6.578   7.608  0.5105 -0.3242 -2.0033
  150SAPE   H7S16575   5.304   6.530   7.579 -0.6087  0.3517  0.5188
  150SAPE   C2816576   5.329   6.737   7.657 -0.2013 -0.5902 -0.7123
  150SAPE   H8R16577   5.269   6.814   7.606 -0.4011 -0.7853 -0.7720
  150SAPE   C2916578   5.325   6.739   7.794 -0.2992 -0.5311  0.0814
  150SAPE   H9R16579   5.278   6.830   7.835  2.0954  1.1967 -0.7908
  150SAPE  C21016580   5.377   6.631   7.885 -1.0031 -0.2147  0.7656
  150SAPE  H10R16581   5.436   6.551   7.835  2.0001  2.9269 -1.1590
  150SAPE  H10S16582   5.286   6.588   7.933 -0.3511 -0.8279  1.4768
  150SAPE  C21116583   5.476   6.682   7.978 -0.1159  0.4248 -0.0273
  150SAPE  H11R16584   5.571   6.682   7.921 -1.2383  0.1451 -1.9779
  150SAPE  C21216585   5.454   6.708   8.111 -0.3843  0.0333 -0.1517
  150SAPE  H12R16586   5.535   6.750   8.173 -0.8721  1.2377 -0.3117
  150SAPE  C21316587   5.326   6.702   8.178 -0.4906  0.1448  0.1193
  150SAPE  H13R16588   5.352   6.665   8.280 -0.1255 -0.1901 -0.0966
  150SAPE  H13S16589   5.262   6.619   8.142  0.8995 -0.9829  0.2090
  150SAPE  C21416590   5.256   6.844   8.171  0.1455 -0.0621 -0.6736
  150SAPE  H14R16591   5.279   6.886   8.072 -0.8936 -1.4339 -1.5369
  150SAPE  C21516592   5.172   6.905   8.262 -0.2708 -0.0489 -0.6727
  150SAPE  H15R16593   5.137   7.007   8.241  1.5731  0.7385 -0.1389
  150SAPE  C21616594   5.134   6.844   8.389  0.5944  0.1112 -0.1071
  150SAPE  H16R16595   5.191   6.757   8.427 -1.6100 -0.7529  1.3914
  150SAPE  H16S16596   5.032   6.804   8.370 -0.5713  1.8027  2.0486
  150SAPE  C21716597   5.119   6.938   8.513 -0.1761 -0.7886  0.5414
  150SAPE  H17R16598   5.068   7.032   8.483 -0.1056 -0.8533  0.2188
  150SAPE  H17S16599   5.217   6.976   8.548 -0.2540 -0.0674 -0.0057
  150SAPE  C21816600   5.048   6.865   8.625 -0.3393 -0.2812  0.1179
  150SAPE  H18R16601   5.070   6.757   8.635 -3.1244 -0.9568 -0.1288
  150SAPE  H18S16602   4.940   6.878   8.604  0.0354  1.1677 -1.1035
  150SAPE  C21916603   5.085   6.926   8.756  0.4686  0.4163 -0.2882
  150SAPE  H19R16604   5.048   7.029   8.739  0.6403  0.4521 -0.4479
  150SAPE  H19S16605   5.195   6.939   8.755  0.5465 -0.2456 -1.1883
  150SAPE  C22016606   5.032   6.847   8.875 -0.3030 -0.1535 -0.1707
  150SAPE  H20R16607   5.053   6.898   8.971  0.3085 -1.0727  0.2030
  150SAPE  H20S16608   5.083   6.749   8.890 -0.8592  0.0041  3.7688
  150SAPE  H20T16609   4.922   6.832   8.869 -0.2154 -0.3192 -1.9222
  150SAPE   C3316610   4.432   6.614   6.964 -0.2893  0.4659 -0.1078
  150SAPE   H3X16611   4.354   6.550   7.011  0.1385 -0.3988 -0.5560
  150SAPE   H3Y16612   4.413   6.602   6.856 -1.4839  0.9129  0.0410
  150SAPE   C3416613   4.399   6.761   7.007  0.6920  0.2727  0.0053
  150SAPE   H4X16614   4.302   6.790   6.959 -0.6994  0.7090  2.8462
  150SAPE   H4Y16615   4.480   6.818   6.958  2.0122 -0.5800  1.1116
  150SAPE   C3516616   4.386   6.781   7.161  0.2863 -0.2190 -0.2148
  150SAPE   H5X16617   4.348   6.885   7.164 -2.5786 -1.1627 -0.7543
  150SAPE   H5Y16618   4.484   6.779   7.214  0.5776  0.9166 -0.6664
  150SAPE   C3616619   4.276   6.694   7.225 -0.2283 -0.6206  0.7223
  150SAPE   H6X16620   4.311   6.589   7.218  0.5027 -0.3740  0.5884
  150SAPE   H6Y16621   4.182   6.702   7.166  1.6000  0.7059 -2.2355
  150SAPE   C3716622   4.250   6.702   7.377 -0.0618  0.3100 -0.3673
  150SAPE   H7X16623   4.155   6.650   7.405  1.2220 -1.6717  0.5271
  150SAPE   H7Y16624   4.246   6.809   7.405  0.1537  0.0976  0.5009
  150SAPE   C3816625   4.361   6.639   7.465  0.1070 -0.3131 -0.9966
  150SAPE   H8X16626   4.462   6.679   7.441  0.7432 -0.1238  1.7036
  150SAPE   H8Y16627   4.352   6.529   7.480 -0.7551  0.1175  2.1363
  150SAPE   C3916628   4.338   6.703   7.605  0.1210  0.0385  0.8686
  150SAPE   H9X16629   4.235   6.680   7.640 -0.3371  1.3259  0.4229
  150SAPE   H9Y16630   4.344   6.813   7.617 -2.8716  0.1574  2.0401
  150SAPE  C31016631   4.428   6.638   7.709 -0.3014 -0.1442  0.1926
  150SAPE  H10X16632   4.528   6.685   7.694 -0.6028  0.1541 -1.0327
  150SAPE  H10Y16633   4.451   6.532   7.685 -0.9134 -0.6265  1.6394
  150SAPE  C31116634   4.394   6.671   7.856  0.5312 -0.1446  0.0440
  150SAPE  H11X16635   4.423   6.775   7.882 -0.8052 -0.0760  1.4137
  150SAPE  H11Y16636   4.464   6.607   7.913 -0.6555 -1.6873 -0.1794
  150SAPE  C31216637   4.247   6.654   7.897  0.0434  0.2176 -0.2121
  150SAPE  H12X16638   4.172   6.727   7.859  1.3721  1.0436 -1.3538
  150SAPE  H12Y16639   4.229   6.668   8.005  0.2250  0.3730 -0.2022
  150SAPE  C31316640   4.191   6.515   7.863 -0.2929 -0.0423 -0.8764
  150SAPE  H13X16641   4.276   6.443   7.868 -0.0163  0.3321  0.1637
  150SAPE  H13Y16642   4.144   6.502   7.763  0.0310  1.5907 -1.2600
  150SAPE  C31416643   4.083   6.473   7.963  0.1547  0.2099  0.0695
  150SAPE  H14X16644   4.037   6.382   7.919 -0.8804 -0.0761  1.6583
  150SAPE  H14Y16645   3.993   6.538   7.973  0.1439  0.6623 -2.3745
  150SAPE  C31516646   4.140   6.426   8.095  0.0947  0.7235 -0.1991
  150SAPE  H15X16647   4.191   6.503   8.157  1.5457 -0.0812 -0.3680
  150SAPE  H15Y16648   4.216   6.347   8.078 -0.7989 -0.3130  0.4886
  150SAPE  C31616649   4.033   6.372   8.192  0.0011  0.2579  0.2768
  150SAPE  H16X16650   4.089   6.290   8.242 -1.6577 -1.9017 -1.2167
  150SAPE  H16Y16651   3.950   6.333   8.130  0.1168  0.7112 -0.1783
  150SAPE  C31716652   3.985   6.470   8.300  0.0365  0.2839 -0.3405
  150SAPE  H17X16653   4.081   6.511   8.337  1.2341 -0.5193 -2.3778
  150SAPE  H17Y16654   3.942   6.408   8.383  0.2906  0.3739 -0.1400
  150SAPE  C31816655   3.893   6.583   8.262  0.6488 -0.0669 -0.4098
  150SAPE  H18X16656   3.802   6.547   8.209 -1.4324  1.8409  1.6508
  150SAPE  H18Y16657   3.940   6.668   8.210 -0.5927  0.8568 -0.0896
  150SAPE  H18Z16658   3.861   6.635   8.355 -2.0244  0.4406 -1.5241
  151SAPE     N16659   5.787   4.282   6.328 -0.4894 -0.0623 -0.1259
  151SAPE   HN116660   5.721   4.220   6.277  1.3999 -0.2152 -2.5738
  151SAPE   HN216661   5.775   4.380   6.297  1.0109  0.9687  2.2452
  151SAPE   HN316662   5.883   4.252   6.302 -0.6523  1.0299 -2.2205
  151SAPE   C1216663   5.775   4.266   6.478 -0.8034  0.1205 -0.2776
  151SAPE  H12A16664   5.839   4.180   6.509 -0.1083  1.6318  2.8775
  151SAPE  H12B16665   5.666   4.247   6.491 -0.6945 -0.0178  0.4942
  151SAPE   C1116666   5.808   4.394   6.549  0.3944  0.1515  0.5428
  151SAPE  H11A16667   5.800   4.381   6.659 -0.0010  0.2868  0.5325
  151SAPE  H11B16668   5.736   4.468   6.509 -1.0756 -1.5619 -0.1060
  151SAPE     P16669   5.998   4.566   6.566  0.0729 -0.2745 -0.3604
  151SAPE   O1316670   6.132   4.594   6.506 -0.0211  0.2369  0.1652
  151SAPE   O1416671   5.897   4.676   6.548  0.4619  0.8910 -0.0906
  151SAPE   O1216672   5.938   4.434   6.512 -0.1557  0.4313  0.0713
  151SAPE   O1116673   6.019   4.532   6.717  0.1292 -0.4204  0.9012
  151SAPE    C116674   6.079   4.412   6.767  0.5956 -0.0857  0.1817
  151SAPE    HA16675   6.004   4.340   6.807  0.0504  0.1855 -0.3245
  151SAPE    HB16676   6.118   4.360   6.678 -1.0055  2.0959 -1.9259
  151SAPE    C216677   6.186   4.438   6.879 -0.0484  0.8069 -0.0765
  151SAPE    HS16678   6.197   4.342   6.933 -1.1671  1.3772  1.2418
  151SAPE   O2116679   6.145   4.543   6.974 -0.3870 -0.5323  0.5659
  151SAPE   C2116680   6.069   4.487   7.067 -0.9269 -0.8970 -0.1869
  151SAPE   O2216681   6.027   4.373   7.076  0.1658  0.0608  0.1080
  151SAPE   C2216682   6.054   4.600   7.168 -0.8313 -0.1116 -0.2735
  151SAPE   H2R16683   6.154   4.641   7.194  0.3374 -2.6530 -0.4109
  151SAPE   H2S16684   6.001   4.688   7.126  0.4858  0.9236  0.1650
  151SAPE    C316685   6.321   4.475   6.807 -0.4938  0.0723  0.5968
  151SAPE    HX16686   6.288   4.550   6.732 -1.0352 -1.6830 -0.9826
  151SAPE    HY16687   6.357   4.399   6.735 -0.3146 -0.6116  1.3914
  151SAPE   O3116688   6.438   4.507   6.884 -0.5451  0.1248 -0.2047
  151SAPE   C3116689   6.484   4.628   6.879 -0.1541 -0.3555 -0.4648
  151SAPE   O3216690   6.439   4.720   6.812  0.0814 -0.0056 -0.0599
  151SAPE   C3216691   6.615   4.642   6.963 -0.0640 -0.3990  0.7774
  151SAPE   H2X16692   6.700   4.686   6.907  0.5793 -2.7462 -0.2050
  151SAPE   H2Y16693   6.653   4.538   6.973  1.9238  0.1275 -0.8048
  151SAPE   C2316694   5.991   4.559   7.300 -0.6482 -0.2405  0.6281
  151SAPE   H3R16695   6.004   4.646   7.368 -3.1406 -0.9922  2.1682
  151SAPE   H3S16696   6.054   4.478   7.343  1.8248  0.5807 -1.1920
  151SAPE   C2416697   5.839   4.523   7.282  0.1303  0.2828 -0.2280
  151SAPE   H4R16698   5.818   4.441   7.353  1.3526  1.9548  2.2117
  151SAPE   H4S16699   5.818   4.470   7.186 -3.1509 -1.0483  1.0948
  151SAPE   C2516700   5.746   4.638   7.297  0.2760 -0.3103 -0.1555
  151SAPE   H5R16701   5.742   4.708   7.213  0.2773  0.7833  0.7405
  151SAPE   C2616702   5.695   4.686   7.409  0.2704  0.3938  0.4923
  151SAPE   H6R16703   5.636   4.778   7.399  0.1934  0.2439 -0.5776
  151SAPE   C2716704   5.716   4.627   7.545 -0.3938 -0.1098 -0.9778
  151SAPE   H7R16705   5.721   4.517   7.552  0.8175  0.0182  1.8101
  151SAPE   H7S16706   5.622   4.658   7.596  1.4237  2.2834  1.1858
  151SAPE   C2816707   5.844   4.683   7.607  0.0850  0.4773 -0.1359
  151SAPE   H8R16708   5.892   4.761   7.547 -1.7431  0.7241 -1.3639
  151SAPE   C2916709   5.893   4.638   7.723  0.4100  0.7192  0.6176
  151SAPE   H9R16710   5.992   4.674   7.755  0.3830  0.0245  1.5472
  151SAPE  C21016711   5.832   4.522   7.805  0.6697 -0.5367  0.4414
  151SAPE  H10R16712   5.764   4.456   7.747  0.8574 -2.6621  2.4823
  151SAPE  H10S16713   5.764   4.551   7.887 -1.1461  0.7541 -1.4196
  151SAPE  C21116714   5.942   4.443   7.859  0.1640  0.9763 -0.7016
  151SAPE  H11R16715   5.979   4.360   7.796  0.5843  0.4096  0.2705
  151SAPE  C21216716   6.008   4.454   7.979 -0.0586 -0.3047 -0.1510
  151SAPE  H12R16717   6.090   4.380   7.986 -0.9501 -1.2229  0.9605
  151SAPE  C21316718   6.001   4.552   8.095  0.2994 -0.2598 -0.4276
  151SAPE  H13R16719   6.050   4.646   8.062  0.4781  0.2459  1.1590
  151SAPE  H13S16720   6.064   4.512   8.178 -2.1885  1.3314  2.3906
  151SAPE  C21416721   5.866   4.574   8.153  0.4141 -0.2836  0.2623
  151SAPE  H14R16722   5.821   4.477   8.178  0.4808 -0.4839 -0.3917
  151SAPE  C21516723   5.794   4.693   8.151 -0.5096  0.3304  0.6036
  151SAPE  H15R16724   5.690   4.680   8.185 -0.5257  0.1806  0.4993
  151SAPE  C21616725   5.830   4.831   8.100  0.0940  0.3573 -0.6439
  151SAPE  H16R16726   5.805   4.833   7.991 -1.2083  2.9532 -0.3524
  151SAPE  H16S16727   5.941   4.839   8.105  0.0538  1.8644 -1.6789
  151SAPE  C21716728   5.770   4.930   8.201  0.1783 -1.2391 -0.1378
  151SAPE  H17R16729   5.786   4.890   8.303  0.1387 -2.8581 -0.7310
  151SAPE  H17S16730   5.660   4.931   8.190  0.0082 -0.1990  1.4490
  151SAPE  C21816731   5.826   5.070   8.174 -0.4532  0.2724  0.0341
  151SAPE  H18R16732   5.803   5.082   8.066  0.2732  3.1218  0.1247
  151SAPE  H18S16733   5.937   5.072   8.181 -0.2006 -2.9659 -1.4228
  151SAPE  C21916734   5.754   5.173   8.265 -0.3678 -1.1464 -0.1238
  151SAPE  H19R16735   5.740   5.144   8.372 -2.5052  3.7449  1.2092
  151SAPE  H19S16736   5.659   5.198   8.213 -1.9476 -1.4007  2.4706
  151SAPE  C22016737   5.841   5.296   8.269  0.6385  0.3561 -0.2564
  151SAPE  H20R16738   5.782   5.372   8.325 -0.5326  0.3811 -1.4786
  151SAPE  H20S16739   5.944   5.274   8.306  0.3947  2.7430  2.2240
  151SAPE  H20T16740   5.854   5.333   8.165  1.9591  0.8377  0.0539
  151SAPE   C3316741   6.586   4.736   7.078 -0.4260  0.3315 -0.8925
  151SAPE   H3X16742   6.530   4.826   7.046 -3.6626 -1.2408 -0.1139
  151SAPE   H3Y16743   6.680   4.762   7.130 -1.4964 -0.3094  1.5181
  151SAPE   C3416744   6.504   4.661   7.192 -0.5337  0.2367  0.2268
  151SAPE   H4X16745   6.396   4.666   7.166  0.0776  0.9657 -2.4405
  151SAPE   H4Y16746   6.512   4.717   7.288  1.4287 -0.6882  0.6516
  151SAPE   C3516747   6.541   4.516   7.236 -0.3709 -1.1399  0.5859
  151SAPE   H5X16748   6.544   4.446   7.150  0.3209  0.2176 -0.5497
  151SAPE   H5Y16749   6.459   4.473   7.297 -0.5163 -1.8372 -0.0980
  151SAPE   C3616750   6.680   4.534   7.303 -0.4472 -0.1047  0.2994
  151SAPE   H6X16751   6.754   4.600   7.252  0.6504 -2.2117 -0.9875
  151SAPE   H6Y16752   6.725   4.432   7.308  1.8683  0.8905  1.1935
  151SAPE   C3716753   6.674   4.584   7.446  0.0097  0.4497  0.2810
  151SAPE   H7X16754   6.574   4.543   7.474 -0.4665  0.0996 -1.8149
  151SAPE   H7Y16755   6.672   4.695   7.441 -1.4272  0.4388  0.2489
  151SAPE   C3816756   6.796   4.538   7.527  0.1294  0.2696  0.0862
  151SAPE   H8X16757   6.883   4.584   7.475 -1.4287  1.5538 -1.5439
  151SAPE   H8Y16758   6.803   4.427   7.533  0.4088  0.3045  0.4564
  151SAPE   C3916759   6.789   4.573   7.678 -0.2311 -0.5615  0.2588
  151SAPE   H9X16760   6.867   4.517   7.734 -0.8068  1.5416  3.4456
  151SAPE   H9Y16761   6.682   4.551   7.698 -0.2183 -0.3901  0.5173
  151SAPE  C31016762   6.813   4.719   7.708  0.4392 -0.2060 -0.9668
  151SAPE  H10X16763   6.753   4.784   7.641  0.7705  0.4468 -0.6398
  151SAPE  H10Y16764   6.916   4.754   7.683 -0.5778  2.3854 -1.8834
  151SAPE  C31116765   6.785   4.761   7.852  0.3287  0.4074  0.4734
  151SAPE  H11X16766   6.679   4.750   7.882  0.8262  0.8242  2.5710
  151SAPE  H11Y16767   6.806   4.866   7.880  0.4492  0.4769  0.1342
  151SAPE  C31216768   6.856   4.680   7.963 -0.2102  0.1329 -0.3345
  151SAPE  H12X16769   6.965   4.701   7.971 -0.0372 -1.2608  2.1837
  151SAPE  H12Y16770   6.838   4.573   7.941  3.4366 -0.6146 -0.3873
  151SAPE  C31316771   6.791   4.705   8.098  0.8583 -0.4995  0.5446
  151SAPE  H13X16772   6.684   4.674   8.091  0.8134  0.0234 -2.9830
  151SAPE  H13Y16773   6.793   4.815   8.117 -1.6938 -0.1235 -0.8207
  151SAPE  C31416774   6.867   4.632   8.204 -0.0674 -0.3768 -0.3585
  151SAPE  H14X16775   6.885   4.532   8.160 -1.3426 -1.2325  0.9436
  151SAPE  H14Y16776   6.796   4.623   8.289 -1.7250 -0.3553 -1.6849
  151SAPE  C31516777   6.996   4.706   8.257  0.0583 -0.0652 -0.6442
  151SAPE  H15X16778   6.971   4.803   8.305  0.6376  0.1810 -0.8333
  151SAPE  H15Y16779   7.076   4.722   8.183  1.1032 -1.3974  0.1405
  151SAPE  C31616780   7.060   4.620   8.364  0.1341  1.0305  0.0125
  151SAPE  H16X16781   7.089   4.522   8.321 -0.9031  0.6129  0.2425
  151SAPE  H16Y16782   6.985   4.590   8.440  1.1107 -2.2061 -0.1413
  151SAPE  C31716783   7.181   4.683   8.432  0.5550  0.2954  0.1952
  151SAPE  H17X16784   7.154   4.781   8.477 -0.1954 -0.1373  0.6934
  151SAPE  H17Y16785   7.259   4.696   8.354  1.6288 -0.8252  1.0416
  151SAPE  C31816786   7.234   4.599   8.557  0.5468 -0.5767 -0.0271
  151SAPE  H18X16787   7.261   4.501   8.513 -1.2176 -0.2190 -2.0293
  151SAPE  H18Y16788   7.150   4.596   8.630 -1.5721  0.9539 -2.2472
  151SAPE  H18Z16789   7.322   4.639   8.612 -0.0484  0.5238  0.1546
  152SAPE     N16790   4.114   0.669   6.087  0.3297 -0.1937 -0.3073
  152SAPE   HN116791   4.040   0.623   6.144  0.3489  0.7785  0.5484
  152SAPE   HN216792   4.084   0.766   6.062 -1.5224 -0.5502  0.3767
  152SAPE   HN316793   4.132   0.613   6.002 -2.0280 -1.1593 -0.2464
  152SAPE   C1216794   4.230   0.672   6.183 -0.8958  0.0169 -0.1718
  152SAPE  H12A16795   4.303   0.735   6.129 -0.6015 -0.7990 -0.7310
  152SAPE  H12B16796   4.269   0.568   6.191  3.2886  1.4129 -0.4133
  152SAPE   C1116797   4.198   0.743   6.316  0.1355 -0.2568  0.5317
  152SAPE  H11A16798   4.150   0.843   6.302 -1.7405 -1.1351  0.3539
  152SAPE  H11B16799   4.291   0.768   6.371  0.2392  2.0438 -0.5437
  152SAPE     P16800   3.979   0.683   6.454 -0.1574 -0.2091 -0.1120
  152SAPE   O1316801   3.892   0.720   6.344 -0.2422  0.5481  0.6970
  152SAPE   O1416802   3.935   0.572   6.543  0.1545 -0.3771  0.6677
  152SAPE   O1216803   4.125   0.653   6.402  0.2967 -0.1595 -0.0610
  152SAPE   O1116804   4.002   0.814   6.533 -0.6465  0.2015  0.6936
  152SAPE    C116805   3.889   0.862   6.607 -0.5092 -0.1624 -0.3510
  152SAPE    HA16806   3.872   0.970   6.590  1.4227  0.3010  0.3644
  152SAPE    HB16807   3.794   0.809   6.587 -1.8174  1.0155  2.2643
  152SAPE    C216808   3.919   0.852   6.759 -0.5723 -0.0828 -0.0799
  152SAPE    HS16809   3.914   0.743   6.780 -0.9168 -0.1657 -0.5507
  152SAPE   O2116810   3.831   0.926   6.840  0.1771 -0.6393  0.6358
  152SAPE   C2116811   3.706   0.880   6.856  0.0251 -0.0859  0.4837
  152SAPE   O2216812   3.664   0.775   6.818  0.5307 -0.0139 -0.4139
  152SAPE   C2216813   3.634   0.979   6.943  0.1202 -0.0184  0.5356
  152SAPE   H2R16814   3.663   1.074   6.894  2.6701 -0.5144  0.9406
  152SAPE   H2S16815   3.525   0.959   6.949 -0.0047  0.4702 -0.0352
  152SAPE    C316816   4.062   0.888   6.808  0.6723  0.3710 -0.3566
  152SAPE    HX16817   4.065   0.998   6.793  1.7712  0.2315 -1.4040
  152SAPE    HY16818   4.150   0.846   6.753  1.2577 -0.0080  0.8229
  152SAPE   O3116819   4.075   0.854   6.960  0.3024  0.0426  0.0334
  152SAPE   C3116820   4.121   0.728   6.973  0.0805  0.5495 -0.7314
  152SAPE   O3216821   4.134   0.650   6.885 -0.0544 -0.1238  0.1641
  152SAPE   C3216822   4.136   0.694   7.121  0.1204  0.2712 -1.0548
  152SAPE   H2X16823   4.232   0.734   7.159 -1.0785  1.9036  0.3662
  152SAPE   H2Y16824   4.146   0.585   7.140  3.7204  0.4137 -1.4334
  152SAPE   C2316825   3.701   0.959   7.079 -0.1969 -0.7821 -0.1586
  152SAPE   H3R16826   3.812   0.947   7.074 -0.3083 -1.9245 -0.1039
  152SAPE   H3S16827   3.662   0.862   7.116 -0.1707  0.3884  3.3209
  152SAPE   C2416828   3.661   1.066   7.189 -0.4451 -0.8204 -0.2693
  152SAPE   H4R16829   3.551   1.076   7.177 -0.2170  1.1926 -1.1519
  152SAPE   H4S16830   3.715   1.159   7.161 -1.6185  1.3095  3.7760
  152SAPE   C2516831   3.704   1.030   7.329 -0.0717  0.2089  0.1843
  152SAPE   H5R16832   3.795   0.969   7.344  0.2582  0.5785 -0.2898
  152SAPE   C2616833   3.655   1.093   7.439 -0.2290  0.6438 -0.5258
  152SAPE   H6R16834   3.692   1.069   7.539  0.4534 -1.1543 -1.1718
  152SAPE   C2716835   3.544   1.194   7.442 -0.0102 -0.2619  0.6301
  152SAPE   H7R16836   3.480   1.179   7.531 -1.8596  2.0743 -0.2101
  152SAPE   H7S16837   3.483   1.173   7.352 -0.5603 -1.6365  1.3074
  152SAPE   C2816838   3.601   1.333   7.425 -0.3975  0.8647  0.4048
  152SAPE   H8R16839   3.679   1.333   7.347 -2.6855 -1.0124 -2.0568
  152SAPE   C2916840   3.567   1.442   7.496 -0.0412  0.0407  0.2281
  152SAPE   H9R16841   3.626   1.529   7.466 -0.0643 -0.3361 -0.9695
  152SAPE  C21016842   3.468   1.449   7.603  0.3301 -0.8919 -0.1515
  152SAPE  H10R16843   3.471   1.367   7.677 -1.6300 -0.7281  0.1609
  152SAPE  H10S16844   3.368   1.449   7.556 -0.0152  0.8075  0.4786
  152SAPE  C21116845   3.485   1.572   7.691  0.5935  0.8056  0.3879
  152SAPE  H11R16846   3.445   1.663   7.643 -1.7692  0.4662  1.5629
  152SAPE  C21216847   3.525   1.585   7.819 -0.6772  0.0031 -0.2176
  152SAPE  H12R16848   3.526   1.686   7.864 -1.5499 -0.0565 -0.0410
  152SAPE  C21316849   3.563   1.468   7.910  0.0377 -0.3004  0.0835
  152SAPE  H13R16850   3.596   1.386   7.843  1.6085  0.7744 -0.5208
  152SAPE  H13S16851   3.479   1.421   7.966  1.2847  0.0694  2.3712
  152SAPE  C21416852   3.672   1.504   8.005 -0.0190  0.0623 -0.2243
  152SAPE  H14R16853   3.772   1.471   7.973 -0.0376 -0.3422  0.1298
  152SAPE  C21516854   3.649   1.557   8.127 -0.0591 -0.2307 -0.1103
  152SAPE  H15R16855   3.733   1.566   8.198  0.9235 -2.7095 -0.8588
  152SAPE  C21616856   3.512   1.582   8.176  0.5695 -0.2794  0.4298
  152SAPE  H16R16857   3.433   1.525   8.122  0.3937 -1.7631  2.1448
  152SAPE  H16S16858   3.500   1.692   8.169 -1.2209 -0.5221 -1.0433
  152SAPE  C21716859   3.490   1.544   8.325 -0.1954  0.0770 -0.0197
  152SAPE  H17R16860   3.526   1.441   8.343 -0.4062  0.3872  2.5400
  152SAPE  H17S16861   3.380   1.545   8.343 -0.2992 -1.6784 -0.3798
  152SAPE  C21816862   3.572   1.634   8.418  0.0846  0.0433  0.3447
  152SAPE  H18R16863   3.540   1.739   8.402  0.3795 -0.2273 -2.5132
  152SAPE  H18S16864   3.681   1.633   8.395  0.4850  2.3961  1.8465
  152SAPE  C21916865   3.551   1.612   8.569  0.1865  0.6475  0.5665
  152SAPE  H19R16866   3.441   1.605   8.586  0.2994  0.3723  1.1972
  152SAPE  H19S16867   3.590   1.700   8.625  0.6585  0.4005  0.6280
  152SAPE  C22016868   3.629   1.489   8.623 -0.2781  0.2330 -0.4576
  152SAPE  H20R16869   3.739   1.505   8.626 -0.0829 -0.9538 -0.6457
  152SAPE  H20S16870   3.617   1.401   8.556  3.3115  0.5884 -1.7913
  152SAPE  H20T16871   3.605   1.474   8.730  1.8943 -1.3327 -0.1181
  152SAPE   C3316872   4.011   0.735   7.201  0.5174 -0.0710 -0.5092
  152SAPE   H3X16873   3.927   0.676   7.160  1.7421 -1.6020 -0.9283
  152SAPE   H3Y16874   3.991   0.843   7.184  1.1184 -0.2403 -2.6600
  152SAPE   C3416875   4.015   0.725   7.355 -0.2073  0.3302  0.1076
  152SAPE   H4X16876   4.055   0.818   7.401 -1.5994  1.7501 -1.4357
  152SAPE   H4Y16877   4.081   0.637   7.374 -1.0726 -0.3157  0.1585
  152SAPE   C3516878   3.884   0.680   7.411  0.3708 -0.1622  0.1047
  152SAPE   H5X16879   3.847   0.591   7.356 -0.2324 -0.2946  0.7151
  152SAPE   H5Y16880   3.804   0.757   7.399 -1.1135 -1.7756 -0.7983
  152SAPE   C3616881   3.889   0.644   7.565  0.5313  0.5004  0.0953
  152SAPE   H6X16882   3.958   0.560   7.585  1.5929  1.0951 -0.9523
  152SAPE   H6Y16883   3.789   0.601   7.589  1.4759 -1.7807  0.1608
  152SAPE   C3716884   3.922   0.757   7.667 -0.0878  0.6236 -0.0334
  152SAPE   H7X16885   3.853   0.844   7.659 -0.5140  0.1407 -2.6235
  152SAPE   H7Y16886   4.021   0.805   7.649 -0.5493  2.8795  2.7837
  152SAPE   C3816887   3.931   0.709   7.814  0.0878  0.7922  0.2078
  152SAPE   H8X16888   3.998   0.622   7.824 -0.1847  0.6528  0.8778
  152SAPE   H8Y16889   3.826   0.675   7.830  0.4080 -0.3686 -0.0983
  152SAPE   C3916890   3.994   0.814   7.912 -0.0162  0.2160 -0.6512
  152SAPE   H9X16891   3.927   0.903   7.914 -1.7206 -0.9869 -1.3177
  152SAPE   H9Y16892   4.091   0.837   7.863 -1.8095  2.0083 -3.6370
  152SAPE  C31016893   3.994   0.765   8.061 -0.0247  0.1237 -0.3397
  152SAPE  H10X16894   4.064   0.678   8.064 -0.0914  0.0905  0.2650
  152SAPE  H10Y16895   3.897   0.733   8.105  0.0945  1.9739  1.4158
  152SAPE  C31116896   4.040   0.871   8.163  0.1430 -0.3714 -0.3307
  152SAPE  H11X16897   3.955   0.904   8.225 -0.0015 -3.9731  1.6643
  152SAPE  H11Y16898   4.073   0.962   8.108 -1.5077 -0.4377 -1.5124
  152SAPE  C31216899   4.152   0.826   8.253 -0.0693  0.0788 -0.2805
  152SAPE  H12X16900   4.242   0.810   8.190  0.2165  0.4754  0.0189
  152SAPE  H12Y16901   4.119   0.733   8.303 -1.3329  0.6882  0.0692
  152SAPE  C31316902   4.188   0.929   8.368 -0.0372  0.4426 -0.2111
  152SAPE  H13X16903   4.237   1.015   8.318 -0.3501  1.5614  1.3146
  152SAPE  H13Y16904   4.272   0.890   8.430 -0.7450 -2.7337 -1.0719
  152SAPE  C31416905   4.087   0.960   8.479  0.0782  0.4553  0.3169
  152SAPE  H14X16906   4.048   0.866   8.524  1.4429 -0.1784  0.2194
  152SAPE  H14Y16907   4.003   1.008   8.425  0.3738  2.4473  1.5225
  152SAPE  C31516908   4.147   1.054   8.586  0.0147 -1.5976  0.4309
  152SAPE  H15X16909   4.168   1.159   8.556  0.5646 -1.0610  2.5107
  152SAPE  H15Y16910   4.240   1.009   8.626  0.5349 -2.2444 -1.3823
  152SAPE  C31616911   4.053   1.074   8.710 -0.5748 -0.4074  0.6104
  152SAPE  H16X16912   4.031   0.973   8.750 -1.6902  0.4216  2.1698
  152SAPE  H16Y16913   3.957   1.115   8.673 -0.7793 -0.5696  0.9570
  152SAPE  C31716914   4.118   1.168   8.818 -0.3450 -0.0771  0.0409
  152SAPE  H17X16915   4.147   1.265   8.773 -0.8231  1.0782  2.1039
  152SAPE  H17Y16916   4.209   1.113   8.851  0.3040  0.4258 -0.8551
  152SAPE  C31816917   4.016   1.195   8.926  0.0264  0.1010  0.1897
  152SAPE  H18X16918   4.053   1.266   9.003  3.1098 -2.8785  1.7026
  152SAPE  H18Y16919   4.003   1.094   8.970  0.5521  0.1388  0.4399
  152SAPE  H18Z16920   3.917   1.223   8.884  0.7062  0.8924 -0.9434
  153SAPE     N16921   1.457   1.287   6.364 -0.0598  0.4972 -0.2942
  153SAPE   HN116922   1.486   1.374   6.315 -0.6760  0.4538 -0.7511
  153SAPE   HN216923   1.517   1.265   6.446 -1.9263 -0.6850  0.8084
  153SAPE   HN316924   1.464   1.202   6.305  3.9092 -1.1339  2.1278
  153SAPE   C1216925   1.319   1.317   6.418  0.2837 -0.4467 -0.0324
  153SAPE  H12A16926   1.274   1.396   6.354  0.3398  0.5240  1.1158
  153SAPE  H12B16927   1.334   1.340   6.525  1.5536  1.4397 -0.5625
  153SAPE   C1116928   1.224   1.193   6.407 -0.6456  0.6199  0.0061
  153SAPE  H11A16929   1.260   1.121   6.484 -1.7983  1.5510  1.4562
  153SAPE  H11B16930   1.248   1.147   6.308  1.7242  3.1840 -0.7315
  153SAPE     P16931   1.014   1.272   6.543  0.2528 -0.0577 -0.1059
  153SAPE   O1316932   0.993   1.414   6.506  0.5099  0.4280 -0.0397
  153SAPE   O1416933   0.903   1.178   6.567  0.1090  0.6140  0.3618
  153SAPE   O1216934   1.082   1.220   6.415 -0.1584  0.3844  0.5642
  153SAPE   O1116935   1.125   1.268   6.654 -0.3480  0.3127  0.1195
  153SAPE    C116936   1.102   1.198   6.777 -0.9750 -0.4288 -0.0004
  153SAPE    HA16937   1.155   1.250   6.859 -0.8235 -0.4806 -0.0650
  153SAPE    HB16938   0.993   1.184   6.798 -1.2602  0.2106 -0.9801
  153SAPE    C216939   1.145   1.043   6.767 -0.3064  0.1740  0.8428
  153SAPE    HS16940   1.101   1.014   6.670  2.4997 -1.4397 -0.0508
  153SAPE   O2116941   1.094   0.970   6.879 -0.2020  0.0987  0.4767
  153SAPE   C2116942   1.079   0.843   6.858  0.1967  0.2031  0.3411
  153SAPE   O2216943   1.095   0.781   6.754 -0.1922 -0.2157  0.1567
  153SAPE   C2216944   1.036   0.780   6.995  0.2143  0.2950 -0.1147
  153SAPE   H2R16945   1.125   0.800   7.057  0.4983 -0.2721 -0.3335
  153SAPE   H2S16946   0.959   0.854   7.025  0.4348  1.2516 -1.7743
  153SAPE    C316947   1.296   1.031   6.750 -0.3245 -0.6505 -0.0425
  153SAPE    HX16948   1.322   1.080   6.653 -3.7547 -2.3982 -2.0520
  153SAPE    HY16949   1.317   0.922   6.737  0.9252 -0.2306 -1.9631
  153SAPE   O3116950   1.372   1.084   6.857  0.5668 -0.5780  0.4285
  153SAPE   C3116951   1.402   0.999   6.954  0.5555 -0.0820  0.4930
  153SAPE   O3216952   1.383   0.879   6.951 -0.0405 -0.2132  0.4285
  153SAPE   C3216953   1.468   1.073   7.075  0.1935 -0.0072  0.3836
  153SAPE   H2X16954   1.396   1.143   7.123 -0.0345 -0.3439  0.5379
  153SAPE   H2Y16955   1.542   1.143   7.030  0.4280 -1.4486 -1.6035
  153SAPE   C2316956   0.981   0.636   7.008 -0.4076  0.1744 -0.3741
  153SAPE   H3R16957   1.040   0.555   6.961 -0.1430  0.5763 -0.7399
  153SAPE   H3S16958   0.879   0.654   6.966 -0.1170 -0.7979 -1.5296
  153SAPE   C2416959   0.941   0.594   7.153 -0.0886  0.2442 -0.3320
  153SAPE   H4R16960   0.891   0.685   7.193 -2.0834  0.2207 -2.5666
  153SAPE   H4S16961   1.027   0.585   7.223  0.5051 -0.5064 -1.1339
  153SAPE   C2516962   0.861   0.466   7.148 -0.4108  0.2978  0.0464
  153SAPE   H5R16963   0.904   0.389   7.083 -3.2256 -1.4161  0.0196
  153SAPE   C2616964   0.742   0.431   7.208  0.7631 -0.1134  0.3636
  153SAPE   H6R16965   0.697   0.330   7.204  1.4134 -0.3739 -0.6186
  153SAPE   C2716966   0.664   0.531   7.289 -0.5784 -0.7737  0.1038
  153SAPE   H7R16967   0.562   0.487   7.297 -0.8028 -0.0671  1.4600
  153SAPE   H7S16968   0.656   0.615   7.217  1.5573 -1.2079 -0.7141
  153SAPE   C2816969   0.729   0.563   7.432 -0.4694  0.3746  0.8696
  153SAPE   H8R16970   0.829   0.608   7.420 -1.4329  2.3917 -0.1715
  153SAPE   C2916971   0.681   0.555   7.557 -0.0205 -0.8466  0.3474
  153SAPE   H9R16972   0.733   0.593   7.646 -1.4757 -1.2478  1.4168
  153SAPE  C21016973   0.535   0.519   7.599  0.1947 -0.3192 -0.5797
  153SAPE  H10R16974   0.483   0.483   7.508  0.3781 -1.6825 -0.1624
  153SAPE  H10S16975   0.484   0.612   7.633  0.1913 -0.0202 -1.3914
  153SAPE  C21116976   0.541   0.414   7.699 -0.1315  0.5186 -0.5320
  153SAPE  H11R16977   0.544   0.312   7.657  0.3327  0.7947 -1.1817
  153SAPE  C21216978   0.528   0.432   7.830 -0.6661  0.6036 -0.3445
  153SAPE  H12R16979   0.537   0.339   7.888  1.2192  0.2590 -1.0848
  153SAPE  C21316980   0.527   0.566   7.895  0.4456 -0.0213  0.2396
  153SAPE  H13R16981   0.423   0.602   7.910  0.4640 -0.4032  1.4448
  153SAPE  H13S16982   0.580   0.645   7.838  0.6529 -1.5081 -1.7601
  153SAPE  C21416983   0.585   0.562   8.035  0.3786  0.1636 -0.3948
  153SAPE  H14R16984   0.649   0.474   8.051  1.3944  0.3262 -3.0378
  153SAPE  C21516985   0.565   0.650   8.134 -0.2879 -0.1586 -0.6814
  153SAPE  H15R16986   0.610   0.645   8.234 -2.7540  3.6238  0.8265
  153SAPE  C21616987   0.476   0.772   8.136  0.6230 -0.2831 -0.4389
  153SAPE  H16R16988   0.437   0.810   8.039  0.3857 -2.3017 -1.1653
  153SAPE  H16S16989   0.524   0.855   8.192 -0.5872  0.3642 -0.3265
  153SAPE  C21716990   0.343   0.753   8.211 -0.0140 -0.1776  0.5358
  153SAPE  H17R16991   0.285   0.673   8.162  0.3537 -0.6569  0.8671
  153SAPE  H17S16992   0.292   0.850   8.191  2.6739  1.0103 -1.0762
  153SAPE  C21816993   0.343   0.747   8.361 -0.3173  0.4111 -0.1952
  153SAPE  H18R16994   0.387   0.836   8.412 -0.0913  0.4880 -0.5207
  153SAPE  H18S16995   0.409   0.664   8.393  0.5733  0.9017 -0.6947
  153SAPE  C21916996   0.205   0.734   8.424 -0.3968 -0.8176 -0.7851
  153SAPE  H19R16997   0.145   0.814   8.375  2.9787  1.7647 -1.0682
  153SAPE  H19S16998   0.204   0.764   8.531  0.0239 -2.4839 -0.2846
  153SAPE  C22016999   0.131   0.603   8.409 -1.5315  0.3082 -0.0357
  153SAPE  H20R17000   0.168   0.534   8.489 -2.9611  0.1378  0.5186
  153SAPE  H20S17001   0.156   0.563   8.309 -0.4920  0.0950  0.2986
  153SAPE  H20T17002   0.021   0.623   8.407 -1.8189 -1.2049 -1.3625
  153SAPE   C3317003   1.546   0.985   7.181  0.7482  0.9121 -0.5096
  153SAPE   H3X17004   1.619   1.053   7.230  1.4990  0.7406 -1.3823
  153SAPE   H3Y17005   1.593   0.903   7.122 -1.1429 -1.5287  1.1544
  153SAPE   C3417006   1.451   0.927   7.287  0.8602 -0.7971 -0.1503
  153SAPE   H4X17007   1.376   0.869   7.229 -0.4215 -0.4045  1.0517
  153SAPE   H4Y17008   1.394   1.004   7.344  0.2082 -2.2066  1.1847
  153SAPE   C3517009   1.515   0.828   7.382  0.1294 -0.1835  0.6358
  153SAPE   H5X17010   1.585   0.763   7.325 -1.3664 -1.0163 -0.3055
  153SAPE   H5Y17011   1.440   0.757   7.423  0.8345 -2.1731 -1.3284
  153SAPE   C3617012   1.593   0.886   7.506 -0.0368  0.3197 -0.1483
  153SAPE   H6X17013   1.518   0.948   7.560 -0.8104  2.3905 -3.3335
  153SAPE   H6Y17014   1.674   0.951   7.468 -0.0122  0.1786 -0.3386
  153SAPE   C3717015   1.663   0.780   7.592  0.0508  0.1771  0.9384
  153SAPE   H7X17016   1.737   0.820   7.665  2.3908  1.7658 -2.0677
  153SAPE   H7Y17017   1.733   0.713   7.537  1.2009  0.5293  1.9290
  153SAPE   C3817018   1.558   0.703   7.679 -0.7199  0.0783  0.6870
  153SAPE   H8X17019   1.506   0.623   7.622 -1.7993  1.1158  0.1709
  153SAPE   H8Y17020   1.473   0.773   7.690  0.6615  1.8089  0.8810
  153SAPE   C3917021   1.607   0.648   7.816  0.3040 -0.1537 -0.1567
  153SAPE   H9X17022   1.626   0.735   7.882  0.5324 -0.4854  0.2218
  153SAPE   H9Y17023   1.704   0.598   7.796  1.4980  2.5716 -1.6787
  153SAPE  C31017024   1.502   0.552   7.875  0.1460 -0.7948  0.4647
  153SAPE  H10X17025   1.495   0.455   7.822  0.2211  1.2399 -3.6224
  153SAPE  H10Y17026   1.406   0.605   7.863  0.7228 -0.0900 -1.5085
  153SAPE  C31117027   1.533   0.533   8.025  0.1425 -0.3130 -0.2287
  153SAPE  H11X17028   1.539   0.637   8.064 -1.7510  0.5380 -1.9943
  153SAPE  H11Y17029   1.634   0.493   8.050  0.7097  0.9147 -0.4600
  153SAPE  C31217030   1.438   0.435   8.097 -0.7369  0.5668 -0.0611
  153SAPE  H12X17031   1.483   0.397   8.192 -0.3592 -2.3695 -1.3300
  153SAPE  H12Y17032   1.435   0.350   8.026  3.7712  0.7728 -0.7910
  153SAPE  C31317033   1.298   0.497   8.125  0.4111  0.0327  0.3518
  153SAPE  H13X17034   1.249   0.521   8.028  1.0718  1.6231  0.3860
  153SAPE  H13Y17035   1.315   0.591   8.182 -1.6899 -0.0367  1.1736
  153SAPE  C31417036   1.193   0.404   8.195 -0.0835  0.0539 -0.1613
  153SAPE  H14X17037   1.237   0.359   8.286 -0.5865  0.3377  0.2253
  153SAPE  H14Y17038   1.155   0.328   8.123  2.2645 -0.7486 -0.6400
  153SAPE  C31517039   1.071   0.487   8.241 -0.3781  0.2939  0.3213
  153SAPE  H15X17040   1.022   0.527   8.149  2.1214 -1.0063 -1.7267
  153SAPE  H15Y17041   1.110   0.571   8.303  0.1116 -0.8282  1.5675
  153SAPE  C31617042   0.978   0.403   8.318 -0.5912  0.9203  0.4928
  153SAPE  H16X17043   1.026   0.382   8.416 -2.4787 -2.7284  0.7941
  153SAPE  H16Y17044   0.971   0.304   8.268  2.4271  1.4653 -1.2692
  153SAPE  C31717045   0.834   0.462   8.338  0.2338  0.1345  0.0659
  153SAPE  H17X17046   0.780   0.404   8.417 -0.1915  0.1807 -0.1898
  153SAPE  H17Y17047   0.777   0.453   8.243  0.8137  1.7124 -0.4611
  153SAPE  C31817048   0.836   0.608   8.391 -0.3308  0.0193  0.6130
  153SAPE  H18X17049   0.899   0.605   8.482 -0.9082 -2.4693  0.9936
  153SAPE  H18Y17050   0.737   0.645   8.424  0.1799  2.4980 -0.3843
  153SAPE  H18Z17051   0.889   0.684   8.329  0.5708 -0.8856  0.2418
  154SAPE     N17052   6.051   1.667   6.144 -0.2654  0.1401 -0.2359
  154SAPE   HN117053   6.120   1.730   6.191  1.8490 -0.8788 -1.8038
  154SAPE   HN217054   6.057   1.577   6.197  2.3531 -0.5037 -1.4610
  154SAPE   HN317055   6.082   1.641   6.049 -0.7586 -1.0418 -0.0964
  154SAPE   C1217056   5.925   1.741   6.163 -0.4313 -0.7120 -0.0835
  154SAPE  H12A17057   5.843   1.692   6.106  0.1544 -0.4774 -1.1546
  154SAPE  H12B17058   5.936   1.845   6.125 -1.9527 -0.5629 -0.1716
  154SAPE   C1117059   5.881   1.742   6.311 -0.7037 -0.5103  0.0443
  154SAPE  H11A17060   5.785   1.798   6.316  0.3593  1.2802  2.5315
  154SAPE  H11B17061   5.960   1.797   6.366 -0.8419 -1.3188  1.0779
  154SAPE     P17062   5.759   1.504   6.321 -0.1265  0.3172 -0.0565
  154SAPE   O1317063   5.627   1.564   6.341  0.0951 -0.4341  0.2407
  154SAPE   O1417064   5.787   1.453   6.186 -0.1642  0.6495 -0.3349
  154SAPE   O1217065   5.867   1.606   6.360  0.3696 -0.0393  0.6320
  154SAPE   O1117066   5.786   1.388   6.424 -0.4080 -0.0209  0.1454
  154SAPE    C117067   5.686   1.305   6.479  0.4387 -0.4095 -0.3840
  154SAPE    HA17068   5.619   1.370   6.538  0.3526  0.5027 -1.4423
  154SAPE    HB17069   5.627   1.261   6.396  0.8472  0.0612 -0.9361
  154SAPE    C217070   5.744   1.195   6.573 -0.3764 -0.8630 -0.0837
  154SAPE    HS17071   5.785   1.110   6.513  2.0751 -2.0131  2.9765
  154SAPE   O2117072   5.638   1.148   6.662  0.0789 -0.0941 -0.6686
  154SAPE   C2117073   5.592   1.030   6.624  0.5313  0.5163 -0.3090
  154SAPE   O2217074   5.603   0.975   6.516 -0.3649 -0.2433 -0.3789
  154SAPE   C2217075   5.515   0.972   6.741  0.6461  0.6005  0.1226
  154SAPE   H2R17076   5.406   0.964   6.723  0.6037 -3.3410  1.0797
  154SAPE   H2S17077   5.553   0.868   6.755 -1.5776 -0.1095  1.3102
  154SAPE    C317078   5.865   1.243   6.655 -0.0802  0.3693 -0.2354
  154SAPE    HX17079   5.851   1.348   6.688 -0.8901  0.7338 -1.6620
  154SAPE    HY17080   5.952   1.245   6.585 -0.1322  0.8875 -0.2872
  154SAPE   O3117081   5.883   1.156   6.772  0.4449 -0.3538 -0.7153
  154SAPE   C3117082   5.926   1.029   6.743 -1.1077  0.1406 -0.5014
  154SAPE   O3217083   5.954   0.988   6.633  0.0437 -0.2025 -0.7357
  154SAPE   C3217084   5.945   0.952   6.873  0.4083  0.3991 -0.7276
  154SAPE   H2X17085   5.844   0.948   6.919  0.0273  1.2355 -1.4467
  154SAPE   H2Y17086   6.003   1.017   6.942 -2.4828  2.0337  0.3523
  154SAPE   C2317087   5.532   1.048   6.875 -0.7207  0.1877  0.1893
  154SAPE   H3R17088   5.519   1.157   6.854 -1.0677 -0.4219 -3.3094
  154SAPE   H3S17089   5.638   1.034   6.904  0.3172  1.3369 -2.7199
  154SAPE   C2417090   5.429   1.011   6.985  0.3723  0.0430 -0.3361
  154SAPE   H4R17091   5.335   1.058   6.950 -0.5786 -1.0010  0.7316
  154SAPE   H4S17092   5.472   1.062   7.075  1.3340  0.0474 -0.7837
  154SAPE   C2517093   5.407   0.861   7.002 -0.3327  0.6401  0.4508
  154SAPE   H5R17094   5.371   0.816   6.908  0.7596 -1.0291  0.7920
  154SAPE   C2617095   5.407   0.783   7.113  0.1092 -0.2281  0.7622
  154SAPE   H6R17096   5.374   0.679   7.099 -2.5699  0.7840 -1.4351
  154SAPE   C2717097   5.434   0.821   7.254  0.1701 -0.7893  0.0391
  154SAPE   H7R17098   5.336   0.826   7.305 -0.2274 -2.0637 -0.5461
  154SAPE   H7S17099   5.482   0.921   7.256 -0.3567 -0.5008 -0.9394
  154SAPE   C2817100   5.531   0.717   7.312  0.8713 -0.3256  0.1456
  154SAPE   H8R17101   5.579   0.640   7.250  2.0819  0.7336 -0.2922
  154SAPE   C2917102   5.567   0.720   7.441  0.6718 -0.1079 -0.5598
  154SAPE   H9R17103   5.639   0.642   7.472  0.4902 -0.0636 -0.0246
  154SAPE  C21017104   5.516   0.817   7.547 -0.8924  0.1077  0.8723
  154SAPE  H10R17105   5.460   0.901   7.499  1.1316 -0.0457 -2.0618
  154SAPE  H10S17106   5.604   0.868   7.591 -0.6781  0.9834 -0.4808
  154SAPE  C21117107   5.446   0.737   7.649 -0.2613  0.3150 -0.2046
  154SAPE  H11R17108   5.391   0.647   7.618  0.0303 -0.3112  1.0102
  154SAPE  C21217109   5.439   0.768   7.780  0.0022  0.7848 -0.1029
  154SAPE  H12R17110   5.372   0.708   7.843 -0.9524  2.1224  0.1869
  154SAPE  C21317111   5.510   0.870   7.856 -0.3674  0.5601 -0.2621
  154SAPE  H13R17112   5.437   0.946   7.892 -0.4132  0.6077 -0.4524
  154SAPE  H13S17113   5.575   0.930   7.789 -1.5662 -0.2978 -2.3060
  154SAPE  C21417114   5.581   0.795   7.965 -0.4681 -0.3970 -1.2653
  154SAPE  H14R17115   5.510   0.756   8.039 -1.0131  3.5096  0.5139
  154SAPE  C21517116   5.716   0.785   7.984 -0.4267 -0.1952  0.7418
  154SAPE  H15R17117   5.767   0.729   8.064 -1.3518  0.9128  2.1628
  154SAPE  C21617118   5.822   0.850   7.889  0.3443 -0.3330  0.1973
  154SAPE  H16R17119   5.917   0.885   7.934 -1.2469 -0.4797  4.0232
  154SAPE  H16S17120   5.775   0.943   7.852  1.5035  0.2924  0.2441
  154SAPE  C21717121   5.849   0.785   7.754 -0.0614 -0.0562 -0.4573
  154SAPE  H17R17122   5.770   0.724   7.707 -1.0054  1.5929 -1.1113
  154SAPE  H17S17123   5.942   0.726   7.762  0.5451  0.3865 -3.1795
  154SAPE  C21817124   5.881   0.878   7.634  0.1729 -0.5053 -0.1968
  154SAPE  H18R17125   5.960   0.952   7.659 -0.4024  0.6649 -1.6347
  154SAPE  H18S17126   5.801   0.951   7.611  1.7358  0.6057 -2.5073
  154SAPE  C21917127   5.920   0.799   7.504  0.6985 -0.2470 -0.1524
  154SAPE  H19R17128   5.903   0.877   7.427  0.4712  1.1449  1.2415
  154SAPE  H19S17129   5.849   0.715   7.490  0.6083 -0.2656  0.4021
  154SAPE  C22017130   6.065   0.760   7.514  0.4430  0.1158  0.9121
  154SAPE  H20R17131   6.136   0.843   7.536  2.2204 -0.5436 -1.8916
  154SAPE  H20S17132   6.096   0.730   7.412  0.8118 -0.5566  1.2158
  154SAPE  H20T17133   6.086   0.681   7.590  0.3235 -0.6106  0.2021
  154SAPE   C3317134   5.992   0.806   6.868  0.4165 -1.2693  0.2594
  154SAPE   H3X17135   6.094   0.798   6.823 -0.3324 -1.2939 -1.5211
  154SAPE   H3Y17136   5.916   0.747   6.813 -0.5470 -0.3405  0.5687
  154SAPE   C3417137   5.998   0.757   7.009  0.3213  0.1523 -0.6833
  154SAPE   H4X17138   5.908   0.791   7.064  0.6404  0.9766 -0.6517
  154SAPE   H4Y17139   6.078   0.807   7.068 -0.2510 -1.9706  2.1115
  154SAPE   C3517140   6.022   0.610   7.028 -0.5883  0.9063  0.0296
  154SAPE   H5X17141   6.111   0.580   6.968 -1.4472 -3.6273  0.6810
  154SAPE   H5Y17142   5.939   0.560   6.974  1.0113 -1.6477 -0.2386
  154SAPE   C3617143   6.035   0.568   7.173 -0.0514  0.0412  0.1152
  154SAPE   H6X17144   5.952   0.616   7.229  0.1814 -0.8154  1.2449
  154SAPE   H6Y17145   6.126   0.611   7.220 -0.2818 -1.0387  1.6344
  154SAPE   C3717146   6.029   0.418   7.182  0.0234  0.5367  0.0852
  154SAPE   H7X17147   6.101   0.375   7.109  2.4881  1.5334  1.8080
  154SAPE   H7Y17148   5.930   0.373   7.160  0.0640  0.8385 -0.7628
  154SAPE   C3817149   6.071   0.364   7.316  0.5265  0.1892  0.9585
  154SAPE   H8X17150   6.169   0.406   7.348  0.5481  0.5687  0.4233
  154SAPE   H8Y17151   6.090   0.255   7.319 -1.6546 -0.3202 -0.9712
  154SAPE   C3917152   5.963   0.386   7.420  0.1173  0.7259  0.1184
  154SAPE   H9X17153   5.867   0.337   7.393 -0.0800 -0.2298  2.3306
  154SAPE   H9Y17154   5.932   0.491   7.441 -3.3693  0.1824 -1.5134
  154SAPE  C31017155   6.000   0.330   7.563  0.3102 -0.1095 -0.3324
  154SAPE  H10X17156   6.109   0.326   7.585 -0.3174 -1.0629  3.2562
  154SAPE  H10Y17157   5.973   0.222   7.559  1.5426 -0.4208 -0.8378
  154SAPE  C31117158   5.930   0.404   7.680  0.1614  0.5088  0.3279
  154SAPE  H11X17159   5.823   0.382   7.656  0.4489 -2.5389  1.3641
  154SAPE  H11Y17160   5.937   0.515   7.679 -1.1396  0.6708  2.1083
  154SAPE  C31217161   5.980   0.360   7.816 -0.3761  0.1967  0.1764
  154SAPE  H12X17162   5.933   0.418   7.898 -0.8400  1.3317 -0.8585
  154SAPE  H12Y17163   6.087   0.392   7.814  0.3346 -2.0312 -0.8718
  154SAPE  C31317164   5.966   0.209   7.852 -0.5030  0.2732 -0.0961
  154SAPE  H13X17165   6.030   0.158   7.777  0.3628 -0.9635  1.3989
  154SAPE  H13Y17166   5.860   0.185   7.834 -0.9529  0.9090  1.5006
  154SAPE  C31417167   6.009   0.179   7.992  0.6927 -0.3691 -0.0893
  154SAPE  H14X17168   5.945   0.250   8.047  0.5720 -0.7898  0.3233
  154SAPE  H14Y17169   6.116   0.202   8.011  0.1794  0.7409  1.5692
  154SAPE  C31517170   5.973   0.039   8.055  0.0520 -0.9303 -0.0452
  154SAPE  H15X17171   6.040  -0.033   8.001  1.3542  1.4084 -1.7653
  154SAPE  H15Y17172   5.866   0.023   8.033 -0.2035  0.1902  0.3509
  154SAPE  C31617173   6.008   0.029   8.201 -0.5405 -0.7396  0.7144
  154SAPE  H16X17174   5.984   0.118   8.263  0.4502 -0.4566  0.7098
  154SAPE  H16Y17175   6.116   0.040   8.226 -0.5870 -1.9872  1.5510
  154SAPE  C31717176   5.956  -0.098   8.261  0.3232 -0.1375  0.2861
  154SAPE  H17X17177   5.989  -0.096   8.367 -0.4968 -0.5813  0.5565
  154SAPE  H17Y17178   6.014  -0.185   8.224  0.6279 -0.7076  2.0022
  154SAPE  C31817179   5.806  -0.137   8.260 -0.4367 -0.0784  0.9773
  154SAPE  H18X17180   5.765  -0.109   8.160  2.2446 -0.9862 -0.4877
  154SAPE  H18Y17181   5.751  -0.064   8.322  0.0469  1.7287 -0.6115
  154SAPE  H18Z17182   5.780  -0.243   8.281  0.5103 -0.0995  2.1666
  155SAPE     N17183   4.949   2.094   6.461  0.3216  0.7660 -0.1688
  155SAPE   HN117184   4.871   2.132   6.517  0.0221 -0.4736  0.2807
  155SAPE   HN217185   4.920   2.087   6.361  1.3158  1.9846 -0.5741
  155SAPE   HN317186   4.962   1.995   6.489  0.1541  0.8949  0.3633
  155SAPE   C1217187   5.069   2.170   6.470  0.3919  0.5291 -0.7073
  155SAPE  H12A17188   5.087   2.206   6.574  0.8573  0.9504 -0.9242
  155SAPE  H12B17189   5.074   2.262   6.407  1.9980  0.9140 -0.0803
  155SAPE   C1117190   5.188   2.082   6.413 -0.3717  0.5039 -0.0244
  155SAPE  H11A17191   5.286   2.132   6.427  0.0588 -0.7046  1.6280
  155SAPE  H11B17192   5.157   2.073   6.307 -0.2958 -0.1498  0.0078
  155SAPE     P17193   5.252   1.832   6.417  0.2645 -0.3716 -0.0979
  155SAPE   O1317194   5.149   1.731   6.415  0.1471  0.2740  0.0900
  155SAPE   O1417195   5.322   1.863   6.292 -0.6173 -0.2622  0.2188
  155SAPE   O1217196   5.193   1.962   6.489 -0.0106  0.1863 -0.1942
  155SAPE   O1117197   5.352   1.791   6.529  0.6126  0.2295  0.1210
  155SAPE    C117198   5.447   1.878   6.586 -0.5383 -0.5961 -0.3676
  155SAPE    HA17199   5.475   1.962   6.520  1.2145  0.3560  1.4622
  155SAPE    HB17200   5.410   1.922   6.681  0.7359  1.5544 -0.8101
  155SAPE    C217201   5.578   1.804   6.633 -1.2113 -0.5392  0.6503
  155SAPE    HS17202   5.615   1.734   6.556  0.2585 -2.9225  3.3374
  155SAPE   O2117203   5.550   1.734   6.755 -0.3070  0.0548  0.5202
  155SAPE   C2117204   5.625   1.624   6.775  0.0098  0.3470  0.0761
  155SAPE   O2217205   5.724   1.595   6.715  0.3183  0.1722  0.0771
  155SAPE   C2217206   5.561   1.542   6.893 -0.5576 -0.3907  0.4489
  155SAPE   H2R17207   5.545   1.621   6.969  0.2221  3.0051 -2.6516
  155SAPE   H2S17208   5.470   1.493   6.852  0.4921 -1.6462 -0.4952
  155SAPE    C317209   5.703   1.905   6.665 -0.6784  0.5009  0.2839
  155SAPE    HX17210   5.717   1.970   6.576  0.4036 -0.3965 -0.2147
  155SAPE    HY17211   5.797   1.848   6.672  1.6076  3.6457 -1.9078
  155SAPE   O3117212   5.680   1.997   6.774  0.2767  0.2351  0.3903
  155SAPE   C3117213   5.747   1.972   6.888 -0.2795  0.1302 -0.1477
  155SAPE   O3217214   5.817   1.869   6.904 -0.3328  0.0086 -0.9577
  155SAPE   C3217215   5.728   2.079   6.999 -0.1819 -0.9297  0.7002
  155SAPE   H2X17216   5.679   2.174   6.966 -1.6030 -1.3306  1.5517
  155SAPE   H2Y17217   5.835   2.095   7.023  0.0224  1.1680 -1.2572
  155SAPE   C2317218   5.649   1.421   6.941  0.0689  0.2424 -0.3672
  155SAPE   H3R17219   5.755   1.454   6.935 -0.0738  0.5075 -1.8612
  155SAPE   H3S17220   5.635   1.330   6.879  1.6406 -1.5211  1.7284
  155SAPE   C2417221   5.622   1.387   7.090 -0.1840  0.0906 -0.8542
  155SAPE   H4R17222   5.519   1.349   7.108  1.0737 -2.6161  1.5377
  155SAPE   H4S17223   5.638   1.480   7.147  1.1658 -0.9588  0.5723
  155SAPE   C2517224   5.707   1.278   7.155  0.4729 -0.9438  0.4956
  155SAPE   H5R17225   5.779   1.225   7.090  1.7136 -1.4610  2.2181
  155SAPE   C2617226   5.711   1.248   7.290  0.0549  0.0803  0.9247
  155SAPE   H6R17227   5.794   1.187   7.328 -0.5102 -1.3819 -0.0742
  155SAPE   C2717228   5.623   1.316   7.396  0.0451  0.0942  0.0581
  155SAPE   H7R17229   5.535   1.358   7.342  0.6573  0.9260 -0.3059
  155SAPE   H7S17230   5.677   1.390   7.459  1.4247  1.6579 -2.7770
  155SAPE   C2817231   5.577   1.207   7.476  0.1178  0.2900 -0.1707
  155SAPE   H8R17232   5.492   1.157   7.427  1.1386 -0.7864 -0.8953
  155SAPE   C2917233   5.620   1.179   7.600  0.2814 -0.3536 -0.0622
  155SAPE   H9R17234   5.571   1.092   7.646  0.3491 -1.0541 -1.2693
  155SAPE  C21017235   5.723   1.244   7.681  0.1713 -0.0276  0.0500
  155SAPE  H10R17236   5.804   1.282   7.616 -1.2280  2.7488 -0.2123
  155SAPE  H10S17237   5.783   1.165   7.732  2.3964  3.2034  2.8725
  155SAPE  C21117238   5.667   1.344   7.784  0.1299 -0.1688  0.7436
  155SAPE  H11R17239   5.623   1.432   7.735 -1.0868 -1.7075 -1.0508
  155SAPE  C21217240   5.662   1.333   7.921  0.0451  0.4582 -0.2594
  155SAPE  H12R17241   5.609   1.407   7.982 -1.4216 -0.9095  0.1899
  155SAPE  C21317242   5.715   1.219   8.001 -0.2542 -0.1603  0.3963
  155SAPE  H13R17243   5.713   1.116   7.959 -1.2314  0.0824 -0.1691
  155SAPE  H13S17244   5.667   1.228   8.100  0.0145  0.9196  0.4423
  155SAPE  C21417245   5.871   1.228   8.014 -0.3202 -0.1797 -0.8794
  155SAPE  H14R17246   5.921   1.296   7.944  0.2511  1.8906  1.4146
  155SAPE  C21517247   5.949   1.168   8.110 -0.2598  0.1608 -0.6351
  155SAPE  H15R17248   6.058   1.185   8.109 -0.0413 -0.9482  1.0314
  155SAPE  C21617249   5.906   1.078   8.223  0.3174  0.2786 -0.0743
  155SAPE  H16R17250   5.909   0.973   8.188  0.3345  0.0492  0.5955
  155SAPE  H16S17251   5.797   1.088   8.241 -0.4962 -1.5213 -3.1907
  155SAPE  C21717252   5.977   1.082   8.352  0.3313 -0.2220 -0.5451
  155SAPE  H17R17253   5.984   1.186   8.389  0.9793  0.0830 -1.4912
  155SAPE  H17S17254   6.075   1.035   8.326 -0.1680 -0.7133 -1.6070
  155SAPE  C21817255   5.897   1.002   8.461  0.0979 -0.1642 -0.4002
  155SAPE  H18R17256   5.889   0.904   8.410  0.4860  0.5663 -1.9461
  155SAPE  H18S17257   5.792   1.035   8.475  0.0885 -0.3803  0.0618
  155SAPE  C21917258   5.988   0.992   8.587  0.3113  0.0747 -0.6567
  155SAPE  H19R17259   6.089   0.959   8.558 -0.2353 -0.0665 -2.5464
  155SAPE  H19S17260   5.940   0.920   8.656 -0.2385  0.1076 -0.9956
  155SAPE  C22017261   5.989   1.128   8.658  0.0004  0.2327 -0.2239
  155SAPE  H20R17262   6.044   1.131   8.755  2.4029 -2.2029 -1.4097
  155SAPE  H20S17263   5.885   1.161   8.680 -1.2803 -2.6319 -1.4246
  155SAPE  H20T17264   6.031   1.200   8.585 -0.6720 -0.1137 -0.9750
  155SAPE   C3317265   5.664   2.024   7.122  0.1045 -0.9472 -0.7543
  155SAPE   H3X17266   5.689   2.099   7.200 -1.2160 -3.0993  1.9107
  155SAPE   H3Y17267   5.716   1.929   7.150 -0.9657 -0.3312  4.3754
  155SAPE   C3417268   5.512   2.007   7.102 -0.5011  0.8359 -0.7387
  155SAPE   H4X17269   5.498   1.926   7.027  0.3094  1.9583 -2.1676
  155SAPE   H4Y17270   5.472   2.102   7.062  1.5536  2.9101  1.7971
  155SAPE   C3517271   5.445   1.972   7.235  0.2465 -0.2074  0.4576
  155SAPE   H5X17272   5.337   1.956   7.216  0.5865 -0.5903 -1.3953
  155SAPE   H5Y17273   5.463   2.054   7.307  0.2254 -0.3334  0.6052
  155SAPE   C3617274   5.500   1.836   7.291 -0.6174 -0.7457  0.0872
  155SAPE   H6X17275   5.605   1.855   7.320 -1.5082  1.2443  2.2988
  155SAPE   H6Y17276   5.488   1.760   7.211  1.3369 -0.9471 -0.0564
  155SAPE   C3717277   5.429   1.796   7.417 -0.1365 -0.3545  0.3728
  155SAPE   H7X17278   5.433   1.686   7.437  0.0758 -0.2411  0.9722
  155SAPE   H7Y17279   5.324   1.823   7.391 -0.3465 -2.6108 -1.4535
  155SAPE   C3817280   5.500   1.857   7.539  0.5186  0.1393 -0.2512
  155SAPE   H8X17281   5.488   1.968   7.542 -0.7109  0.0528  3.2536
  155SAPE   H8Y17282   5.610   1.844   7.527  0.4284  0.8734 -2.2564
  155SAPE   C3917283   5.460   1.793   7.671 -1.0251 -0.4026  0.9590
  155SAPE   H9X17284   5.435   1.685   7.667 -0.3460 -0.5299 -0.0919
  155SAPE   H9Y17285   5.364   1.841   7.699 -1.4341  0.3961 -1.5294
  155SAPE  C31017286   5.561   1.810   7.786 -0.0670 -0.7894 -0.0481
  155SAPE  H10X17287   5.617   1.904   7.769 -1.7014  0.2808  0.3429
  155SAPE  H10Y17288   5.642   1.734   7.776  2.7021  2.1011 -1.6048
  155SAPE  C31117289   5.492   1.799   7.919  0.4493  0.6230  0.2741
  155SAPE  H11X17290   5.419   1.715   7.917  0.6295  0.4678 -1.6756
  155SAPE  H11Y17291   5.436   1.892   7.943 -3.6957 -1.6962  0.6427
  155SAPE  C31217292   5.591   1.780   8.038 -0.4452 -0.1059 -0.1968
  155SAPE  H12X17293   5.676   1.850   8.027  2.1291 -3.0031 -0.3153
  155SAPE  H12Y17294   5.615   1.672   8.027 -0.7314 -0.0710 -1.3376
  155SAPE  C31317295   5.528   1.793   8.181  0.1789 -0.2804  0.6342
  155SAPE  H13X17296   5.437   1.732   8.198  0.3866 -0.4526  1.1396
  155SAPE  H13Y17297   5.502   1.901   8.189 -2.8042 -0.8966  0.4953
  155SAPE  C31417298   5.630   1.767   8.292 -0.3299 -0.0404 -0.2712
  155SAPE  H14X17299   5.605   1.827   8.382  1.5513  0.8563 -0.2986
  155SAPE  H14Y17300   5.729   1.805   8.258 -1.0410  3.0220  0.8090
  155SAPE  C31517301   5.641   1.618   8.336 -0.1874 -0.0119 -0.6052
  155SAPE  H15X17302   5.739   1.580   8.302 -0.1453 -1.1837  0.7287
  155SAPE  H15Y17303   5.560   1.558   8.288  0.0614 -1.2599  0.4665
  155SAPE  C31617304   5.636   1.589   8.486  0.4382 -0.2236 -0.4388
  155SAPE  H16X17305   5.663   1.679   8.545 -0.0339  0.8227 -1.7877
  155SAPE  H16Y17306   5.705   1.506   8.512 -0.1131 -0.4080  0.5154
  155SAPE  C31717307   5.496   1.535   8.530  0.1555  0.1826  0.3979
  155SAPE  H17X17308   5.491   1.449   8.460  0.7227  0.6633 -0.2342
  155SAPE  H17Y17309   5.425   1.618   8.509 -0.7602 -0.8228 -0.6461
  155SAPE  C31817310   5.474   1.481   8.675 -0.4145  0.5294 -0.3551
  155SAPE  H18X17311   5.382   1.420   8.685  0.7084 -1.0225  1.1893
  155SAPE  H18Y17312   5.469   1.562   8.751  3.6701  0.5573  0.1085
  155SAPE  H18Z17313   5.557   1.411   8.699 -0.7675 -0.2700 -1.3966
  156SAPE     N17314   2.427   2.779   6.516  0.3644  0.2788 -0.3293
  156SAPE   HN117315   2.440   2.866   6.461 -0.6745  0.3400 -0.4965
  156SAPE   HN217316   2.388   2.824   6.602 -2.1742 -0.1974 -1.1266
  156SAPE   HN317317   2.515   2.728   6.537 -0.1529  0.2369  2.0593
  156SAPE   C1217318   2.327   2.684   6.448 -0.2068  0.0955  1.2153
  156SAPE  H12A17319   2.371   2.672   6.347 -1.0729  0.9142  0.7198
  156SAPE  H12B17320   2.231   2.737   6.427  0.9458  2.3724  1.4064
  156SAPE   C1117321   2.308   2.553   6.523  0.2496  0.4418 -0.2468
  156SAPE  H11A17322   2.244   2.475   6.476  0.3542 -0.8198  1.6307
  156SAPE  H11B17323   2.254   2.580   6.616 -0.5431  0.1322 -0.6057
  156SAPE     P17324   2.441   2.378   6.671 -0.4305 -0.1427 -0.0085
  156SAPE   O1317325   2.340   2.276   6.632  0.3236  0.0956 -0.0024
  156SAPE   O1417326   2.576   2.323   6.681  0.3160 -0.4584 -0.1711
  156SAPE   O1217327   2.437   2.496   6.563  0.7849 -0.5938  0.0751
  156SAPE   O1117328   2.400   2.448   6.801 -0.5398 -0.6739  0.5081
  156SAPE    C117329   2.463   2.567   6.834 -0.7425  0.3046 -0.6399
  156SAPE    HA17330   2.445   2.649   6.761  1.5487  0.0852 -1.5504
  156SAPE    HB17331   2.409   2.597   6.926  0.8619  0.2072  0.3705
  156SAPE    C217332   2.619   2.553   6.860  0.0748 -0.6998 -0.0157
  156SAPE    HS17333   2.676   2.526   6.769  2.5405  1.6904  0.7057
  156SAPE   O2117334   2.635   2.459   6.967 -0.0334 -0.1299  0.4620
  156SAPE   C2117335   2.725   2.372   6.953 -0.2747 -0.7202 -0.5055
  156SAPE   O2217336   2.814   2.361   6.867  0.7876 -0.1194  0.4289
  156SAPE   C2217337   2.704   2.263   7.063 -0.7836  0.0338  0.5593
  156SAPE   H2R17338   2.775   2.299   7.142  0.6041 -1.0276 -0.1564
  156SAPE   H2S17339   2.596   2.259   7.085 -0.6918 -0.6263  0.8953
  156SAPE    C317340   2.680   2.691   6.898 -0.3329  0.2325 -0.1605
  156SAPE    HX17341   2.656   2.765   6.820 -2.5202  0.2820  0.4839
  156SAPE    HY17342   2.790   2.675   6.890 -0.0548  1.0884  1.4229
  156SAPE   O3117343   2.645   2.729   7.034 -0.3762  0.0516 -0.3657
  156SAPE   C3117344   2.536   2.800   7.057 -0.1507  0.6373 -0.6226
  156SAPE   O3217345   2.466   2.854   6.968 -0.2079  0.0417 -0.4700
  156SAPE   C3217346   2.526   2.830   7.203  0.4005  0.0546  0.4169
  156SAPE   H2X17347   2.568   2.933   7.216  0.7011  0.3445 -2.3039
  156SAPE   H2Y17348   2.591   2.759   7.258 -1.5571 -1.4874  0.8177
  156SAPE   C2317349   2.743   2.113   7.026 -0.2317  0.0412  0.0867
  156SAPE   H3R17350   2.832   2.135   6.964 -0.4109  1.1535  0.1898
  156SAPE   H3S17351   2.676   2.051   6.963 -1.1407 -0.4713  1.5154
  156SAPE   C2417352   2.784   2.024   7.142  0.1991 -0.3328 -0.2918
  156SAPE   H4R17353   2.884   2.049   7.185 -0.0366 -1.0939  0.7285
  156SAPE   H4S17354   2.795   1.917   7.117  1.0392 -0.6706  1.3492
  156SAPE   C2517355   2.682   2.024   7.247 -0.2610  0.7047 -0.1418
  156SAPE   H5R17356   2.584   1.980   7.222  0.0474 -0.8609  1.2613
  156SAPE   C2617357   2.687   2.071   7.374  0.3114  0.2761  0.1844
  156SAPE   H6R17358   2.590   2.080   7.425 -0.7676 -2.3031 -1.2253
  156SAPE   C2717359   2.814   2.127   7.425 -0.0834 -0.2413 -0.2441
  156SAPE   H7R17360   2.851   2.212   7.364  3.2093 -0.2331  1.5334
  156SAPE   H7S17361   2.885   2.042   7.424  0.3153  0.0935 -0.8006
  156SAPE   C2817362   2.807   2.174   7.574  0.9112 -0.5539  0.3665
  156SAPE   H8R17363   2.826   2.282   7.582  0.3995 -0.5088  1.1283
  156SAPE   C2917364   2.762   2.112   7.690 -0.6287  0.0348  0.5624
  156SAPE   H9R17365   2.776   2.166   7.785 -0.0022  0.7491  0.0717
  156SAPE  C21017366   2.717   1.967   7.699 -0.4868  0.4019 -0.0824
  156SAPE  H10R17367   2.777   1.910   7.773  0.6783  1.3093 -0.3112
  156SAPE  H10S17368   2.699   1.919   7.600 -0.1413 -0.2060  0.1493
  156SAPE  C21117369   2.579   1.979   7.755 -0.1185  0.8408  0.8369
  156SAPE  H11R17370   2.496   2.021   7.697 -0.3881  1.1051  1.4060
  156SAPE  C21217371   2.547   1.952   7.883 -0.6326  0.3362 -0.0014
  156SAPE  H12R17372   2.443   1.957   7.919 -0.6479  0.0178 -0.0009
  156SAPE  C21317373   2.640   1.895   7.991 -0.1845 -0.2350  0.4435
  156SAPE  H13R17374   2.690   1.801   7.958 -0.1346  0.1876 -0.7259
  156SAPE  H13S17375   2.584   1.879   8.086 -0.5057 -0.7598  0.1738
  156SAPE  C21417376   2.737   2.003   8.035 -0.6120  0.0051  0.2523
  156SAPE  H14R17377   2.702   2.104   8.011 -0.5157 -0.1740 -0.6611
  156SAPE  C21517378   2.864   1.983   8.084  0.0324  0.2023  0.5463
  156SAPE  H15R17379   2.932   2.069   8.096  1.0705 -0.7106  1.3607
  156SAPE  C21617380   2.945   1.857   8.102 -0.4866 -0.0211  0.6773
  156SAPE  H16R17381   3.041   1.856   8.046  1.0746 -1.4519  3.1601
  156SAPE  H16S17382   2.894   1.763   8.074 -0.3332 -0.3656  1.5116
  156SAPE  C21717383   2.992   1.839   8.251 -0.4430 -1.2108  0.8707
  156SAPE  H17R17384   3.024   1.733   8.267 -0.9000 -1.8090 -1.7239
  156SAPE  H17S17385   2.898   1.850   8.309 -0.9272  0.7881 -0.2105
  156SAPE  C21817386   3.089   1.943   8.313  0.0343  0.0256  0.5431
  156SAPE  H18R17387   3.021   2.031   8.309  1.8166  1.4349 -2.6041
  156SAPE  H18S17388   3.170   1.966   8.241  1.1953 -0.6035  1.6256
  156SAPE  C21917389   3.136   1.906   8.456  0.0383  0.5966  0.6856
  156SAPE  H19R17390   3.050   1.865   8.514 -0.9277  1.3870 -0.1456
  156SAPE  H19S17391   3.162   1.998   8.513 -1.5927  0.8309  1.0998
  156SAPE  C22017392   3.244   1.804   8.453  0.7605  0.5496  0.0267
  156SAPE  H20R17393   3.322   1.839   8.381  1.2196  1.6093  0.9942
  156SAPE  H20S17394   3.206   1.706   8.419  0.5880  0.6365 -0.0310
  156SAPE  H20T17395   3.283   1.798   8.557 -2.7446 -1.8416  1.3806
  156SAPE   C3317396   2.381   2.821   7.258  0.5134  0.2340  0.8171
  156SAPE   H3X17397   2.343   2.717   7.251  1.1072  0.0196  0.7595
  156SAPE   H3Y17398   2.321   2.893   7.199  1.6493  0.2689 -0.3262
  156SAPE   C3417399   2.365   2.878   7.398  0.8011  0.5659 -0.2059
  156SAPE   H4X17400   2.264   2.852   7.435  0.0009  2.0915 -1.1623
  156SAPE   H4Y17401   2.378   2.988   7.387 -0.5554  0.9161  1.2855
  156SAPE   C3517402   2.461   2.823   7.499 -0.1902  0.0493 -1.3059
  156SAPE   H5X17403   2.561   2.862   7.470  0.1266  0.6957  0.5331
  156SAPE   H5Y17404   2.456   2.713   7.484  0.3597 -0.1722  0.0137
  156SAPE   C3617405   2.444   2.850   7.649 -0.7999 -0.7176  0.7358
  156SAPE   H6X17406   2.433   2.959   7.671 -0.7899 -0.2837 -1.1855
  156SAPE   H6Y17407   2.532   2.814   7.706 -0.5835  1.9299  2.2571
  156SAPE   C3717408   2.318   2.781   7.705 -0.2658  0.4408  0.0336
  156SAPE   H7X17409   2.340   2.673   7.692  1.0720  0.4214  1.9935
  156SAPE   H7Y17410   2.218   2.808   7.664  1.1702  1.4033 -3.1683
  156SAPE   C3817411   2.319   2.778   7.861  0.2500 -0.1057  0.6234
  156SAPE   H8X17412   2.310   2.879   7.905  0.8010 -1.2698  3.6450
  156SAPE   H8Y17413   2.415   2.733   7.893  0.5614 -0.2190 -0.4154
  156SAPE   C3917414   2.203   2.694   7.920 -0.0219 -0.3779  0.2996
  156SAPE   H9X17415   2.210   2.591   7.877  1.0714 -0.8456  1.5217
  156SAPE   H9Y17416   2.109   2.741   7.886  0.4996  0.3629 -0.1416
  156SAPE  C31017417   2.207   2.705   8.073  0.5907  0.2964 -0.6333
  156SAPE  H10X17418   2.221   2.812   8.097  1.3312 -0.2442  1.6854
  156SAPE  H10Y17419   2.295   2.655   8.119 -1.1099 -1.2933  1.1171
  156SAPE  C31117420   2.079   2.638   8.142 -0.9002 -0.0820 -0.3040
  156SAPE  H11X17421   2.095   2.532   8.115  0.5571  0.0119  0.1111
  156SAPE  H11Y17422   1.979   2.658   8.098  0.0571  0.4213 -2.3746
  156SAPE  C31217423   2.078   2.647   8.296 -0.2979 -0.1103  0.5811
  156SAPE  H12X17424   2.045   2.751   8.314  0.8081  0.7708 -2.0383
  156SAPE  H12Y17425   2.179   2.616   8.330  1.5924  0.9131 -3.5335
  156SAPE  C31317426   1.976   2.553   8.362 -1.1734  0.6409  0.3476
  156SAPE  H13X17427   2.002   2.446   8.344 -4.0880  0.2299 -2.3318
  156SAPE  H13Y17428   1.874   2.565   8.319 -1.4656  0.6799  1.0304
  156SAPE  C31417429   1.970   2.561   8.513  0.6324 -0.1395 -0.1448
  156SAPE  H14X17430   2.071   2.558   8.559  0.6382  0.8443 -0.0706
  156SAPE  H14Y17431   1.907   2.478   8.552 -1.4979  1.9797  1.1353
  156SAPE  C31517432   1.898   2.683   8.563 -0.5969 -0.6160  0.0919
  156SAPE  H15X17433   1.792   2.676   8.529 -0.5294 -0.9144 -0.0574
  156SAPE  H15Y17434   1.942   2.784   8.546 -3.9394  1.0824  0.5965
  156SAPE  C31617435   1.896   2.683   8.722 -0.0453 -0.5781 -0.9288
  156SAPE  H16X17436   1.995   2.662   8.767 -0.2538  1.1563  0.4731
  156SAPE  H16Y17437   1.827   2.608   8.766  1.2570 -0.9277  0.6182
  156SAPE  C31717438   1.861   2.826   8.787 -0.0971 -0.0544 -0.2449
  156SAPE  H17X17439   1.946   2.890   8.755 -0.3611  0.1325 -0.5828
  156SAPE  H17Y17440   1.874   2.816   8.896 -1.0438 -2.7142 -0.3043
  156SAPE  C31817441   1.726   2.878   8.739 -0.0794  0.2660 -0.0090
  156SAPE  H18X17442   1.651   2.812   8.788 -0.0113 -0.5047 -0.9086
  156SAPE  H18Y17443   1.708   2.881   8.629 -2.1547 -0.3364  0.2718
  156SAPE  H18Z17444   1.715   2.978   8.787 -0.8850 -0.2402  0.8868
  157SAPE     N17445   0.631   3.732   6.640 -0.8208  0.2424  0.2475
  157SAPE   HN117446   0.705   3.660   6.655 -1.5589 -0.7830 -0.9190
  157SAPE   HN217447   0.613   3.732   6.538  0.4193 -0.1863  0.0099
  157SAPE   HN317448   0.662   3.824   6.678 -1.2343  0.3710  0.2785
  157SAPE   C1217449   0.506   3.686   6.703  0.1493 -0.9552  0.5263
  157SAPE  H12A17450   0.510   3.679   6.813  0.2226  0.5641  0.6347
  157SAPE  H12B17451   0.491   3.582   6.665  0.3019 -1.2046  1.1447
  157SAPE   C1117452   0.381   3.778   6.672 -0.1418  1.1217 -0.1626
  157SAPE  H11A17453   0.400   3.874   6.725 -1.6994  1.9137 -0.9771
  157SAPE  H11B17454   0.291   3.747   6.730 -0.1407 -0.8675 -1.1488
  157SAPE     P17455   0.234   3.786   6.462 -0.0254  0.0967  0.2604
  157SAPE   O1317456   0.143   3.897   6.492 -0.8381 -0.1805  0.6257
  157SAPE   O1417457   0.265   3.763   6.317 -0.1908  0.2153 -0.5407
  157SAPE   O1217458   0.366   3.800   6.535 -0.7137  0.0153 -0.7834
  157SAPE   O1117459   0.167   3.651   6.514  0.2765 -0.2736 -0.4011
  157SAPE    C117460   0.225   3.523   6.513  0.4637  0.0523 -0.1541
  157SAPE    HA17461   0.218   3.472   6.415  0.7684 -0.4743  0.0903
  157SAPE    HB17462   0.335   3.525   6.527  0.4184 -0.8318  0.4280
  157SAPE    C217463   0.171   3.425   6.625 -0.2556  0.5470 -0.8594
  157SAPE    HS17464   0.064   3.398   6.620 -0.3384  0.4349  0.7941
  157SAPE   O2117465   0.208   3.478   6.760 -0.2616 -0.2229  0.1422
  157SAPE   C2117466   0.120   3.573   6.807  0.4571  0.4983  0.4139
  157SAPE   O2217467   0.029   3.622   6.742  0.2291  0.5661 -0.4977
  157SAPE   C2217468   0.147   3.596   6.951  0.0127 -0.7265 -0.5298
  157SAPE   H2R17469   0.087   3.520   7.006 -1.5559 -0.5397 -1.9126
  157SAPE   H2S17470   0.256   3.583   6.967  0.0319 -0.8806 -0.7755
  157SAPE    C317471   0.249   3.289   6.618 -0.6248 -0.7478  0.4334
  157SAPE    HX17472   0.358   3.309   6.626 -0.5551 -1.6141  2.1249
  157SAPE    HY17473   0.228   3.253   6.516  1.8057  0.9789 -0.7901
  157SAPE   O3117474   0.210   3.181   6.707  0.5927  0.0843 -0.1771
  157SAPE   C3117475   0.286   3.168   6.810  0.0494 -0.2255  0.3395
  157SAPE   O3217476   0.370   3.249   6.843 -0.4710  0.3216  0.0411
  157SAPE   C3217477   0.253   3.044   6.879  0.7282 -0.3002  0.4809
  157SAPE   H2X17478   0.333   2.967   6.868  1.0389  0.2271 -1.3857
  157SAPE   H2Y17479   0.154   3.016   6.836  0.2386  1.0789  0.6449
  157SAPE   C2317480   0.096   3.736   7.000  0.1177 -0.8038 -0.1097
  157SAPE   H3R17481  -0.009   3.741   6.965 -0.4399 -0.5458  1.5267
  157SAPE   H3S17482   0.141   3.823   6.947  0.3601  0.3920  1.9699
  157SAPE   C2417483   0.118   3.766   7.147  0.1734 -0.5505 -0.3796
  157SAPE   H4R17484   0.076   3.680   7.204  0.6627 -0.7490 -0.3105
  157SAPE   H4S17485   0.054   3.854   7.170 -2.7126 -2.6934  0.4791
  157SAPE   C2517486   0.262   3.778   7.170  0.5561 -0.2750  0.3910
  157SAPE   H5R17487   0.325   3.806   7.084 -1.4496  0.1282 -1.0034
  157SAPE   C2617488   0.327   3.745   7.282 -0.7837  0.5919 -1.2500
  157SAPE   H6R17489   0.436   3.762   7.280 -0.8941  1.8907  0.7020
  157SAPE   C2717490   0.273   3.707   7.413 -0.1855  0.1346  0.0597
  157SAPE   H7R17491   0.179   3.762   7.433 -0.2444 -0.1899  0.6951
  157SAPE   H7S17492   0.339   3.745   7.494  0.3264 -0.8746  0.1278
  157SAPE   C2817493   0.252   3.557   7.451 -0.3638 -0.5369  0.3690
  157SAPE   H8R17494   0.178   3.509   7.385 -0.3919  2.5356 -2.0574
  157SAPE   C2917495   0.275   3.511   7.576 -0.3337  0.7738  0.0475
  157SAPE   H9R17496   0.255   3.404   7.589  1.9149  0.0997 -1.4968
  157SAPE  C21017497   0.333   3.582   7.701  0.6616  1.1987  0.5045
  157SAPE  H10R17498   0.243   3.633   7.742 -0.2770  1.4715 -1.7262
  157SAPE  H10S17499   0.407   3.659   7.670  0.4017  1.8887  1.5332
  157SAPE  C21117500   0.388   3.485   7.805  0.0079  0.1730  0.3505
  157SAPE  H11R17501   0.360   3.379   7.803 -0.5039  0.3140 -0.1923
  157SAPE  C21217502   0.456   3.525   7.914  0.6150 -0.4718 -0.8430
  157SAPE  H12R17503   0.488   3.451   7.990  3.4571  1.4658  0.0304
  157SAPE  C21317504   0.503   3.663   7.943 -0.3320  0.3851  0.0833
  157SAPE  H13R17505   0.553   3.697   7.849  2.0119 -0.4758  0.9274
  157SAPE  H13S17506   0.597   3.656   8.002 -0.6726 -1.5169  0.4721
  157SAPE  C21417507   0.417   3.774   7.999  0.4791  1.0607 -0.0053
  157SAPE  H14R17508   0.311   3.779   7.970  0.3261  0.8297  0.5000
  157SAPE  C21517509   0.458   3.865   8.092  0.4189  0.2751 -0.0293
  157SAPE  H15R17510   0.405   3.960   8.108  0.3126  0.3757 -0.9094
  157SAPE  C21617511   0.598   3.872   8.154  0.5873  0.0749 -0.1473
  157SAPE  H16R17512   0.629   3.979   8.153  0.1755  0.2274 -2.2038
  157SAPE  H16S17513   0.680   3.830   8.092  0.3057  0.1005 -0.5455
  157SAPE  C21717514   0.593   3.827   8.303 -0.1741  0.4408 -0.6490
  157SAPE  H17R17515   0.505   3.872   8.354 -0.4296 -0.8343  0.0761
  157SAPE  H17S17516   0.685   3.878   8.337  1.4394 -1.3943 -1.9807
  157SAPE  C21817517   0.614   3.671   8.317 -0.0721 -0.4294 -0.2885
  157SAPE  H18R17518   0.679   3.634   8.235 -0.1578  1.7308 -1.3771
  157SAPE  H18S17519   0.515   3.629   8.290  0.6057 -2.0147 -0.4647
  157SAPE  C21917520   0.648   3.625   8.458 -0.4018  0.3025 -0.2934
  157SAPE  H19R17521   0.636   3.515   8.462  1.9669 -0.0102 -0.5339
  157SAPE  H19S17522   0.581   3.681   8.527 -3.0252 -1.0610 -1.6004
  157SAPE  C22017523   0.793   3.654   8.486 -0.9081  0.2718  0.4219
  157SAPE  H20R17524   0.811   3.628   8.593  0.0468  0.6578  0.3634
  157SAPE  H20S17525   0.827   3.759   8.468  0.1117  0.2317  1.9221
  157SAPE  H20T17526   0.859   3.591   8.423 -1.5736  0.9391 -0.9873
  157SAPE   C3317527   0.227   3.077   7.029  0.5147 -0.1714  0.1602
  157SAPE   H3X17528   0.213   3.187   7.039 -0.5360 -0.1784 -1.0729
  157SAPE   H3Y17529   0.320   3.054   7.086  0.2542 -0.6120  0.4147
  157SAPE   C3417530   0.115   2.995   7.093  0.0502 -0.4370  0.4194
  157SAPE   H4X17531   0.152   2.891   7.088 -0.3320 -0.5927  0.7856
  157SAPE   H4Y17532   0.033   2.997   7.018  1.4422 -0.2420 -1.1653
  157SAPE   C3517533   0.072   3.041   7.236 -0.7634  0.3337  0.0519
  157SAPE   H5X17534  -0.020   2.989   7.271  0.1173  0.6427  3.1733
  157SAPE   H5Y17535   0.047   3.149   7.230  0.5099  0.7801  1.8978
  157SAPE   C3617536   0.181   3.003   7.334 -0.0646 -0.2491  0.1663
  157SAPE   H6X17537   0.271   3.060   7.305 -0.0661 -0.6856 -0.7463
  157SAPE   H6Y17538   0.208   2.897   7.317 -1.6168 -0.5761 -0.5018
  157SAPE   C3717539   0.146   3.041   7.487  0.3741 -0.3217 -0.4466
  157SAPE   H7X17540   0.072   2.969   7.527  0.0564  1.7489  3.1715
  157SAPE   H7Y17541   0.090   3.136   7.489 -1.0974 -1.1296  2.2696
  157SAPE   C3817542   0.280   3.034   7.576  0.4448 -0.0756  0.1631
  157SAPE   H8X17543   0.360   3.085   7.519 -1.9314  1.6954 -1.8129
  157SAPE   H8Y17544   0.315   2.929   7.588  2.1040  0.3274 -0.8676
  157SAPE   C3917545   0.268   3.111   7.705 -1.3431  0.5712  0.5294
  157SAPE   H9X17546   0.254   3.221   7.701  1.5830  1.0414  0.5015
  157SAPE   H9Y17547   0.371   3.105   7.746  0.4241 -1.6116 -3.6554
  157SAPE  C31017548   0.170   3.042   7.791  0.7377  0.2345 -0.3112
  157SAPE  H10X17549   0.177   2.935   7.764 -1.1013  0.5169 -2.1943
  157SAPE  H10Y17550   0.071   3.066   7.746  0.5128 -3.5961 -2.2957
  157SAPE  C31117551   0.175   3.068   7.944 -0.2886  0.7098 -0.0531
  157SAPE  H11X17552   0.280   3.054   7.980  0.0991 -0.7737 -1.6078
  157SAPE  H11Y17553   0.108   3.012   8.013 -0.8554  1.4960  0.0451
  157SAPE  C31217554   0.148   3.214   7.965  0.3499  0.8290  0.0193
  157SAPE  H12X17555   0.049   3.247   7.926 -1.7294 -0.7026  3.4729
  157SAPE  H12Y17556   0.228   3.262   7.905  0.7802  0.7744  0.5440
  157SAPE  C31317557   0.159   3.254   8.110  0.3560  0.2976 -0.0564
  157SAPE  H13X17558   0.258   3.221   8.148  1.2664  0.6944 -1.9498
  157SAPE  H13Y17559   0.079   3.210   8.173 -0.6766  0.8141 -0.9698
  157SAPE  C31417560   0.153   3.408   8.139 -0.0934  1.0491  0.0001
  157SAPE  H14X17561   0.092   3.454   8.059  0.0620 -1.1762 -1.4802
  157SAPE  H14Y17562   0.254   3.454   8.135 -0.1243  1.2352  1.1213
  157SAPE  C31517563   0.092   3.438   8.278 -0.2301 -0.3940  0.2537
  157SAPE  H15X17564  -0.000   3.376   8.278 -0.7542  0.3337  1.5897
  157SAPE  H15Y17565   0.061   3.542   8.300 -3.7807 -1.2421 -0.1205
  157SAPE  C31617566   0.179   3.387   8.397 -0.6447 -0.0490 -0.1449
  157SAPE  H16X17567   0.243   3.308   8.353 -1.7965  0.8219 -3.7401
  157SAPE  H16Y17568   0.110   3.342   8.471  0.1240  0.6431  1.0318
  157SAPE  C31717569   0.269   3.494   8.446  0.0422  0.2745 -0.2867
  157SAPE  H17X17570   0.210   3.577   8.489 -0.7836  0.1891 -1.2353
  157SAPE  H17Y17571   0.327   3.537   8.362  0.3215  0.1412 -0.1652
  157SAPE  C31817572   0.355   3.440   8.566 -0.2148 -0.7925 -0.8059
  157SAPE  H18X17573   0.432   3.371   8.527  1.7502  0.1395  1.1912
  157SAPE  H18Y17574   0.294   3.381   8.637 -0.1665 -0.8335 -0.7978
  157SAPE  H18Z17575   0.413   3.519   8.620 -0.9258  0.2437 -1.5084
  158SAPE     N17576   2.342   2.182   6.389  0.6039  0.6617 -0.3988
  158SAPE   HN117577   2.322   2.224   6.482  1.4488  0.1931  0.0114
  158SAPE   HN217578   2.351   2.261   6.322  0.4395  1.9598  1.0543
  158SAPE   HN317579   2.253   2.132   6.370  1.0505 -0.8758  1.2472
  158SAPE   C1217580   2.451   2.080   6.391  0.0128  0.1213  0.4676
  158SAPE  H12A17581   2.549   2.130   6.406  0.1720  0.2588 -0.9532
  158SAPE  H12B17582   2.436   2.026   6.296 -0.1270  0.6232  0.2003
  158SAPE   C1117583   2.447   1.977   6.509 -0.0144  0.2554  0.7085
  158SAPE  H11A17584   2.339   1.949   6.515 -0.0851  0.2596 -0.3525
  158SAPE  H11B17585   2.464   2.039   6.600  1.0587  2.5561 -0.9582
  158SAPE     P17586   2.678   1.849   6.544  0.1833 -0.3566 -0.1991
  158SAPE   O1317587   2.729   1.711   6.538 -0.0026 -0.6781  0.2372
  158SAPE   O1417588   2.755   1.954   6.481 -0.1363 -0.2711 -0.2974
  158SAPE   O1217589   2.530   1.860   6.480 -0.1756 -0.4472 -0.1458
  158SAPE   O1117590   2.651   1.896   6.693  0.2485 -0.1084 -0.4833
  158SAPE    C117591   2.633   1.798   6.797  0.0722 -0.7013 -0.5281
  158SAPE    HA17592   2.659   1.695   6.764  0.8278 -1.0552  1.0855
  158SAPE    HB17593   2.699   1.820   6.884 -0.7670  0.8552 -0.2431
  158SAPE    C217594   2.485   1.794   6.856 -0.0224  0.1023  0.1576
  158SAPE    HS17595   2.424   1.806   6.763  1.1549 -1.1240 -0.8157
  158SAPE   O2117596   2.473   1.904   6.954 -0.3663 -0.2419  0.0180
  158SAPE   C2117597   2.363   1.976   6.939 -0.4013  0.2544  0.1730
  158SAPE   O2217598   2.268   1.957   6.866 -0.6062 -0.0658  0.8841
  158SAPE   C2217599   2.368   2.080   7.043 -0.2865 -0.5616 -0.3803
  158SAPE   H2R17600   2.359   2.022   7.138 -3.4808 -1.5558 -1.1549
  158SAPE   H2S17601   2.471   2.121   7.038  0.6235 -2.2067  2.6183
  158SAPE    C317602   2.470   1.666   6.935 -0.1449 -0.7169 -0.1820
  158SAPE    HX17603   2.473   1.593   6.851 -1.3279  0.4485 -1.2755
  158SAPE    HY17604   2.371   1.668   6.986 -1.5272  0.2800 -2.7207
  158SAPE   O3117605   2.585   1.637   7.016 -0.1557  0.0212  0.1185
  158SAPE   C3117606   2.575   1.682   7.144  0.1344 -0.2188  0.0827
  158SAPE   O3217607   2.474   1.728   7.197  0.1711  0.3702  0.6040
  158SAPE   C3217608   2.709   1.636   7.218  0.5367  0.0106 -0.4151
  158SAPE   H2X17609   2.792   1.690   7.169  0.5656  0.7152  0.3790
  158SAPE   H2Y17610   2.734   1.528   7.215  0.7532 -0.0757  2.3032
  158SAPE   C2317611   2.246   2.168   7.037  0.1060 -0.5796  0.2287
  158SAPE   H3R17612   2.151   2.111   7.036 -2.2986  3.0612 -2.0390
  158SAPE   H3S17613   2.250   2.226   6.942 -1.7123 -0.1279  0.3732
  158SAPE   C2417614   2.235   2.260   7.166  0.4680 -0.3260 -0.2069
  158SAPE   H4R17615   2.250   2.197   7.257 -0.5558 -2.2461 -1.2989
  158SAPE   H4S17616   2.132   2.302   7.170 -0.1128 -1.6721 -0.2117
  158SAPE   C2517617   2.329   2.378   7.165  0.1844  0.1045  0.6105
  158SAPE   H5R17618   2.344   2.422   7.065  0.0610 -0.1044  0.4974
  158SAPE   C2617619   2.388   2.437   7.271 -0.6516 -0.1281 -0.5395
  158SAPE   H6R17620   2.455   2.523   7.259  0.5458 -0.7901  1.0964
  158SAPE   C2717621   2.373   2.381   7.413 -0.0559 -0.1879  0.0261
  158SAPE   H7R17622   2.450   2.432   7.475  1.2937  0.8784 -2.3950
  158SAPE   H7S17623   2.399   2.274   7.404  2.0486  0.3565 -1.0668
  158SAPE   C2817624   2.233   2.397   7.471 -0.6829 -0.7682 -0.0058
  158SAPE   H8R17625   2.153   2.431   7.405  0.4164  2.1804 -0.0152
  158SAPE   C2917626   2.205   2.378   7.598  0.2439 -0.1015  0.1768
  158SAPE   H9R17627   2.099   2.382   7.625 -0.7072 -0.0257 -3.1655
  158SAPE  C21017628   2.306   2.340   7.707  0.1546  0.0180  0.6229
  158SAPE  H10R17629   2.300   2.423   7.781  0.3747  1.6582 -1.1185
  158SAPE  H10S17630   2.403   2.352   7.656 -0.8974  2.1991 -1.0216
  158SAPE  C21117631   2.283   2.200   7.754 -0.3620  0.7206 -0.1302
  158SAPE  H11R17632   2.266   2.130   7.670 -3.0925  0.7313  0.3443
  158SAPE  C21217633   2.274   2.149   7.879  0.3142  0.6700  0.1415
  158SAPE  H12R17634   2.247   2.042   7.888 -0.2952  0.8576  0.6906
  158SAPE  C21317635   2.286   2.226   8.011 -0.6432 -1.0937 -0.9649
  158SAPE  H13R17636   2.287   2.335   7.988 -0.5218  0.0856  3.6812
  158SAPE  H13S17637   2.381   2.197   8.060 -0.8143  1.3771  1.0848
  158SAPE  C21417638   2.166   2.202   8.094  0.0846  0.0530 -0.8328
  158SAPE  H14R17639   2.076   2.175   8.036 -0.1569 -1.3211  0.1476
  158SAPE  C21517640   2.168   2.177   8.230  0.0416 -0.7396 -0.6189
  158SAPE  H15R17641   2.073   2.159   8.282 -0.3787  1.4496 -0.5324
  158SAPE  C21617642   2.292   2.177   8.322 -0.3609 -0.7859  0.9004
  158SAPE  H16R17643   2.310   2.275   8.372 -0.5908  0.2510 -0.9375
  158SAPE  H16S17644   2.390   2.165   8.271  0.1626  0.7398  1.4879
  158SAPE  C21717645   2.280   2.055   8.415 -0.2531  0.5058 -0.2457
  158SAPE  H17R17646   2.220   1.977   8.363 -1.0420  1.3737 -0.6637
  158SAPE  H17S17647   2.220   2.072   8.506 -0.7776 -2.1345 -0.0129
  158SAPE  C21817648   2.412   1.995   8.466  0.2662  0.4329 -0.5176
  158SAPE  H18R17649   2.379   1.922   8.543 -0.1998 -0.4415 -1.5127
  158SAPE  H18S17650   2.475   2.068   8.521 -0.0970  0.8443 -0.6437
  158SAPE  C21917651   2.505   1.924   8.367 -0.1117  0.2490  0.5709
  158SAPE  H19R17652   2.576   1.993   8.317 -1.7358  0.9164 -0.9605
  158SAPE  H19S17653   2.437   1.880   8.291 -0.3363  0.1269  0.8378
  158SAPE  C22017654   2.581   1.800   8.428 -0.1787  0.4322 -0.4628
  158SAPE  H20R17655   2.510   1.751   8.498  0.1623  1.3891  0.6001
  158SAPE  H20S17656   2.667   1.825   8.495  0.5367 -0.1868 -1.1299
  158SAPE  H20T17657   2.601   1.729   8.345 -0.7325 -1.6992  1.1452
  158SAPE   C3317658   2.701   1.687   7.367 -0.0269 -0.1569  0.2736
  158SAPE   H3X17659   2.640   1.780   7.376  2.1707  1.3376  0.5288
  158SAPE   H3Y17660   2.806   1.702   7.399 -0.3147  0.3536  1.0207
  158SAPE   C3417661   2.640   1.589   7.467  0.6927  0.8054 -0.0802
  158SAPE   H4X17662   2.676   1.486   7.448 -0.0949  0.4523  0.3032
  158SAPE   H4Y17663   2.534   1.584   7.434  0.5266 -0.7926  0.5907
  158SAPE   C3517664   2.638   1.619   7.616  1.2616  0.0837 -1.3148
  158SAPE   H5X17665   2.580   1.714   7.623 -0.8139 -1.1103 -1.5584
  158SAPE   H5Y17666   2.744   1.644   7.635  1.2515 -1.6645  1.5420
  158SAPE   C3617667   2.566   1.508   7.696 -0.0899  0.9991 -0.1969
  158SAPE   H6X17668   2.608   1.408   7.676 -0.4536  0.8295 -0.1184
  158SAPE   H6Y17669   2.458   1.507   7.667 -0.0495  1.9980 -0.4415
  158SAPE   C3717670   2.578   1.530   7.847  0.2492 -0.4374  0.3313
  158SAPE   H7X17671   2.682   1.551   7.879 -0.0627  0.2444  0.9374
  158SAPE   H7Y17672   2.522   1.621   7.877  0.5151 -0.3080  0.4372
  158SAPE   C3817673   2.519   1.404   7.923  0.1058 -0.1966  0.0762
  158SAPE   H8X17674   2.549   1.317   7.860 -0.5584  0.0527 -0.6013
  158SAPE   H8Y17675   2.415   1.416   7.887 -0.0430 -0.9565  0.2347
  158SAPE   C3917676   2.550   1.397   8.070  0.9543  0.1834 -0.4215
  158SAPE   H9X17677   2.658   1.377   8.091  0.6548 -0.5430  0.5306
  158SAPE   H9Y17678   2.504   1.310   8.122  2.3879  0.9031  2.2603
  158SAPE  C31017679   2.503   1.515   8.157  0.8954  0.1075 -0.3610
  158SAPE  H10X17680   2.410   1.547   8.104  0.9836  0.7446 -0.1388
  158SAPE  H10Y17681   2.574   1.600   8.147  0.3171  0.4472 -1.8983
  158SAPE  C31117682   2.488   1.474   8.303  0.2865  0.1613  0.4278
  158SAPE  H11X17683   2.416   1.390   8.307  0.3780  0.1373  2.2871
  158SAPE  H11Y17684   2.443   1.557   8.362 -3.4928 -0.8887 -0.6841
  158SAPE  C31217685   2.624   1.432   8.362  0.4560  0.1695 -0.1315
  158SAPE  H12X17686   2.712   1.496   8.338  1.1578 -0.6031  0.3599
  158SAPE  H12Y17687   2.656   1.340   8.309  1.5886 -1.1204  2.6206
  158SAPE  C31317688   2.628   1.419   8.514  0.8686 -0.2298 -0.0455
  158SAPE  H13X17689   2.555   1.339   8.537  0.7519 -0.4369 -1.1270
  158SAPE  H13Y17690   2.573   1.510   8.548 -0.4698 -1.4658  1.2542
  158SAPE  C31417691   2.763   1.400   8.582 -0.8689  0.2347  0.1969
  158SAPE  H14X17692   2.830   1.445   8.504 -2.0734  0.8224 -0.5281
  158SAPE  H14Y17693   2.779   1.291   8.570 -3.5963 -0.1391 -0.5862
  158SAPE  C31517694   2.789   1.457   8.720 -0.5305  0.0558 -0.1536
  158SAPE  H15X17695   2.733   1.407   8.803 -1.0425  2.1128  0.8044
  158SAPE  H15Y17696   2.762   1.564   8.725 -2.7940 -0.5097  1.5264
  158SAPE  C31617697   2.933   1.449   8.773  0.0407  1.1183 -0.2865
  158SAPE  H16X17698   2.979   1.349   8.759 -1.9277  0.3537 -1.6913
  158SAPE  H16Y17699   2.942   1.478   8.880 -1.7860 -2.2956  0.9293
  158SAPE  C31717700   3.022   1.549   8.697 -0.2547  0.3125  0.4560
  158SAPE  H17X17701   2.979   1.651   8.700  0.2416  0.5289  0.2097
  158SAPE  H17Y17702   3.016   1.524   8.589 -1.4506 -1.6147  0.9155
  158SAPE  C31817703   3.166   1.556   8.752 -0.1293  0.5292  0.3200
  158SAPE  H18X17704   3.211   1.460   8.720 -0.3213  1.1785 -2.1026
  158SAPE  H18Y17705   3.162   1.555   8.863  0.7080  0.4051  0.3569
  158SAPE  H18Z17706   3.236   1.634   8.713 -1.2850  1.5400  0.2130
  159SAPE     N17707   4.131   3.579   6.724  0.3004 -0.9441  0.2153
  159SAPE   HN117708   4.120   3.535   6.818  2.4600 -0.0748  0.9380
  159SAPE   HN217709   4.216   3.638   6.711 -1.4805  1.3217 -2.3819
  159SAPE   HN317710   4.052   3.638   6.692  1.6550 -0.3502 -2.2741
  159SAPE   C1217711   4.151   3.476   6.621  0.0711  0.5382 -0.0480
  159SAPE  H12A17712   4.080   3.396   6.648  1.3196 -0.1564  1.3283
  159SAPE  H12B17713   4.255   3.440   6.635 -0.2447  0.2650  1.7645
  159SAPE   C1117714   4.131   3.529   6.481 -0.8902  0.5240  0.1462
  159SAPE  H11A17715   4.172   3.481   6.390 -1.1566 -2.4044  1.4657
  159SAPE  H11B17716   4.182   3.627   6.486 -0.3386  0.2724 -0.3899
  159SAPE     P17717   3.920   3.667   6.457 -0.0290  0.2529 -0.3842
  159SAPE   O1317718   3.999   3.771   6.385  0.2085  0.0777 -0.4400
  159SAPE   O1417719   3.781   3.646   6.405 -0.4135  0.1192 -0.4509
  159SAPE   O1217720   3.993   3.530   6.462  0.3552 -0.0451 -0.2897
  159SAPE   O1117721   3.922   3.711   6.609  0.2955 -0.2705 -0.4781
  159SAPE    C117722   3.865   3.837   6.646 -0.3215  0.1135  0.1586
  159SAPE    HA17723   3.915   3.917   6.588 -2.4933  2.2076  1.0214
  159SAPE    HB17724   3.759   3.854   6.619  0.1951 -0.8162 -2.7853
  159SAPE    C217725   3.879   3.869   6.801 -0.4110  0.0803 -0.3818
  159SAPE    HS17726   3.851   3.977   6.802  0.0743  0.2055  0.6179
  159SAPE   O2117727   4.015   3.845   6.847 -0.6216 -0.5683  0.4390
  159SAPE   C2117728   4.052   3.920   6.954  0.2083  0.7209  0.7226
  159SAPE   O2217729   3.983   4.007   7.000 -0.0143 -0.3150  0.1538
  159SAPE   C2217730   4.180   3.869   7.007  0.5218 -0.6208 -0.6364
  159SAPE   H2R17731   4.198   3.763   6.979 -0.6830 -1.3968  1.3410
  159SAPE   H2S17732   4.264   3.917   6.952 -2.5330  0.5561 -4.8521
  159SAPE    C317733   3.769   3.778   6.865  0.1205 -0.8597 -0.3886
  159SAPE    HX17734   3.797   3.671   6.855  0.5121 -0.7955  0.0014
  159SAPE    HY17735   3.673   3.790   6.809 -0.8370  0.4680  1.4389
  159SAPE   O3117736   3.748   3.802   7.005 -0.0810 -0.5580 -0.3487
  159SAPE   C3117737   3.691   3.923   7.039  0.0387  0.0294 -0.2473
  159SAPE   O3217738   3.645   4.003   6.966 -0.8916 -0.2719  0.5137
  159SAPE   C3217739   3.699   3.948   7.190  0.3551  0.0929 -0.8003
  159SAPE   H2X17740   3.775   4.026   7.212 -1.3043  1.9148 -1.2426
  159SAPE   H2Y17741   3.727   3.852   7.239  1.0756  0.0635 -1.2560
  159SAPE   C2317742   4.198   3.899   7.156  0.1106 -0.2206 -0.5871
  159SAPE   H3R17743   4.174   4.006   7.176 -0.3074 -0.1655 -1.3467
  159SAPE   H3S17744   4.297   3.869   7.196 -0.2936 -1.2099 -0.2982
  159SAPE   C2417745   4.108   3.821   7.249  0.2455  0.3815  0.3344
  159SAPE   H4R17746   4.005   3.860   7.234  0.2513 -0.0352 -0.9612
  159SAPE   H4S17747   4.146   3.844   7.351  0.1281  2.5088 -0.0597
  159SAPE   C2517748   4.093   3.674   7.224 -0.4941  0.8795 -0.3004
  159SAPE   H5R17749   4.021   3.642   7.147  0.8099  0.0156 -1.1812
  159SAPE   C2617750   4.166   3.576   7.284  0.1583  0.0081 -0.4498
  159SAPE   H6R17751   4.133   3.472   7.270 -1.1901  0.4954 -1.1636
  159SAPE   C2717752   4.272   3.610   7.386 -0.1000  0.2387  0.1304
  159SAPE   H7R17753   4.281   3.716   7.416  3.7095  0.2358 -0.4717
  159SAPE   H7S17754   4.375   3.603   7.344  0.4808 -0.1325  1.5559
  159SAPE   C2817755   4.257   3.516   7.504 -0.4405 -0.2884  0.3391
  159SAPE   H8R17756   4.296   3.413   7.500 -0.3148 -0.1952 -2.1369
  159SAPE   C2917757   4.209   3.559   7.617  0.6560  0.5740 -0.0313
  159SAPE   H9R17758   4.185   3.479   7.688  1.6614 -2.4214 -2.8178
  159SAPE  C21017759   4.163   3.698   7.655 -0.9763 -0.8762 -0.6042
  159SAPE  H10R17760   4.193   3.778   7.585 -0.3135  2.5052  3.1688
  159SAPE  H10S17761   4.218   3.722   7.749 -0.4406 -0.7371 -0.9534
  159SAPE  C21117762   4.018   3.707   7.699  0.3561 -1.0360  0.7173
  159SAPE  H11R17763   3.948   3.638   7.649 -0.3291 -0.1548  0.4324
  159SAPE  C21217764   3.970   3.798   7.790  0.8338 -0.3576  0.0706
  159SAPE  H12R17765   3.862   3.801   7.810  1.1295 -2.1369  2.3179
  159SAPE  C21317766   4.051   3.900   7.859  0.4373  0.7950  0.5790
  159SAPE  H13R17767   3.991   3.984   7.902 -0.3516  0.1003  0.8536
  159SAPE  H13S17768   4.128   3.946   7.794  2.3879  1.2297  3.0510
  159SAPE  C21417769   4.119   3.828   7.976 -0.0838 -0.1587 -0.3854
  159SAPE  H14R17770   4.162   3.729   7.957  0.3704  0.3545 -2.2197
  159SAPE  C21517771   4.117   3.860   8.102 -0.1598  0.6001 -0.6334
  159SAPE  H15R17772   4.165   3.802   8.183 -1.8954  1.4112  1.0540
  159SAPE  C21617773   4.047   3.973   8.174  0.1036  0.1356  0.0965
  159SAPE  H16R17774   3.986   3.930   8.257  0.5534  0.4109  0.5729
  159SAPE  H16S17775   3.976   4.030   8.111 -0.9276 -2.1046 -0.8802
  159SAPE  C21717776   4.149   4.064   8.244 -0.4846 -0.3617  0.0104
  159SAPE  H17R17777   4.109   4.146   8.308  1.5009 -0.1114  0.9780
  159SAPE  H17S17778   4.200   4.128   8.169 -0.3856  0.3331  0.6575
  159SAPE  C21817779   4.254   3.998   8.329 -0.5883  1.4051  0.1315
  159SAPE  H18R17780   4.330   4.074   8.357 -0.0088  1.3932 -1.3100
  159SAPE  H18S17781   4.301   3.914   8.272 -0.3679  0.5360  1.5515
  159SAPE  C21917782   4.204   3.946   8.465 -0.0049 -0.0205  0.5312
  159SAPE  H19R17783   4.287   3.899   8.522  1.8289  1.4244 -0.8325
  159SAPE  H19S17784   4.134   3.863   8.443 -1.0714  1.4647 -2.0529
  159SAPE  C22017785   4.138   4.057   8.546 -0.5508  0.4289  0.4618
  159SAPE  H20R17786   4.048   4.094   8.493  1.5140 -0.6937 -4.3614
  159SAPE  H20S17787   4.216   4.136   8.549  1.1250 -1.0297 -1.4509
  159SAPE  H20T17788   4.114   4.018   8.647 -0.4970 -0.2926  0.2038
  159SAPE   C3317789   3.564   4.003   7.241  0.6164  0.7270 -0.3090
  159SAPE   H3X17790   3.492   3.920   7.225  2.4605 -1.3923  1.5588
  159SAPE   H3Y17791   3.518   4.081   7.177 -2.8826 -1.6378 -0.9939
  159SAPE   C3417792   3.562   4.047   7.388 -0.4812  0.3164 -0.6434
  159SAPE   H4X17793   3.456   4.071   7.411  0.3741  0.8131  3.6980
  159SAPE   H4Y17794   3.622   4.140   7.398  0.5125 -0.2747 -0.9622
  159SAPE   C3517795   3.607   3.939   7.483 -0.1666  0.0953  0.1362
  159SAPE   H5X17796   3.699   3.894   7.438  0.4361 -0.0912  1.5108
  159SAPE   H5Y17797   3.527   3.861   7.482 -0.2422  0.1709 -0.4664
  159SAPE   C3617798   3.623   3.992   7.624  0.1112  0.3492  0.1071
  159SAPE   H6X17799   3.650   3.906   7.689  2.0043  0.4779 -0.4655
  159SAPE   H6Y17800   3.523   4.032   7.651 -0.5264 -1.1560  0.0926
  159SAPE   C3717801   3.739   4.092   7.644  0.5532 -0.0720  0.9139
  159SAPE   H7X17802   3.721   4.183   7.583 -0.5390 -0.9938 -0.1598
  159SAPE   H7Y17803   3.837   4.051   7.611  0.0570 -0.5039 -0.0285
  159SAPE   C3817804   3.747   4.128   7.787 -0.0296  0.1150  0.5054
  159SAPE   H8X17805   3.850   4.165   7.803 -0.5282  0.6473  2.9123
  159SAPE   H8Y17806   3.740   4.035   7.847  1.2105 -0.6989 -0.5555
  159SAPE   C3917807   3.641   4.229   7.831 -0.3838  0.7557 -0.4356
  159SAPE   H9X17808   3.541   4.189   7.804 -0.0451 -1.2429  1.0365
  159SAPE   H9Y17809   3.663   4.320   7.771  0.7567  2.0501  1.7823
  159SAPE  C31017810   3.660   4.268   7.978 -0.2904 -0.1702  0.1367
  159SAPE  H10X17811   3.743   4.341   7.987 -1.1908  0.8090  0.8066
  159SAPE  H10Y17812   3.698   4.187   8.044  0.9613 -0.4459 -0.8736
  159SAPE  C31117813   3.533   4.321   8.045 -0.0540 -0.4608 -0.8058
  159SAPE  H11X17814   3.455   4.245   8.068  0.6136 -0.5909  1.2725
  159SAPE  H11Y17815   3.483   4.404   7.991 -1.2515 -0.0864  0.7966
  159SAPE  C31217816   3.562   4.385   8.186 -0.8644 -0.3749 -0.4801
  159SAPE  H12X17817   3.460   4.409   8.223 -0.4327  0.1618  0.4002
  159SAPE  H12Y17818   3.613   4.479   8.157  3.2398 -1.7166  1.5508
  159SAPE  C31317819   3.650   4.303   8.286 -0.0367  1.0986  1.1151
  159SAPE  H13X17820   3.730   4.255   8.226 -2.7653  0.5264 -2.4094
  159SAPE  H13Y17821   3.593   4.215   8.324  0.2446  0.5009  0.1969
  159SAPE  C31417822   3.700   4.378   8.410  0.2265  0.5654  0.2836
  159SAPE  H14X17823   3.623   4.437   8.464 -0.2636  2.3533 -2.1862
  159SAPE  H14Y17824   3.774   4.452   8.373  0.2501 -0.3163 -1.5215
  159SAPE  C31517825   3.758   4.291   8.518  0.0044 -0.1333 -1.0627
  159SAPE  H15X17826   3.848   4.233   8.489  0.0945 -0.8944  0.6100
  159SAPE  H15Y17827   3.689   4.212   8.555 -0.8457 -0.1070 -2.5411
  159SAPE  C31617828   3.821   4.376   8.638  0.2071  0.3854 -0.5061
  159SAPE  H16X17829   3.751   4.395   8.723  1.3425  0.2135  0.4989
  159SAPE  H16Y17830   3.853   4.477   8.604 -0.3505  0.4578 -0.8367
  159SAPE  C31717831   3.944   4.316   8.708 -0.2008 -0.0262 -0.0061
  159SAPE  H17X17832   4.024   4.337   8.634  0.8222 -0.4185  0.9551
  159SAPE  H17Y17833   3.942   4.206   8.719 -0.0770 -0.0148  0.1480
  159SAPE  C31817834   3.978   4.371   8.853  0.1043 -0.7667  0.0216
  159SAPE  H18X17835   4.077   4.333   8.887 -1.0077 -1.0701  3.3154
  159SAPE  H18Y17836   3.899   4.358   8.930  0.2073 -1.4275  0.0281
  159SAPE  H18Z17837   3.995   4.480   8.844 -2.5550 -0.2594  0.3453
  160SAPE     N17838   4.421   3.102   6.446  0.0549  0.6495  0.6177
  160SAPE   HN117839   4.441   3.202   6.428 -0.5236  0.6994  0.2275
  160SAPE   HN217840   4.515   3.058   6.435 -1.2677 -2.1044 -0.5955
  160SAPE   HN317841   4.367   3.054   6.371  1.8093  2.3334 -1.9153
  160SAPE   C1217842   4.383   3.060   6.579  0.3536  0.4668  0.3878
  160SAPE  H12A17843   4.462   3.089   6.652  0.3783  0.4384  0.3720
  160SAPE  H12B17844   4.367   2.950   6.581  1.4501  0.2328 -1.0521
  160SAPE   C1117845   4.257   3.142   6.618 -0.6427  0.5099  0.4227
  160SAPE  H11A17846   4.295   3.246   6.619 -0.2013  0.4113 -1.4664
  160SAPE  H11B17847   4.235   3.107   6.721 -1.1645  1.7081  0.7460
  160SAPE     P17848   4.043   3.001   6.535 -0.3448 -0.1555  0.6053
  160SAPE   O1317849   3.930   3.033   6.443  0.0218  0.0797  0.3569
  160SAPE   O1417850   4.112   2.876   6.503 -0.3473  0.0833 -0.4117
  160SAPE   O1217851   4.146   3.124   6.529  0.2767  0.0999 -0.0672
  160SAPE   O1117852   4.002   2.995   6.686  0.3973 -0.1171  0.4368
  160SAPE    C117853   3.865   2.959   6.719 -0.3838 -0.6125  0.1685
  160SAPE    HA17854   3.810   3.055   6.724  0.6957  0.0823 -0.8282
  160SAPE    HB17855   3.824   2.900   6.634  0.6001  0.3848 -1.0444
  160SAPE    C217856   3.848   2.872   6.852 -0.4159  0.1605  0.2242
  160SAPE    HS17857   3.743   2.839   6.858  0.2263 -1.7428  3.2419
  160SAPE   O2117858   3.869   2.963   6.959 -0.3855  0.0471 -0.1617
  160SAPE   C2117859   3.767   2.996   7.038  0.5073  0.3995  0.7020
  160SAPE   O2217860   3.649   2.957   7.038  0.0734  0.9619  0.2080
  160SAPE   C2217861   3.818   3.096   7.141 -0.1657  0.3284 -0.1709
  160SAPE   H2R17862   3.917   3.135   7.107  0.1146 -0.4502 -0.2759
  160SAPE   H2S17863   3.748   3.180   7.123  0.4384  0.7847 -0.4235
  160SAPE    C317864   3.952   2.755   6.847 -0.5640 -0.6826  0.6709
  160SAPE    HX17865   4.053   2.803   6.852 -1.8383  3.0489 -3.3670
  160SAPE    HY17866   3.940   2.694   6.755 -1.4711 -0.7125  0.8081
  160SAPE   O3117867   3.918   2.664   6.951  0.0939 -0.0874 -0.0668
  160SAPE   C3117868   4.019   2.585   6.985 -0.0362  0.0087  0.3759
  160SAPE   O3217869   4.129   2.578   6.934 -0.6203 -0.7724  0.5412
  160SAPE   C3217870   3.975   2.488   7.099 -0.2538 -0.7832 -0.4736
  160SAPE   H2X17871   3.893   2.425   7.059 -0.8041  0.1884 -0.8877
  160SAPE   H2Y17872   3.943   2.552   7.184  1.1615 -1.2029  0.4348
  160SAPE   C2317873   3.804   3.060   7.290  0.1248 -0.1078 -0.9222
  160SAPE   H3R17874   3.877   2.978   7.294  0.6529  0.3815 -0.3313
  160SAPE   H3S17875   3.701   3.021   7.305  0.3393 -0.5878 -0.7021
  160SAPE   C2417876   3.836   3.179   7.387  0.0489  0.7536 -0.2053
  160SAPE   H4R17877   3.793   3.147   7.485 -1.7875  1.6003 -0.6822
  160SAPE   H4S17878   3.766   3.263   7.367  0.2181  1.0589  0.4524
  160SAPE   C2517879   3.984   3.223   7.401  0.3756  0.6478  0.3512
  160SAPE   H5R17880   4.037   3.240   7.306  2.9066 -1.6794  1.2178
  160SAPE   C2617881   4.052   3.227   7.517 -0.0750  0.5133 -0.4245
  160SAPE   H6R17882   4.161   3.238   7.510 -0.0014 -0.3822 -0.8116
  160SAPE   C2717883   4.004   3.203   7.654 -0.0786 -0.6029  0.1575
  160SAPE   H7R17884   3.934   3.117   7.665 -0.3403 -0.8761 -2.8700
  160SAPE   H7S17885   3.955   3.298   7.682  0.7361 -0.4725  1.2073
  160SAPE   C2817886   4.118   3.186   7.757 -0.2569 -0.2946 -0.0508
  160SAPE   H8R17887   4.217   3.153   7.723 -1.3023 -4.0256  0.0309
  160SAPE   C2917888   4.113   3.211   7.891  0.3190 -0.2501  0.0762
  160SAPE   H9R17889   4.204   3.205   7.953  0.2885  0.2613  0.1724
  160SAPE  C21017890   3.990   3.262   7.961 -0.0217 -0.0717  0.0618
  160SAPE  H10R17891   4.002   3.238   8.068 -0.8214 -0.0782  0.1620
  160SAPE  H10S17892   3.897   3.207   7.932  0.6861 -1.5357  0.4958
  160SAPE  C21117893   3.951   3.404   7.944 -1.3206 -0.2977  0.1884
  160SAPE  H11R17894   4.030   3.459   7.891 -0.2493 -0.3401  1.6986
  160SAPE  C21217895   3.837   3.468   7.970 -0.0342 -0.9148  0.5031
  160SAPE  H12R17896   3.840   3.569   7.927 -1.5730 -1.4725 -1.0406
  160SAPE  C21317897   3.707   3.424   8.029  0.9429 -0.8720  0.3313
  160SAPE  H13R17898   3.710   3.417   8.139  2.2619 -1.6696  0.2660
  160SAPE  H13S17899   3.684   3.319   8.001  1.6365 -1.3106  1.3527
  160SAPE  C21417900   3.593   3.517   7.982 -0.7824  0.0430  0.3769
  160SAPE  H14R17901   3.551   3.587   8.056 -1.8102  0.2376 -0.3763
  160SAPE  C21517902   3.544   3.523   7.861 -0.0896  0.6037  0.3384
  160SAPE  H15R17903   3.463   3.594   7.839 -1.2195 -0.3450  1.3153
  160SAPE  C21617904   3.589   3.441   7.744  0.7014 -0.0002  0.7565
  160SAPE  H16R17905   3.497   3.387   7.714 -0.0455  0.5833  1.9280
  160SAPE  H16S17906   3.672   3.372   7.771  1.2719  0.8455  1.2282
  160SAPE  C21717907   3.631   3.538   7.634  0.0871  0.3798 -0.2241
  160SAPE  H17R17908   3.714   3.604   7.667 -0.8850  1.1362  0.7700
  160SAPE  H17S17909   3.544   3.600   7.602 -0.8121  1.1633  3.3107
  160SAPE  C21817910   3.672   3.468   7.498 -0.5034 -0.2983 -0.2615
  160SAPE  H18R17911   3.588   3.405   7.463 -0.3605  0.8439 -2.9028
  160SAPE  H18S17912   3.769   3.415   7.511  0.3885  1.5336  1.0210
  160SAPE  C21917913   3.685   3.577   7.393 -0.0349 -0.1265  0.2202
  160SAPE  H19R17914   3.750   3.661   7.426  0.6064 -1.4683  2.6185
  160SAPE  H19S17915   3.583   3.617   7.376 -0.0388  0.1646  0.9013
  160SAPE  C22017916   3.745   3.527   7.261 -0.0393 -0.1625 -0.5437
  160SAPE  H20R17917   3.811   3.438   7.263  0.3284  0.1168  1.2640
  160SAPE  H20S17918   3.795   3.612   7.209  0.1298  0.6109  0.8310
  160SAPE  H20T17919   3.657   3.506   7.197  0.7266 -0.4883 -1.5252
  160SAPE   C3317920   4.086   2.407   7.158 -0.7254  0.3830  0.1191
  160SAPE   H3X17921   4.174   2.474   7.173 -1.2678  1.3581 -0.8603
  160SAPE   H3Y17922   4.117   2.331   7.084  1.4661  1.3989 -0.1058
  160SAPE   C3417923   4.044   2.339   7.285 -0.2618 -0.2615  0.1972
  160SAPE   H4X17924   3.958   2.271   7.263 -0.1204  0.0186 -1.2911
  160SAPE   H4Y17925   4.020   2.411   7.366  2.2783 -0.3814  1.1526
  160SAPE   C3517926   4.161   2.251   7.342 -0.4699  0.0394  0.0675
  160SAPE   H5X17927   4.258   2.305   7.355 -0.2456 -0.4325  0.3542
  160SAPE   H5Y17928   4.181   2.171   7.268 -0.3388 -0.2957  0.4636
  160SAPE   C3617929   4.127   2.178   7.468 -0.0061  0.8100  0.3643
  160SAPE   H6X17930   4.193   2.088   7.471 -0.8179  0.1628 -0.5180
  160SAPE   H6Y17931   4.026   2.133   7.453  0.2714  0.7834 -1.7296
  160SAPE   C3717932   4.144   2.251   7.602 -0.3303 -0.3323  0.0896
  160SAPE   H7X17933   4.064   2.327   7.615 -1.3569 -1.6185  1.5770
  160SAPE   H7Y17934   4.245   2.297   7.602 -0.1373 -0.4362 -3.4055
  160SAPE   C3817935   4.131   2.156   7.720 -0.1069 -0.1173 -0.0556
  160SAPE   H8X17936   4.169   2.052   7.715  1.0985  0.3120 -0.0733
  160SAPE   H8Y17937   4.021   2.148   7.727 -0.3611  2.2921 -0.3059
  160SAPE   C3917938   4.180   2.222   7.846  0.8902  0.2215  0.1685
  160SAPE   H9X17939   4.170   2.333   7.841 -2.6265 -0.0497 -2.1610
  160SAPE   H9Y17940   4.285   2.200   7.874  0.3013 -1.2412  1.3842
  160SAPE  C31017941   4.095   2.184   7.967 -0.1071  0.3918 -0.2326
  160SAPE  H10X17942   4.091   2.075   7.985 -0.8568  0.2691 -1.0610
  160SAPE  H10Y17943   3.993   2.222   7.945  0.2524 -0.0862 -3.0220
  160SAPE  C31117944   4.147   2.253   8.098 -0.5398 -0.0273 -0.2332
  160SAPE  H11X17945   4.137   2.363   8.089 -0.4925 -0.0870 -1.0629
  160SAPE  H11Y17946   4.252   2.223   8.119 -1.5506 -3.3645  0.7383
  160SAPE  C31217947   4.045   2.200   8.213  1.2261 -0.4467  0.1973
  160SAPE  H12X17948   4.017   2.093   8.215 -3.0780  0.4370 -0.6374
  160SAPE  H12Y17949   3.954   2.252   8.173  0.8338 -1.0956  0.2354
  160SAPE  C31317950   4.083   2.250   8.355 -0.3963 -0.0775  0.0642
  160SAPE  H13X17951   4.190   2.222   8.362  0.3714  1.7734 -2.6512
  160SAPE  H13Y17952   4.036   2.192   8.437 -0.8066  1.8651  1.2496
  160SAPE  C31417953   4.070   2.400   8.384  0.3411  0.9146  0.7339
  160SAPE  H14X17954   4.137   2.455   8.315  0.4634 -2.1131 -1.7782
  160SAPE  H14Y17955   4.112   2.420   8.484 -0.4759  0.2814  1.2253
  160SAPE  C31517956   3.924   2.448   8.381 -0.1909 -0.4590 -0.2867
  160SAPE  H15X17957   3.863   2.378   8.442  1.0809  0.1222  1.7625
  160SAPE  H15Y17958   3.897   2.451   8.274 -0.5522  0.6972 -0.1776
  160SAPE  C31617959   3.903   2.585   8.442 -0.0381  0.1907  0.0416
  160SAPE  H16X17960   3.800   2.624   8.423 -0.2172 -1.1825 -2.2310
  160SAPE  H16Y17961   3.962   2.664   8.391 -3.2473  0.4484 -3.7563
  160SAPE  C31717962   3.911   2.589   8.594  0.1071  0.4148  0.4035
  160SAPE  H17X17963   4.002   2.533   8.626  0.2979 -0.0374 -0.8754
  160SAPE  H17Y17964   3.828   2.531   8.640 -0.7414  1.1170 -0.2057
  160SAPE  C31817965   3.922   2.735   8.638 -0.1123  0.1146 -0.3914
  160SAPE  H18X17966   4.016   2.786   8.608 -0.1000  0.2812 -0.0680
  160SAPE  H18Y17967   3.923   2.753   8.747  2.0392  2.7202 -0.7256
  160SAPE  H18Z17968   3.834   2.791   8.600 -0.1329  0.2072 -0.2045
  161SOPE     N17969   0.904   4.265  11.071 -0.3276  0.3655 -0.8810
  161SOPE   HN117970   0.822   4.325  11.048 -1.9186 -1.9901 -1.7871
  161SOPE   HN217971   0.939   4.281  11.168  0.2272 -2.2015 -0.5797
  161SOPE   HN317972   0.975   4.298  11.003  1.5860  0.8597  1.2233
  161SOPE   C1217973   0.860   4.120  11.055  0.2781  0.3920 -0.2525
  161SOPE  H12A17974   0.760   4.116  11.103  0.4290 -0.3106  0.0153
  161SOPE  H12B17975   0.932   4.053  11.106  2.1789 -0.7538 -4.0629
  161SOPE   C1117976   0.831   4.076  10.908  0.0041 -0.1301  1.0917
  161SOPE  H11A17977   0.727   4.111  10.889 -0.7413 -2.6231  0.2721
  161SOPE  H11B17978   0.832   3.966  10.891  0.3879  0.2043 -1.5581
  161SOPE     P17979   1.044   4.072  10.744  0.1415  0.1498  0.1018
  161SOPE   O1317980   1.001   3.937  10.706  0.1183 -0.2524 -0.2257
  161SOPE   O1417981   1.162   4.085  10.836  0.4350 -0.0558  0.1511
  161SOPE   O1217982   0.923   4.143  10.813  0.2277 -0.6967 -0.2676
  161SOPE   O1117983   1.073   4.163  10.614 -0.4029  0.3495 -0.4677
  161SOPE    C117984   1.018   4.293  10.601  0.0246 -0.6581 -0.4171
  161SOPE    HA17985   1.010   4.341  10.701  0.3571 -1.2960 -0.0810
  161SOPE    HB17986   0.910   4.273  10.581 -0.2207 -0.6146  0.7658
  161SOPE    C217987   1.106   4.387  10.510 -0.5811 -0.4309 -0.2687
  161SOPE    HS17988   1.050   4.483  10.517  0.8891  0.4004  0.6287
  161SOPE   O2117989   1.124   4.330  10.381  0.4951 -0.1277 -0.3733
  161SOPE   C2117990   1.013   4.297  10.318  0.3314 -0.0543  0.3729
  161SOPE   O2217991   0.902   4.351  10.331  0.5283  0.2268 -0.8764
  161SOPE   C2217992   1.038   4.184  10.213 -0.9081  0.3806  0.0348
  161SOPE   H2R17993   0.971   4.101  10.244 -0.3567  0.1508  0.6340
  161SOPE   H2S17994   1.146   4.156  10.221 -1.5247 -2.3208  0.0575
  161SOPE    C317995   1.250   4.425  10.570  0.3984 -0.5633  0.8342
  161SOPE    HX17996   1.305   4.329  10.578  1.7095  0.1766  1.1326
  161SOPE    HY17997   1.234   4.472  10.670  1.3712 -0.5099  0.9781
  161SOPE   O3117998   1.325   4.524  10.481  0.4243 -0.3102  0.4674
  161SOPE   C3117999   1.450   4.532  10.506  0.1333 -0.3705  0.3549
  161SOPE   O3218000   1.507   4.474  10.597  0.1941  0.5473  0.4080
  161SOPE   C3218001   1.516   4.636  10.413  0.0729 -0.1476 -0.8487
  161SOPE   H2X18002   1.622   4.638  10.447 -0.4073 -0.7757  0.7616
  161SOPE   H2Y18003   1.468   4.734  10.433 -2.4750 -1.6310  0.8288
  161SOPE   C2318004   1.003   4.235  10.073  0.8151  0.1943  0.7499
  161SOPE   H3R18005   1.078   4.307  10.035  1.1424  0.0391  1.0944
  161SOPE   H3S18006   0.898   4.270  10.078  0.0323 -2.0667  1.9053
  161SOPE   C2418007   1.007   4.113   9.977 -0.3794  0.3992  0.7129
  161SOPE   H4R18008   1.109   4.070   9.981  0.1432  1.5823  4.6731
  161SOPE   H4S18009   0.937   4.031  10.002  0.6532 -1.5061 -2.1538
  161SOPE   C2518010   0.975   4.146   9.831  0.3801 -0.3062 -0.2055
  161SOPE   H5R18011   0.871   4.186   9.831  0.0123 -1.2173 -0.2018
  161SOPE   H5S18012   1.032   4.231   9.790 -2.9962  1.7236 -1.0552
  161SOPE   C2618013   0.987   4.023   9.745  0.2072 -1.0213  0.2385
  161SOPE   H6R18014   0.916   3.941   9.770  0.1344 -1.1257 -0.2824
  161SOPE   H6S18015   0.952   4.048   9.642  1.9896 -0.5116 -0.2816
  161SOPE   C2718016   1.128   3.965   9.726  0.3996 -0.1801 -0.2510
  161SOPE   H7R18017   1.184   4.059   9.713  0.0023  0.2386  0.9060
  161SOPE   H7S18018   1.158   3.905   9.815 -1.9069 -0.3947  0.4546
  161SOPE   C2818019   1.144   3.877   9.603  0.3180 -0.2206  0.3713
  161SOPE   H8R18020   1.075   3.790   9.597 -0.5471  0.5398 -1.4663
  161SOPE   H8S18021   1.119   3.944   9.518 -3.5256 -1.1683  0.5850
  161SOPE   C2918022   1.293   3.837   9.582  0.4341  0.1193  0.4133
  161SOPE   H9118023   1.371   3.875   9.649  0.1587 -0.2993  0.9890
  161SOPE  C21018024   1.335   3.767   9.483  0.3197  0.7128 -0.2011
  161SOPE  H10118025   1.443   3.747   9.476  0.3001  0.2217  0.8336
  161SOPE  C21118026   1.257   3.721   9.365  0.5697  0.5229 -0.0751
  161SOPE  H11R18027   1.172   3.792   9.352 -2.1279 -2.4366 -0.0869
  161SOPE  H11S18028   1.210   3.623   9.391  0.3495  0.7713  0.4689
  161SOPE  C21218029   1.340   3.729   9.236 -0.0735  0.0050 -0.0349
  161SOPE  H12R18030   1.414   3.648   9.221  0.5618  1.0133 -3.2919
  161SOPE  H12S18031   1.386   3.830   9.226 -0.8381  0.3575 -0.1102
  161SOPE  C21318032   1.238   3.702   9.113 -0.7467  0.3927 -0.5596
  161SOPE  H13R18033   1.161   3.781   9.102 -0.2583  0.9495 -0.0973
  161SOPE  H13S18034   1.188   3.603   9.124 -2.2502  1.1385 -0.4569
  161SOPE  C21418035   1.333   3.698   8.987  0.1030  0.2488  0.1865
  161SOPE  H14R18036   1.404   3.614   9.002  0.9133 -0.5785 -5.8925
  161SOPE  H14S18037   1.391   3.793   8.986  0.0949  0.2620 -1.7599
  161SOPE  C21518038   1.256   3.697   8.852  1.0005  0.0659 -0.2470
  161SOPE  H15R18039   1.326   3.701   8.765  0.9661 -0.2156 -0.2889
  161SOPE  H15S18040   1.179   3.776   8.839 -0.2975 -0.6257  2.6390
  161SOPE  C21618041   1.171   3.569   8.838  0.1045 -0.0657  0.0622
  161SOPE  H16R18042   1.097   3.572   8.922 -0.4544  1.7874 -0.4522
  161SOPE  H16S18043   1.224   3.474   8.863 -1.7549 -1.0959  0.2850
  161SOPE  C21718044   1.090   3.559   8.709 -0.3561 -0.0301  0.6945
  161SOPE  H17R18045   1.045   3.656   8.677  0.0991 -0.6525 -2.1806
  161SOPE  H17S18046   1.002   3.493   8.723  0.4783 -1.8229 -1.7073
  161SOPE  C21818047   1.158   3.497   8.580  0.0224  0.0667  0.3641
  161SOPE  H18R18048   1.247   3.560   8.555  0.6874 -0.5350  1.1520
  161SOPE  H18S18049   1.090   3.497   8.493  2.4799 -0.9006 -1.6824
  161SOPE  H18T18050   1.177   3.391   8.608 -1.4412  0.0102  1.2747
  161SOPE   C3318051   1.502   4.594  10.265  0.1162 -1.0645  0.2889
  161SOPE   H3X18052   1.396   4.587  10.232  0.3669  0.7499 -1.0487
  161SOPE   H3Y18053   1.549   4.496  10.246  0.0887 -0.8826 -0.7750
  161SOPE   C3418054   1.564   4.702  10.170  0.2996  0.1796  0.8256
  161SOPE   H4X18055   1.665   4.737  10.200  0.0304 -0.5260  2.6976
  161SOPE   H4Y18056   1.503   4.795  10.173 -1.9146 -1.2028  2.8897
  161SOPE   C3518057   1.592   4.650  10.032 -0.7367 -0.2998 -0.3634
  161SOPE   H5X18058   1.595   4.539  10.028  1.4736 -0.3160  0.4439
  161SOPE   H5Y18059   1.694   4.682  10.004 -0.8569  0.4717  0.0752
  161SOPE   C3618060   1.500   4.705   9.921 -0.6380  0.2361 -0.5542
  161SOPE   H6X18061   1.521   4.813   9.908 -0.7761  0.4693  0.9637
  161SOPE   H6Y18062   1.389   4.694   9.926 -0.6876 -0.0682 -1.9013
  161SOPE   C3718063   1.542   4.645   9.786 -0.2598  0.0349  0.3598
  161SOPE   H7X18064   1.491   4.547   9.786 -1.8372  0.7857  2.6449
  161SOPE   H7Y18065   1.653   4.639   9.784 -0.2900 -0.4584 -1.3021
  161SOPE   C3818066   1.503   4.733   9.673  0.2646 -0.3748 -0.0610
  161SOPE   H8X18067   1.558   4.828   9.690 -2.0584  1.5089 -2.2526
  161SOPE   H8Y18068   1.396   4.762   9.685 -0.2585 -2.5122  1.0750
  161SOPE   C3918069   1.516   4.675   9.536 -0.1834  0.3114  0.0490
  161SOPE   H9X18070   1.451   4.584   9.536 -0.1250  0.2536 -1.3236
  161SOPE   H9Y18071   1.619   4.643   9.511 -0.4147  0.0480 -0.5826
  161SOPE  C31018072   1.462   4.764   9.417  0.5747 -0.6028  0.3619
  161SOPE  H10X18073   1.543   4.840   9.412 -1.6196  1.8052 -3.6867
  161SOPE  H10Y18074   1.368   4.806   9.458  1.3600 -0.3557  2.0033
  161SOPE  C31118075   1.443   4.701   9.281 -0.5840  0.2317 -0.1019
  161SOPE  H11X18076   1.355   4.634   9.281  0.4793 -1.2194  0.2981
  161SOPE  H11Y18077   1.533   4.639   9.261  0.0486  0.2462  2.3067
  161SOPE  C31218078   1.421   4.806   9.173  0.1136 -0.5236 -0.2535
  161SOPE  H12X18079   1.501   4.883   9.185 -1.4902  1.6233 -2.3221
  161SOPE  H12Y18080   1.333   4.871   9.196  0.8203 -0.0132  1.1332
  161SOPE  C31318081   1.409   4.752   9.033  0.3994  0.3566  0.0811
  161SOPE  H13X18082   1.317   4.691   9.026  0.0362  0.5417  2.4080
  161SOPE  H13Y18083   1.495   4.684   9.015  0.8103  0.3498  1.8780
  161SOPE  C31418084   1.409   4.865   8.928 -0.6285  0.2757 -0.1493
  161SOPE  H14X18085   1.356   4.959   8.955 -0.7811  0.4325 -0.9646
  161SOPE  H14Y18086   1.363   4.806   8.846 -2.0675  1.9418 -0.6013
  161SOPE  C31518087   1.557   4.900   8.884 -0.1207  0.9913  0.5041
  161SOPE  H15X18088   1.549   4.970   8.798 -1.3580 -0.6803 -0.7918
  161SOPE  H15Y18089   1.590   4.797   8.860 -0.8880 -0.4582  4.8329
  161SOPE  C31618090   1.663   4.961   8.977 -0.1050  0.3197  0.7120
  161SOPE  H16X18091   1.692   4.876   9.042 -2.7360 -2.2956 -1.2778
  161SOPE  H16Y18092   1.623   5.042   9.041 -1.0047  1.4704 -1.2005
  161SOPE  C31718093   1.784   5.017   8.898  0.1759  0.4298 -0.0924
  161SOPE  H17X18094   1.814   4.937   8.827 -1.5368  0.4571 -0.8884
  161SOPE  H17Y18095   1.870   5.027   8.968  0.5112  0.7293 -0.5452
  161SOPE  C31818096   1.759   5.151   8.827  0.4559  0.0946 -0.3349
  161SOPE  H18X18097   1.848   5.188   8.772 -1.0659  0.4913 -2.6727
  161SOPE  H18Y18098   1.725   5.213   8.913  2.4873 -1.9553  2.1309
  161SOPE  H18Z18099   1.673   5.139   8.758 -1.2563  1.0939  1.4962
  162SOPE     N18100   5.963   5.374  11.275  0.0494  0.0049 -0.7031
  162SOPE   HN118101   5.955   5.384  11.378  1.7802 -2.3487 -0.2404
  162SOPE   HN218102   6.067   5.363  11.273  0.3999  2.0489  1.6427
  162SOPE   HN318103   5.942   5.465  11.231  0.3851 -0.5383 -2.0601
  162SOPE   C1218104   5.883   5.267  11.219  0.2362  0.0623  0.1788
  162SOPE  H12A18105   5.881   5.284  11.110 -1.0280 -3.3014 -0.4475
  162SOPE  H12B18106   5.781   5.265  11.262 -0.1031 -0.6507 -0.6263
  162SOPE   C1118107   5.957   5.129  11.226 -0.0702  0.1908 -0.2640
  162SOPE  H11A18108   5.896   5.052  11.174  0.8155 -0.0005 -1.0316
  162SOPE  H11B18109   5.960   5.100  11.334  0.1595  0.3296 -0.2329
  162SOPE     P18110   6.211   5.043  11.194  0.4379 -0.1862 -0.1432
  162SOPE   O1318111   6.178   4.966  11.315  0.0675 -0.1835  0.0384
  162SOPE   O1418112   6.340   5.120  11.198  0.2455  0.4820  0.6868
  162SOPE   O1218113   6.085   5.135  11.163  0.3366 -0.1098  1.0548
  162SOPE   O1118114   6.221   4.940  11.069  0.1856 -0.1548 -0.3527
  162SOPE    C118115   6.183   4.983  10.934  0.5973  0.2631 -0.0611
  162SOPE    HA18116   6.244   4.929  10.858  2.1860  0.0798  1.2760
  162SOPE    HB18117   6.201   5.088  10.904  0.4705 -0.3030 -2.2889
  162SOPE    C218118   6.038   4.939  10.890 -0.0767 -0.5481  0.1935
  162SOPE    HS18119   5.971   4.978  10.969  0.0041  0.1888 -0.0921
  162SOPE   O2118120   6.040   4.797  10.874  0.1643 -0.2800 -0.5822
  162SOPE   C2118121   5.923   4.726  10.865  0.4046  0.2222 -0.1392
  162SOPE   O2218122   5.815   4.778  10.895  0.1911 -0.4464  1.0018
  162SOPE   C2218123   5.940   4.574  10.822 -0.4343 -0.1180  0.0072
  162SOPE   H2R18124   5.919   4.507  10.907 -0.2999 -0.1761 -0.0038
  162SOPE   H2S18125   6.050   4.562  10.809 -0.4399  0.6164 -0.8240
  162SOPE    C318126   5.989   5.013  10.760 -0.4752 -0.2343 -0.0149
  162SOPE    HX18127   5.982   5.120  10.788 -1.1384 -0.4863  0.8333
  162SOPE    HY18128   5.891   4.969  10.730  0.3946 -1.5046 -1.1442
  162SOPE   O3118129   6.089   4.997  10.653 -0.1012 -0.2693 -0.0959
  162SOPE   C3118130   6.165   5.109  10.624  0.5602 -0.3407  0.0967
  162SOPE   O3218131   6.145   5.219  10.660 -0.3931 -0.8166 -0.2469
  162SOPE   C3218132   6.245   5.070  10.504 -0.3351  0.5598  1.1235
  162SOPE   H2X18133   6.201   5.128  10.419 -1.6089 -0.9642  0.6900
  162SOPE   H2Y18134   6.217   4.963  10.493 -0.9379  0.5310  2.7264
  162SOPE   C2318135   5.862   4.537  10.699  0.8688  0.2272  0.4495
  162SOPE   H3R18136   5.758   4.570  10.716  1.1540 -0.0638  3.3924
  162SOPE   H3S18137   5.858   4.427  10.682  0.4025  0.1126  1.2548
  162SOPE   C2418138   5.901   4.603  10.567 -0.5169 -0.0327 -0.0747
  162SOPE   H4R18139   5.816   4.602  10.496  0.0582  1.1539 -0.8122
  162SOPE   H4S18140   5.931   4.710  10.575  0.5867 -0.2138 -1.3477
  162SOPE   C2518141   6.025   4.540  10.510  0.0214 -0.2165  0.4231
  162SOPE   H5R18142   6.110   4.567  10.577  0.4688  1.4616 -0.7303
  162SOPE   H5S18143   6.004   4.432  10.519 -3.4328  0.3665  0.6436
  162SOPE   C2618144   6.055   4.566  10.365  0.4235 -0.3210  0.6100
  162SOPE   H6R18145   6.135   4.502  10.322  0.6661  0.7077 -0.5343
  162SOPE   H6S18146   5.961   4.548  10.308 -0.8293  0.6983  2.2750
  162SOPE   C2718147   6.099   4.711  10.329  0.1976  0.1886  0.3472
  162SOPE   H7R18148   6.011   4.778  10.339 -0.8917 -1.4139  2.5407
  162SOPE   H7S18149   6.174   4.740  10.405 -0.7496  0.0889  1.3595
  162SOPE   C2818150   6.165   4.731  10.184  0.5006 -0.2001  0.4644
  162SOPE   H8R18151   6.202   4.836  10.192 -0.1266  0.0018  0.7766
  162SOPE   H8S18152   6.253   4.663  10.186  1.6487  1.2341  1.2767
  162SOPE   C2918153   6.050   4.730  10.084 -0.7517  0.3218  0.1323
  162SOPE   H9118154   5.995   4.634  10.078 -1.0320  0.3711  1.6933
  162SOPE  C21018155   6.005   4.820   9.998 -1.4429  0.4127 -0.0294
  162SOPE  H10118156   5.916   4.798   9.938 -2.8032 -1.4098  2.4509
  162SOPE  C21118157   6.068   4.951   9.974  0.7103  0.0460  0.3155
  162SOPE  H11R18158   6.164   4.967  10.028  0.8587 -0.5015  0.2164
  162SOPE  H11S18159   5.984   5.016  10.008  1.1808 -0.4198  2.5443
  162SOPE  C21218160   6.075   4.977   9.826 -0.2643 -1.1124  0.3885
  162SOPE  H12R18161   6.069   5.086   9.806  2.6046 -1.4079 -2.9268
  162SOPE  H12S18162   5.995   4.929   9.766 -0.9914  0.6773 -0.1461
  162SOPE  C21318163   6.199   4.931   9.753 -0.1327  0.2698 -0.0655
  162SOPE  H13R18164   6.201   4.820   9.752 -0.1934  0.2655 -1.2724
  162SOPE  H13S18165   6.283   4.950   9.823  1.3659 -2.5999 -0.9683
  162SOPE  C21418166   6.217   5.002   9.620 -0.2207 -0.0292  0.4883
  162SOPE  H14R18167   6.221   5.112   9.638 -1.7213  0.1538 -0.1886
  162SOPE  H14S18168   6.131   4.982   9.553  0.2883 -0.4240 -0.0566
  162SOPE  C21518169   6.350   4.971   9.548  0.6934  0.6644 -1.3255
  162SOPE  H15R18170   6.369   4.862   9.556 -2.5984  0.1053  1.0667
  162SOPE  H15S18171   6.428   5.003   9.620 -1.3124  2.5272  0.1236
  162SOPE  C21618172   6.356   5.037   9.416  0.5168 -0.5975  0.1511
  162SOPE  H16R18173   6.454   5.020   9.366  0.1142 -1.5969 -0.3341
  162SOPE  H16S18174   6.336   5.146   9.415 -0.1938 -0.7023  1.1832
  162SOPE  C21718175   6.266   4.962   9.316  0.5433  0.4571  0.3065
  162SOPE  H17R18176   6.156   4.969   9.333 -0.2122 -1.9163 -2.7289
  162SOPE  H17S18177   6.301   4.856   9.319  1.2816  0.5395 -2.3837
  162SOPE  C21818178   6.287   5.018   9.171 -0.3041  0.2334 -0.0245
  162SOPE  H18R18179   6.393   5.011   9.139  0.0521  2.0078  0.6663
  162SOPE  H18S18180   6.249   5.122   9.162  0.9920  0.6906 -0.3814
  162SOPE  H18T18181   6.224   4.960   9.100  2.1022 -0.9402 -1.3008
  162SOPE   C3318182   6.397   5.100  10.507 -0.6244 -0.2340  0.0532
  162SOPE   H3X18183   6.442   5.040  10.589 -0.4978  1.4321  1.2563
  162SOPE   H3Y18184   6.407   5.208  10.532  0.3449 -0.1904 -0.4855
  162SOPE   C3418185   6.472   5.069  10.376  0.6998  0.4835  0.3134
  162SOPE   H4X18186   6.562   5.133  10.368  0.0171  1.4055 -0.1696
  162SOPE   H4Y18187   6.400   5.088  10.294  0.8932 -0.1129 -0.0021
  162SOPE   C3518188   6.519   4.922  10.373  0.0221  0.0033  0.3192
  162SOPE   H5X18189   6.435   4.851  10.390  0.7212 -0.6268  1.1909
  162SOPE   H5Y18190   6.610   4.897  10.432  1.9212 -0.1031 -2.4579
  162SOPE   C3618191   6.558   4.899  10.224  0.2434 -0.4098 -0.0833
  162SOPE   H6X18192   6.631   4.981  10.204 -1.4705  1.0997 -0.4033
  162SOPE   H6Y18193   6.469   4.910  10.158  0.3365 -0.5302 -0.2286
  162SOPE   C3718194   6.626   4.758  10.197 -0.4969 -0.4700 -0.5461
  162SOPE   H7X18195   6.560   4.679  10.237  0.7352 -0.2133  2.1965
  162SOPE   H7Y18196   6.711   4.742  10.267 -0.5497  1.5032  0.0201
  162SOPE   C3818197   6.660   4.748  10.049 -0.4864 -0.1840 -0.1106
  162SOPE   H8X18198   6.704   4.843  10.012 -0.3954 -0.0098  0.4430
  162SOPE   H8Y18199   6.578   4.744   9.974  0.5219 -1.7004 -1.1877
  162SOPE   C3918200   6.759   4.630  10.016  0.0523 -0.3425  0.6836
  162SOPE   H9X18201   6.694   4.543  10.038 -0.3802 -0.6578 -1.6111
  162SOPE   H9Y18202   6.843   4.631  10.088 -0.3408  1.6502  1.1935
  162SOPE  C31018203   6.796   4.611   9.869 -0.4024 -0.5152  0.6111
  162SOPE  H10X18204   6.877   4.682   9.845  0.1092 -1.2648  0.0732
  162SOPE  H10Y18205   6.710   4.630   9.801  0.4926  1.9706  0.0531
  162SOPE  C31118206   6.860   4.473   9.853 -1.0273 -0.9643  0.4766
  162SOPE  H11X18207   6.787   4.400   9.893 -1.7310 -1.2016 -1.1752
  162SOPE  H11Y18208   6.957   4.459   9.906  0.3440 -0.0328 -1.6819
  162SOPE  C31218209   6.875   4.429   9.712 -0.1559  1.0331  0.6216
  162SOPE  H12X18210   6.777   4.420   9.660 -0.4513  0.0430  1.3226
  162SOPE  H12Y18211   6.910   4.324   9.721 -0.9169  0.6331 -0.8030
  162SOPE  C31318212   6.974   4.518   9.625  0.3927  0.1993  0.4796
  162SOPE  H13X18213   7.058   4.550   9.689  0.9022  2.0601 -1.0422
  162SOPE  H13Y18214   6.926   4.618   9.618 -0.7065 -0.2588  1.1015
  162SOPE  C31418215   7.016   4.460   9.487 -0.5203 -0.1061 -0.0480
  162SOPE  H14X18216   7.060   4.360   9.506 -1.5999 -0.6301 -0.2102
  162SOPE  H14Y18217   7.099   4.517   9.440 -0.8970 -0.1005 -0.7166
  162SOPE  C31518218   6.905   4.461   9.381 -0.6956 -0.7358 -0.0450
  162SOPE  H15X18219   6.870   4.567   9.381 -1.6938 -1.0515 -0.5531
  162SOPE  H15Y18220   6.818   4.398   9.412 -0.7689 -0.0552  1.2054
  162SOPE  C31618221   6.958   4.422   9.242  0.0071 -0.0851  0.3707
  162SOPE  H16X18222   6.969   4.312   9.237  1.4571  0.0967 -1.3570
  162SOPE  H16Y18223   7.057   4.473   9.237  0.0038 -0.1366 -0.2941
  162SOPE  C31718224   6.881   4.472   9.123 -0.4322  0.0860  0.4481
  162SOPE  H17X18225   6.840   4.572   9.152  0.5636  1.5044 -2.5930
  162SOPE  H17Y18226   6.802   4.402   9.090  0.8046 -1.3513  0.4502
  162SOPE  C31818227   6.970   4.488   8.996  0.1639 -0.4764 -0.7518
  162SOPE  H18X18228   7.031   4.581   9.001  0.0228 -0.3343 -1.5636
  162SOPE  H18Y18229   6.909   4.496   8.903 -1.1449  0.1030  0.1256
  162SOPE  H18Z18230   7.035   4.400   8.982 -0.0602 -0.7620 -0.0202
  163SOPE     N18231   5.588   2.540  11.367 -0.7507 -0.2433 -0.4417
  163SOPE   HN118232   5.515   2.535  11.441  0.0214  0.5772  0.3974
  163SOPE   HN218233   5.606   2.440  11.343  2.6715 -0.0787  0.9262
  163SOPE   HN318234   5.675   2.571  11.414 -0.8438 -1.2028  0.4086
  163SOPE   C1218235   5.553   2.615  11.234 -0.5017  0.1884 -0.4072
  163SOPE  H12A18236   5.517   2.718  11.257  1.8376  1.0330 -0.2921
  163SOPE  H12B18237   5.478   2.552  11.182  0.1660 -0.0744 -1.0695
  163SOPE   C1118238   5.675   2.620  11.141 -0.0429 -0.0537 -0.3323
  163SOPE  H11A18239   5.749   2.667  11.209 -1.0556  1.5719 -0.2852
  163SOPE  H11B18240   5.656   2.682  11.051  1.8667 -1.1871 -1.5927
  163SOPE     P18241   5.682   2.407  10.984  0.2111 -0.0177  0.4499
  163SOPE   O1318242   5.613   2.291  11.046 -0.0711  0.4522 -0.0975
  163SOPE   O1418243   5.783   2.382  10.882 -0.1372 -0.1207 -0.1638
  163SOPE   O1218244   5.732   2.492  11.109  0.4472 -0.3544 -0.0655
  163SOPE   O1118245   5.573   2.498  10.913 -0.7045  0.3758 -0.3226
  163SOPE    C118246   5.605   2.589  10.812 -0.0180 -1.1853 -0.4555
  163SOPE    HA18247   5.611   2.544  10.711 -0.3192 -0.6573 -0.7145
  163SOPE    HB18248   5.698   2.647  10.833 -0.1728 -0.6902 -1.1079
  163SOPE    C218249   5.493   2.696  10.800 -0.0739  0.0940 -0.4186
  163SOPE    HS18250   5.456   2.725  10.901  0.0012 -1.6423  0.1302
  163SOPE   O2118251   5.395   2.658  10.703 -0.0960  0.3273  0.2121
  163SOPE   C2118252   5.309   2.558  10.736 -0.1274 -0.3536 -0.0459
  163SOPE   O2218253   5.277   2.523  10.849  0.0182 -0.0407 -0.1609
  163SOPE   C2218254   5.237   2.501  10.603  0.2062  0.1416  0.2917
  163SOPE   H2R18255   5.186   2.588  10.555  1.5217  0.0479 -1.3891
  163SOPE   H2S18256   5.162   2.428  10.638  0.5574 -0.8345 -0.9197
  163SOPE    C318257   5.543   2.824  10.716 -0.1762  0.0939  0.0822
  163SOPE    HX18258   5.622   2.872  10.779 -0.3385 -1.1830  1.3193
  163SOPE    HY18259   5.460   2.897  10.707  0.0648  0.2761 -0.6880
  163SOPE   O3118260   5.580   2.788  10.580 -0.3349  0.0529 -0.7179
  163SOPE   C3118261   5.704   2.810  10.538  0.0353 -0.3055 -0.3119
  163SOPE   O3218262   5.784   2.880  10.592 -1.0106  0.6210  0.3320
  163SOPE   C3218263   5.723   2.737  10.409 -0.2576 -0.1031  0.3077
  163SOPE   H2X18264   5.645   2.659  10.400  0.2135 -0.5386 -0.0747
  163SOPE   H2Y18265   5.812   2.674  10.430  0.6010  1.1905  0.7066
  163SOPE   C2318266   5.328   2.447  10.491  0.1564  0.0967 -0.2573
  163SOPE   H3R18267   5.363   2.355  10.542 -2.7414  0.3224  2.5033
  163SOPE   H3S18268   5.411   2.521  10.482 -0.5368  0.8814 -0.3906
  163SOPE   C2418269   5.268   2.423  10.359  0.5906  0.3983 -0.5741
  163SOPE   H4R18270   5.195   2.340  10.375  0.0331  1.2902  1.9879
  163SOPE   H4S18271   5.209   2.509  10.321 -1.1178 -0.8156 -0.7926
  163SOPE   C2518272   5.381   2.387  10.267  0.1020 -0.1543  0.2924
  163SOPE   H5R18273   5.455   2.469  10.262 -0.4856  0.3397 -0.6311
  163SOPE   H5S18274   5.446   2.303  10.299  1.7198  0.6884 -0.6564
  163SOPE   C2618275   5.328   2.373  10.122  0.5224  0.1930 -0.4472
  163SOPE   H6R18276   5.272   2.277  10.121  0.2072  0.3112  1.5759
  163SOPE   H6S18277   5.259   2.456  10.097 -2.1764 -2.1679 -1.3411
  163SOPE   C2718278   5.436   2.357  10.015  0.1021  0.2675 -0.1742
  163SOPE   H7R18279   5.505   2.444  10.003 -1.1119  1.1274 -1.2417
  163SOPE   H7S18280   5.498   2.269  10.041 -0.3011 -0.1582 -0.6386
  163SOPE   C2818281   5.382   2.325   9.870  0.0615  0.7369 -0.4505
  163SOPE   H8R18282   5.469   2.337   9.803  0.8153 -1.9227 -0.0710
  163SOPE   H8S18283   5.346   2.220   9.879 -1.9237  1.4633  0.8835
  163SOPE   C2918284   5.268   2.413   9.820 -0.2512  0.8066  0.4482
  163SOPE   H9118285   5.257   2.513   9.865 -0.6149  0.5005  1.0567
  163SOPE  C21018286   5.178   2.378   9.732 -0.2657  0.6987  0.0965
  163SOPE  H10118287   5.108   2.459   9.706 -0.6471  0.6820  1.0324
  163SOPE  C21118288   5.161   2.243   9.665 -0.6669 -0.2142 -0.6463
  163SOPE  H11R18289   5.066   2.199   9.702 -0.5304 -1.2193 -1.4591
  163SOPE  H11S18290   5.248   2.176   9.680 -1.2353 -1.0662 -1.1003
  163SOPE  C21218291   5.145   2.255   9.513 -0.3260 -0.1652  0.4337
  163SOPE  H12R18292   5.233   2.300   9.464  0.6432 -1.0147  1.3483
  163SOPE  H12S18293   5.057   2.320   9.491 -0.3649  0.2079  1.5963
  163SOPE  C21318294   5.115   2.112   9.447  0.0682 -0.3072 -0.7432
  163SOPE  H13R18295   5.038   2.056   9.503  1.7904  0.1044  2.2333
  163SOPE  H13S18296   5.212   2.058   9.456  1.1224  1.4017 -1.2211
  163SOPE  C21418297   5.075   2.119   9.295  0.1735  0.0761  0.2875
  163SOPE  H14R18298   4.990   2.188   9.279  1.5930  2.2921  1.7298
  163SOPE  H14S18299   5.044   2.018   9.262 -0.0564  0.1994  0.1246
  163SOPE  C21518300   5.199   2.163   9.208  0.1520  0.5473 -0.1980
  163SOPE  H15R18301   5.273   2.080   9.209  0.9366  1.2402  0.7743
  163SOPE  H15S18302   5.240   2.253   9.257 -2.4584  1.0268  1.2968
  163SOPE  C21618303   5.157   2.206   9.061  0.9210 -0.3413  0.5025
  163SOPE  H16R18304   5.155   2.317   9.061  1.3632 -0.2885 -2.0650
  163SOPE  H16S18305   5.053   2.173   9.042  0.9153 -0.5176  0.8224
  163SOPE  C21718306   5.249   2.152   8.954 -0.6027 -0.2210  0.8350
  163SOPE  H17R18307   5.244   2.042   8.946 -0.7732 -0.2223  0.9438
  163SOPE  H17S18308   5.354   2.170   8.986 -0.3646  1.1049 -0.5586
  163SOPE  C21818309   5.211   2.218   8.820 -0.8417 -0.0055 -0.4698
  163SOPE  H18R18310   5.203   2.327   8.837 -1.7057 -0.3342  1.4622
  163SOPE  H18S18311   5.109   2.190   8.787 -0.2520 -1.5771 -1.0732
  163SOPE  H18T18312   5.289   2.189   8.747  0.6507  0.0718  1.0278
  163SOPE   C3318313   5.757   2.830  10.289  0.2973 -0.1954 -0.7903
  163SOPE   H3X18314   5.834   2.904  10.318 -0.5944  1.6167 -2.7627
  163SOPE   H3Y18315   5.661   2.882  10.269 -0.0623 -0.8121 -0.7072
  163SOPE   C3418316   5.816   2.767  10.161  0.1431  0.1035  0.1274
  163SOPE   H4X18317   5.774   2.667  10.140  1.6559 -0.1738 -1.8284
  163SOPE   H4Y18318   5.926   2.751  10.174  0.3749  0.0988 -1.6339
  163SOPE   C3518319   5.793   2.848  10.032  0.6544 -0.0378  0.2631
  163SOPE   H5X18320   5.842   2.948  10.037 -2.5002  1.7370 -0.9237
  163SOPE   H5Y18321   5.683   2.866  10.029  0.6018 -0.1749  1.0413
  163SOPE   C3618322   5.830   2.772   9.908 -0.3904 -0.3212 -0.0735
  163SOPE   H6X18323   5.776   2.676   9.902  0.2604 -0.7525  0.7667
  163SOPE   H6Y18324   5.939   2.749   9.915 -0.3475  0.0789  0.7645
  163SOPE   C3718325   5.801   2.851   9.778  0.3053 -0.6955  0.9511
  163SOPE   H7X18326   5.830   2.958   9.777 -2.2532  0.0489  0.4013
  163SOPE   H7Y18327   5.690   2.853   9.779  0.1479  2.2491 -2.2086
  163SOPE   C3818328   5.835   2.785   9.648  0.1358 -1.2848 -0.1375
  163SOPE   H8X18329   5.807   2.678   9.654 -1.4203 -0.9252 -0.6306
  163SOPE   H8Y18330   5.944   2.783   9.624  0.5994  3.2483  0.6754
  163SOPE   C3918331   5.759   2.848   9.532  0.5116 -0.4682  0.4461
  163SOPE   H9X18332   5.651   2.847   9.558  0.5568 -0.3217  0.6357
  163SOPE   H9Y18333   5.784   2.788   9.442  1.1267  0.7867 -0.2424
  163SOPE  C31018334   5.783   3.002   9.508  0.1248 -0.0892 -0.0761
  163SOPE  H10X18335   5.886   3.041   9.494 -0.2383  0.3654 -1.7158
  163SOPE  H10Y18336   5.735   3.035   9.603 -1.6613 -0.0115 -0.9622
  163SOPE  C31118337   5.708   3.072   9.394 -0.4031  0.1644 -0.3914
  163SOPE  H11X18338   5.683   3.178   9.418  1.7157 -0.0397  3.3764
  163SOPE  H11Y18339   5.606   3.027   9.389 -0.0848 -0.5025 -1.0979
  163SOPE  C31218340   5.768   3.068   9.253  0.0974 -0.8422 -0.2780
  163SOPE  H12X18341   5.857   3.134   9.257 -1.3560  1.4737 -3.0822
  163SOPE  H12Y18342   5.706   3.115   9.174  3.1026  1.7818 -1.2852
  163SOPE  C31318343   5.802   2.925   9.198 -0.0744 -0.4940  0.3533
  163SOPE  H13X18344   5.867   2.880   9.276  0.4554 -2.1661 -1.0075
  163SOPE  H13Y18345   5.855   2.933   9.101 -0.4884 -1.8602 -0.0049
  163SOPE  C31418346   5.689   2.829   9.184 -0.0679  0.3076 -0.8803
  163SOPE  H14X18347   5.619   2.859   9.104  0.3290 -3.4175 -2.8311
  163SOPE  H14Y18348   5.632   2.829   9.279  0.4335  1.9686 -0.5370
  163SOPE  C31518349   5.740   2.688   9.157  0.9901 -0.5222  0.7074
  163SOPE  H15X18350   5.819   2.662   9.230  0.8997  0.1486  1.0595
  163SOPE  H15Y18351   5.788   2.683   9.057  2.0921  2.5285  0.9670
  163SOPE  C31618352   5.633   2.576   9.157 -0.1565 -0.7052 -0.4167
  163SOPE  H16X18353   5.559   2.607   9.233  0.9548  1.8839 -0.3077
  163SOPE  H16Y18354   5.680   2.482   9.195  0.0893 -0.7707 -0.8690
  163SOPE  C31718355   5.555   2.550   9.026  0.9167 -0.7300  0.5602
  163SOPE  H17X18356   5.611   2.480   8.960  0.4983 -0.6510  0.1163
  163SOPE  H17Y18357   5.531   2.644   8.971 -0.0769 -1.9566 -1.2250
  163SOPE  C31818358   5.428   2.477   9.057 -0.1412  0.3018  0.3319
  163SOPE  H18X18359   5.349   2.527   9.118 -2.0298  0.1806 -1.8893
  163SOPE  H18Y18360   5.450   2.385   9.116 -2.5199 -0.3726  0.2694
  163SOPE  H18Z18361   5.368   2.446   8.969  0.2525  2.3600 -0.7151
  164SOPE     N18362   2.635   0.419  10.659  0.0182 -0.0908 -0.7212
  164SOPE   HN118363   2.569   0.371  10.594 -0.8827 -1.2894  0.9980
  164SOPE   HN218364   2.671   0.503  10.610 -2.6349  1.1988 -0.6355
  164SOPE   HN318365   2.708   0.360  10.705 -0.9024  0.1358  1.1529
  164SOPE   C1218366   2.552   0.472  10.768  0.3831  0.0588  0.0515
  164SOPE  H12A18367   2.476   0.544  10.733 -0.4370 -0.5684  0.5213
  164SOPE  H12B18368   2.614   0.538  10.833 -0.7858  1.1103  0.1210
  164SOPE   C1118369   2.504   0.357  10.862 -0.4977 -1.0304  0.8729
  164SOPE  H11A18370   2.458   0.409  10.949  2.9130  1.2507  1.5436
  164SOPE  H11B18371   2.593   0.311  10.912  0.8657 -0.5380 -0.9912
  164SOPE     P18372   2.354   0.141  10.851  0.0057 -0.2360  0.2457
  164SOPE   O1318373   2.213   0.177  10.885 -0.8088  0.2083 -0.4087
  164SOPE   O1418374   2.440   0.086  10.962  0.4130  0.4334  0.1672
  164SOPE   O1218375   2.421   0.267  10.787  1.0140  0.0021  0.2020
  164SOPE   O1118376   2.355   0.033  10.738  0.0487 -0.5379  0.1297
  164SOPE    C118377   2.450   0.023  10.635 -0.6328  0.2237 -0.0563
  164SOPE    HA18378   2.507  -0.072  10.639  0.6216  0.9650  0.4525
  164SOPE    HB18379   2.523   0.105  10.655 -1.5566  0.5360  2.3307
  164SOPE    C218380   2.382   0.034  10.496 -0.3172 -0.1489 -0.6355
  164SOPE    HS18381   2.460   0.029  10.417 -0.5213  0.6993 -0.8959
  164SOPE   O2118382   2.308   0.151  10.484  0.0006  0.0948  0.0384
  164SOPE   C2118383   2.369   0.267  10.483 -0.7199 -0.4689 -1.2366
  164SOPE   O2218384   2.491   0.290  10.476  0.4169 -0.2479  0.0859
  164SOPE   C2218385   2.273   0.377  10.514  0.3129  0.0950  0.7770
  164SOPE   H2R18386   2.334   0.459  10.559 -1.1361  1.3159  0.6074
  164SOPE   H2S18387   2.196   0.328  10.578 -1.1167  0.3151 -0.7203
  164SOPE    C318388   2.305  -0.098  10.467  0.6121  0.9478  0.5330
  164SOPE    HX18389   2.214  -0.111  10.529 -1.5495  0.9885 -2.4048
  164SOPE    HY18390   2.361  -0.192  10.489  2.0295  1.9314  1.2271
  164SOPE   O3118391   2.273  -0.093  10.325  0.4614  0.2565 -0.3900
  164SOPE   C3118392   2.153  -0.040  10.296  0.3117 -0.3075  0.4087
  164SOPE   O3218393   2.075   0.005  10.377  0.5842 -0.7425  0.4219
  164SOPE   C3218394   2.139  -0.035  10.144  0.0122  0.2176 -0.2839
  164SOPE   H2X18395   2.037  -0.000  10.117 -0.4913 -0.6023  0.5116
  164SOPE   H2Y18396   2.155  -0.136  10.101 -1.7311  0.0116 -0.5067
  164SOPE   C2318397   2.197   0.424  10.382 -0.2060 -0.1385 -0.1402
  164SOPE   H3R18398   2.125   0.504  10.412  1.2474  0.9031  0.7560
  164SOPE   H3S18399   2.154   0.337  10.329  2.1612 -1.6712  0.3121
  164SOPE   C2418400   2.281   0.500  10.280  0.0552 -0.3746  0.5670
  164SOPE   H4R18401   2.325   0.591  10.326 -0.9346 -0.3244  1.4408
  164SOPE   H4S18402   2.362   0.434  10.241 -1.1446 -1.6274  0.1407
  164SOPE   C2518403   2.191   0.548  10.168  0.3089  0.0790  0.4178
  164SOPE   H5R18404   2.158   0.466  10.102  1.6595  0.9162 -1.3606
  164SOPE   H5S18405   2.102   0.590  10.220  1.1155  0.4079  1.5808
  164SOPE   C2618406   2.247   0.654  10.071  0.0569  0.0087  0.0335
  164SOPE   H6R18407   2.254   0.749  10.128 -0.8099 -0.0052  0.1722
  164SOPE   H6S18408   2.347   0.617  10.039 -0.4881 -0.2682 -1.4398
  164SOPE   C2718409   2.179   0.667   9.931  0.0051 -0.2284 -0.5159
  164SOPE   H7R18410   2.182   0.568   9.881 -3.5934 -1.9258  2.1510
  164SOPE   H7S18411   2.070   0.692   9.929 -0.1648 -0.6853  1.0880
  164SOPE   C2818412   2.245   0.764   9.828  0.2507  0.1955  0.1938
  164SOPE   H8R18413   2.250   0.868   9.867  0.0552  1.2428 -2.3372
  164SOPE   H8S18414   2.350   0.728   9.822 -0.0741 -1.2891  2.3761
  164SOPE   C2918415   2.170   0.781   9.699  0.6967  0.3155  0.0885
  164SOPE   H9118416   2.061   0.788   9.714  0.4561 -1.0981 -0.7221
  164SOPE  C21018417   2.217   0.758   9.574 -0.3313  0.4168 -0.7520
  164SOPE  H10118418   2.156   0.775   9.485  0.4939 -1.0600 -1.6237
  164SOPE  C21118419   2.360   0.712   9.546  0.2640  0.3075 -1.0140
  164SOPE  H11R18420   2.417   0.695   9.640 -1.3808 -0.8937 -0.1833
  164SOPE  H11S18421   2.413   0.781   9.478  1.3198  0.3148 -0.2148
  164SOPE  C21218422   2.371   0.570   9.480 -0.1034 -0.6957 -0.4435
  164SOPE  H12R18423   2.310   0.499   9.540 -1.8327  0.1601 -1.1357
  164SOPE  H12S18424   2.480   0.552   9.473 -0.1099 -1.4279  0.9221
  164SOPE  C21318425   2.312   0.567   9.338 -0.6498 -0.0046  1.2669
  164SOPE  H13R18426   2.203   0.585   9.350 -0.8028 -0.9817  1.3660
  164SOPE  H13S18427   2.330   0.468   9.292 -1.7757 -0.1659  1.1461
  164SOPE  C21418428   2.366   0.674   9.228  0.5757  0.3941  0.0009
  164SOPE  H14R18429   2.318   0.767   9.263 -4.9507 -2.2351  0.5253
  164SOPE  H14S18430   2.329   0.655   9.125  0.8574  0.8505 -0.1876
  164SOPE  C21518431   2.517   0.679   9.223  0.2754  0.3890 -0.0219
  164SOPE  H15R18432   2.559   0.590   9.172 -1.7030 -0.3557 -0.3998
  164SOPE  H15S18433   2.561   0.696   9.324 -0.6218 -1.0856  0.6334
  164SOPE  C21618434   2.559   0.807   9.147 -1.0678  0.1672  0.2622
  164SOPE  H16R18435   2.527   0.903   9.193 -0.1543  0.9214 -0.6160
  164SOPE  H16S18436   2.519   0.792   9.045  2.5341 -3.1024 -0.9175
  164SOPE  C21718437   2.708   0.819   9.124  0.2715  0.2340 -0.4350
  164SOPE  H17R18438   2.748   0.725   9.080 -0.9551 -1.0420  1.0422
  164SOPE  H17S18439   2.762   0.846   9.217  0.6140 -1.5941 -0.0617
  164SOPE  C21818440   2.750   0.931   9.021  0.4777  0.0657  0.4335
  164SOPE  H18R18441   2.709   0.905   8.922  1.0236 -1.5454  0.6091
  164SOPE  H18S18442   2.860   0.916   9.021  0.4418 -0.2497 -1.0127
  164SOPE  H18T18443   2.724   1.031   9.062 -2.2463  0.2185 -1.4233
  164SOPE   C3318444   2.237   0.064  10.073 -0.4540 -0.4020 -0.0515
  164SOPE   H3X18445   2.338   0.019  10.085  2.2570  4.8749 -0.0616
  164SOPE   H3Y18446   2.228   0.160  10.128 -2.0781 -0.6578  0.1852
  164SOPE   C3418447   2.199   0.068   9.930  1.0114  0.4361 -0.9001
  164SOPE   H4X18448   2.109   0.134   9.923 -0.1939 -1.2013 -1.4382
  164SOPE   H4Y18449   2.167  -0.032   9.892  0.8924  0.2156 -0.2233
  164SOPE   C3518450   2.325   0.124   9.855 -0.0832  0.4008  0.1436
  164SOPE   H5X18451   2.416   0.063   9.872 -1.4972 -1.8208  0.2738
  164SOPE   H5Y18452   2.340   0.228   9.892 -1.4622  0.8399 -0.4493
  164SOPE   C3618453   2.310   0.152   9.702 -0.0978  0.4196  0.1817
  164SOPE   H6X18454   2.416   0.169   9.672  0.6442 -3.0229  0.4627
  164SOPE   H6Y18455   2.251   0.246   9.699 -2.1837 -0.8356 -2.2748
  164SOPE   C3718456   2.256   0.033   9.625 -0.0793 -0.4148 -0.0431
  164SOPE   H7X18457   2.148   0.054   9.608  0.2090 -0.1772 -1.7888
  164SOPE   H7Y18458   2.284  -0.058   9.681  2.0427 -0.1947 -0.6654
  164SOPE   C3818459   2.325   0.004   9.491  0.6753 -0.8160 -0.1816
  164SOPE   H8X18460   2.275  -0.083   9.444  0.5821 -0.3640 -0.9316
  164SOPE   H8Y18461   2.433  -0.017   9.506  0.8261  1.2400  2.4939
  164SOPE   C3918462   2.320   0.109   9.386  0.1216  0.5930 -0.5258
  164SOPE   H9X18463   2.370   0.199   9.429 -0.6024  1.0627 -0.6580
  164SOPE   H9Y18464   2.214   0.132   9.362  0.3653  0.6027 -1.6257
  164SOPE  C31018465   2.389   0.059   9.250 -0.8504 -0.6381 -0.9608
  164SOPE  H10X18466   2.493   0.023   9.267 -0.7108 -0.2166 -0.9176
  164SOPE  H10Y18467   2.402   0.154   9.194 -2.4811  0.5200  0.5259
  164SOPE  C31118468   2.307  -0.039   9.165 -0.4600 -0.1437 -1.0557
  164SOPE  H11X18469   2.199  -0.017   9.157 -0.3698  0.5914 -0.3379
  164SOPE  H11Y18470   2.314  -0.133   9.225 -0.8574  0.3810 -0.1788
  164SOPE  C31218471   2.368  -0.061   9.025  0.3161  0.3209 -0.6340
  164SOPE  H12X18472   2.473  -0.098   9.022  1.0058  2.0313  0.7154
  164SOPE  H12Y18473   2.370   0.032   8.963 -1.8075  0.2932 -0.8249
  164SOPE  C31318474   2.290  -0.162   8.932  0.5329  0.3097 -0.8270
  164SOPE  H13X18475   2.188  -0.130   8.900  0.8270  1.9340 -0.2367
  164SOPE  H13Y18476   2.285  -0.257   8.990 -0.4796  1.3080  0.7990
  164SOPE  C31418477   2.372  -0.182   8.805  0.2428  0.4698 -0.3707
  164SOPE  H14X18478   2.467  -0.232   8.834 -0.8821 -1.3283  0.3860
  164SOPE  H14Y18479   2.395  -0.088   8.750  0.6379  0.7646  0.2938
  164SOPE  C31518480   2.303  -0.286   8.711 -0.2480 -0.3854  0.3772
  164SOPE  H15X18481   2.220  -0.235   8.658  1.2442 -1.1636 -2.9855
  164SOPE  H15Y18482   2.289  -0.374   8.776  0.0683  1.1322  2.5920
  164SOPE  C31618483   2.388  -0.343   8.595  0.0150 -0.7484  0.8341
  164SOPE  H16X18484   2.416  -0.269   8.517 -0.6493 -0.9158  0.4270
  164SOPE  H16Y18485   2.315  -0.402   8.536  0.3050  0.3374 -0.6768
  164SOPE  C31718486   2.512  -0.419   8.634 -0.5531  0.3532  0.4497
  164SOPE  H17X18487   2.486  -0.503   8.703  0.3421 -0.8350 -0.6223
  164SOPE  H17Y18488   2.588  -0.355   8.683  2.6535 -1.4827 -1.7745
  164SOPE  C31818489   2.586  -0.477   8.512 -0.2897 -0.4679 -0.3213
  164SOPE  H18X18490   2.603  -0.406   8.429  2.3365  1.5669  1.7625
  164SOPE  H18Y18491   2.530  -0.566   8.476  1.0026 -1.9921  1.2472
  164SOPE  H18Z18492   2.686  -0.505   8.550 -0.1103 -0.3909 -0.7339
  165SOPE     N18493   0.595   1.727  10.987 -0.0256  0.3796 -0.2604
  165SOPE   HN118494   0.618   1.828  10.985  2.1702 -0.0648  0.3423
  165SOPE   HN218495   0.511   1.712  10.927 -0.5017 -0.6148  0.6179
  165SOPE   HN318496   0.566   1.682  11.076  2.5563 -0.7334  0.0981
  165SOPE   C1218497   0.710   1.654  10.921 -0.0044 -0.5936  0.5486
  165SOPE  H12A18498   0.666   1.572  10.861  1.0505  1.3270 -3.2108
  165SOPE  H12B18499   0.784   1.619  10.995  1.9400  0.1238 -0.9508
  165SOPE   C1118500   0.773   1.745  10.813 -0.5155  0.3100 -0.2224
  165SOPE  H11A18501   0.701   1.758  10.729 -0.7213  2.5026  0.2180
  165SOPE  H11B18502   0.867   1.697  10.779 -0.0049 -0.9278  2.6344
  165SOPE     P18503   0.938   1.912  10.932  0.2909  0.0750  0.1937
  165SOPE   O1318504   0.940   1.833  11.060  0.4813 -0.2246  0.6365
  165SOPE   O1418505   0.959   2.061  10.938  0.1644 -0.3539  0.1868
  165SOPE   O1218506   0.797   1.879  10.864  0.0371  0.4339 -0.1414
  165SOPE   O1118507   1.040   1.857  10.826 -0.2554  0.0992  0.2983
  165SOPE    C118508   1.088   1.932  10.714  0.6935 -1.0158  0.4267
  165SOPE    HA18509   1.162   2.011  10.738  1.3484 -1.2617 -0.7102
  165SOPE    HB18510   1.003   1.987  10.667  1.5953  0.6852  0.6899
  165SOPE    C218511   1.155   1.845  10.604  0.0686  0.6707 -0.7109
  165SOPE    HS18512   1.237   1.790  10.654 -0.6873  2.0124  2.2126
  165SOPE   O2118513   1.193   1.929  10.494  0.0276 -0.1110 -0.1619
  165SOPE   C2118514   1.309   1.991  10.514 -0.2995  0.1723 -0.0895
  165SOPE   O2218515   1.381   1.964  10.612  0.2281  0.1524 -0.2698
  165SOPE   C2218516   1.344   2.097  10.414  0.0937 -0.2886 -0.1484
  165SOPE   H2R18517   1.408   2.175  10.460 -0.4335  0.3172 -0.4261
  165SOPE   H2S18518   1.246   2.145  10.392  0.9578  1.5563 -0.1485
  165SOPE    C318519   1.060   1.734  10.544 -0.2969 -0.6423  0.2084
  165SOPE    HX18520   0.956   1.772  10.548  0.8954  2.8362  1.7854
  165SOPE    HY18521   1.065   1.650  10.616  1.0321  0.6466  1.6812
  165SOPE   O3118522   1.108   1.691  10.406  0.0894  0.1873 -0.6602
  165SOPE   C3118523   1.004   1.686  10.318 -0.2020 -0.0864  0.0019
  165SOPE   O3218524   0.887   1.695  10.351 -0.1404 -0.1335  1.1435
  165SOPE   C3218525   1.060   1.668  10.175  0.3403  0.2781 -0.6615
  165SOPE   H2X18526   1.131   1.582  10.177  0.0242  0.0171 -0.5082
  165SOPE   H2Y18527   1.123   1.756  10.153  0.4318  0.3287 -0.2051
  165SOPE   C2318528   1.398   2.039  10.284 -0.2358 -0.6431  0.8495
  165SOPE   H3R18529   1.331   1.957  10.250 -2.0978  1.6975 -1.4941
  165SOPE   H3S18530   1.497   1.991  10.301 -1.1740 -3.7792 -1.6230
  165SOPE   C2418531   1.415   2.144  10.169 -0.1662  0.3256 -0.6596
  165SOPE   H4R18532   1.322   2.204  10.162 -0.0382  0.7677  1.0075
  165SOPE   H4S18533   1.495   2.207  10.211 -0.8915  1.0945 -0.4163
  165SOPE   C2518534   1.440   2.073  10.028 -0.4474  0.1959  0.1124
  165SOPE   H5R18535   1.518   1.994  10.042 -0.7428 -0.3241 -1.0914
  165SOPE   H5S18536   1.344   2.025  10.002  1.0039 -2.4681 -0.7506
  165SOPE   C2618537   1.478   2.175   9.922 -0.6711 -0.0967  0.4962
  165SOPE   H6R18538   1.391   2.243   9.910 -2.6212 -2.5260 -0.1835
  165SOPE   H6S18539   1.569   2.228   9.957  0.5318 -1.2662 -0.7069
  165SOPE   C2718540   1.500   2.105   9.782 -0.6201  0.0112 -0.5798
  165SOPE   H7R18541   1.594   2.045   9.774  0.0085  0.7254  0.9603
  165SOPE   H7S18542   1.416   2.037   9.757 -0.5898 -0.1103 -0.3487
  165SOPE   C2818543   1.508   2.220   9.670  0.5466  0.0219  1.2032
  165SOPE   H8R18544   1.425   2.292   9.686  1.0858  1.0021 -0.1884
  165SOPE   H8S18545   1.597   2.278   9.699 -0.0327  1.3384  0.4510
  165SOPE   C2918546   1.516   2.161   9.534 -0.2635 -0.5640  0.1565
  165SOPE   H9118547   1.612   2.113   9.511 -0.6226 -0.6422 -1.2719
  165SOPE  C21018548   1.420   2.168   9.441 -0.7808 -0.5014 -0.3366
  165SOPE  H10118549   1.442   2.116   9.347 -0.2519 -1.8776  0.5287
  165SOPE  C21118550   1.298   2.250   9.453 -0.1785 -0.6060  0.7470
  165SOPE  H11R18551   1.319   2.355   9.426  2.2316 -1.2686 -0.2578
  165SOPE  H11S18552   1.258   2.241   9.557 -1.7460 -0.9381  0.1469
  165SOPE  C21218553   1.175   2.207   9.376  0.3629  0.4318 -0.1024
  165SOPE  H12R18554   1.084   2.265   9.404 -0.9147 -2.0885  1.2805
  165SOPE  H12S18555   1.145   2.103   9.400 -1.8961  0.9085 -0.6602
  165SOPE  C21318556   1.196   2.234   9.225  0.1528 -0.0017 -0.1661
  165SOPE  H13R18557   1.301   2.210   9.198  0.4782  1.2921 -0.1499
  165SOPE  H13S18558   1.184   2.345   9.217  2.0461  0.9437  5.4251
  165SOPE  C21418559   1.093   2.158   9.140 -0.4463 -0.1876  0.2581
  165SOPE  H14R18560   0.990   2.200   9.146 -0.1852  0.5484 -0.2441
  165SOPE  H14S18561   1.092   2.050   9.165  2.5063 -0.5874 -1.0018
  165SOPE  C21518562   1.134   2.169   8.994  0.1148  0.1946 -0.3858
  165SOPE  H15R18563   1.058   2.117   8.932  0.6764  0.7456 -1.5541
  165SOPE  H15S18564   1.231   2.120   8.974  1.5025  1.5820  2.4176
  165SOPE  C21618565   1.135   2.312   8.937 -1.4241 -0.2760 -0.1068
  165SOPE  H16R18566   1.189   2.392   8.993  0.9952 -0.4775 -1.9762
  165SOPE  H16S18567   1.031   2.352   8.937 -1.7652 -1.1428 -0.4501
  165SOPE  C21718568   1.191   2.320   8.788  0.5168 -0.6377  0.3174
  165SOPE  H17R18569   1.295   2.281   8.791 -0.2676 -2.8486  0.6126
  165SOPE  H17S18570   1.177   2.429   8.774 -0.4935 -0.9971 -2.0284
  165SOPE  C21818571   1.111   2.245   8.680  0.0157  0.4592 -0.3280
  165SOPE  H18R18572   1.132   2.136   8.683  0.9434  0.4492 -3.4746
  165SOPE  H18S18573   1.148   2.277   8.580  0.7390  1.2733  0.1900
  165SOPE  H18T18574   1.000   2.256   8.681 -0.0370 -0.0352 -0.2345
  165SOPE   C3318575   0.957   1.640  10.064  0.0311  0.2918  0.6172
  165SOPE   H3X18576   0.901   1.736  10.072  0.0679  0.4791 -1.1497
  165SOPE   H3Y18577   0.890   1.556  10.092  0.3546 -0.6474 -1.2798
  165SOPE   C3418578   1.015   1.616   9.929  0.4224 -0.1948  0.2398
  165SOPE   H4X18579   1.076   1.524   9.937  0.4538 -0.0961  1.3300
  165SOPE   H4Y18580   1.090   1.690   9.894  0.9017 -0.9532 -0.3593
  165SOPE   C3518581   0.920   1.603   9.808 -0.3038 -0.2937  0.1525
  165SOPE   H5X18582   0.859   1.695   9.804 -0.6300 -0.5045  0.1852
  165SOPE   H5Y18583   0.853   1.514   9.819  0.9448 -1.1711  0.9477
  165SOPE   C3618584   0.993   1.576   9.664  0.0180  0.4051 -0.2742
  165SOPE   H6X18585   1.033   1.473   9.675 -2.2327 -0.3776  1.2202
  165SOPE   H6Y18586   1.075   1.650   9.651 -0.7577  1.2291 -0.5684
  165SOPE   C3718587   0.897   1.588   9.545 -0.1095 -0.0757  0.2581
  165SOPE   H7X18588   0.852   1.689   9.556  0.2928  0.0894  0.4241
  165SOPE   H7Y18589   0.817   1.512   9.550 -0.8565  0.5334 -1.5682
  165SOPE   C3818590   0.979   1.580   9.413 -0.1968  0.8744 -0.5557
  165SOPE   H8X18591   1.066   1.514   9.435 -0.9913 -0.2742 -0.7789
  165SOPE   H8Y18592   1.019   1.680   9.386  0.5019  0.0128 -2.9255
  165SOPE   C3918593   0.902   1.516   9.297  0.1488 -0.3740 -0.0612
  165SOPE   H9X18594   0.797   1.551   9.306  0.7339  1.1108  1.5224
  165SOPE   H9Y18595   0.909   1.407   9.317  0.5712 -0.1074  1.3320
  165SOPE  C31018596   0.952   1.552   9.154 -0.2673  0.8172  0.5747
  165SOPE  H10X18597   1.058   1.524   9.174 -0.7083 -0.3486  1.3361
  165SOPE  H10Y18598   0.936   1.660   9.131 -0.3052  0.5988 -0.4365
  165SOPE  C31118599   0.891   1.475   9.047  0.1259 -0.5592  0.3059
  165SOPE  H11X18600   0.781   1.487   9.031  0.0291  0.1969  1.4775
  165SOPE  H11Y18601   0.904   1.365   9.056 -0.9638 -0.6517  0.9342
  165SOPE  C31218602   0.953   1.503   8.910  0.5899 -0.3518 -0.2747
  165SOPE  H12X18603   1.059   1.470   8.915  0.0370 -2.1068  1.7204
  165SOPE  H12Y18604   0.949   1.612   8.893  0.5782 -0.7257 -3.1378
  165SOPE  C31318605   0.875   1.448   8.785  0.0557 -0.0886  0.0060
  165SOPE  H13X18606   0.929   1.496   8.700  1.2502 -1.3461  0.0119
  165SOPE  H13Y18607   0.770   1.483   8.777  0.2906  0.5260 -0.5336
  165SOPE  C31418608   0.889   1.294   8.755 -0.2136  0.5737  0.2209
  165SOPE  H14X18609   0.986   1.255   8.791 -0.2460 -0.8296 -1.0838
  165SOPE  H14Y18610   0.888   1.276   8.645  1.1194 -2.3449  0.6100
  165SOPE  C31518611   0.773   1.206   8.812 -0.5500 -0.6262 -0.3643
  165SOPE  H15X18612   0.676   1.259   8.798 -0.3402 -0.6905 -2.3838
  165SOPE  H15Y18613   0.798   1.195   8.919  4.3718  0.1043 -1.1722
  165SOPE  C31618614   0.756   1.069   8.744 -0.1325  0.2980  0.7384
  165SOPE  H16X18615   0.691   1.004   8.805 -1.8359  0.2585 -1.0108
  165SOPE  H16Y18616   0.853   1.017   8.730 -0.4164  0.1098 -0.7829
  165SOPE  C31718617   0.688   1.079   8.606  0.3491  0.2739 -0.3036
  165SOPE  H17X18618   0.765   1.122   8.538  0.5035  0.4778 -0.0026
  165SOPE  H17Y18619   0.608   1.154   8.620 -1.6959 -1.2491 -2.8120
  165SOPE  C31818620   0.649   0.943   8.550  0.4978 -0.1527 -0.0037
  165SOPE  H18X18621   0.577   0.887   8.615 -0.2939  1.0193  0.1737
  165SOPE  H18Y18622   0.740   0.881   8.544  1.6193  0.9137  3.4124
  165SOPE  H18Z18623   0.609   0.957   8.447  0.1069  0.2025  0.1896
  166SOPE     N18624   4.587   0.761  11.231 -0.1421  0.7316  0.2130
  166SOPE   HN118625   4.680   0.778  11.273  0.3368  1.5180 -1.1112
  166SOPE   HN218626   4.585   0.662  11.197  0.1457  0.7145  0.2484
  166SOPE   HN318627   4.596   0.824  11.149  0.7231  0.1512 -0.1399
  166SOPE   C1218628   4.478   0.804  11.326  0.6403  0.2929 -0.0413
  166SOPE  H12A18629   4.504   0.905  11.365  2.5975  0.3949 -1.4487
  166SOPE  H12B18630   4.480   0.734  11.412  2.2516  0.4195  0.0548
  166SOPE   C1118631   4.339   0.797  11.258 -0.5404  0.1737  1.0109
  166SOPE  H11A18632   4.255   0.809  11.330 -0.5802  1.9716  0.7050
  166SOPE  H11B18633   4.330   0.694  11.218  3.3010  0.0883  0.0167
  166SOPE     P18634   4.204   0.874  11.057  0.4939 -0.2591 -0.1689
  166SOPE   O1318635   4.159   1.004  11.000 -0.4683  0.0031  0.3625
  166SOPE   O1418636   4.104   0.788  11.129  0.0497  0.0290  0.2166
  166SOPE   O1218637   4.329   0.894  11.152  0.1558 -0.7342 -0.2252
  166SOPE   O1118638   4.261   0.791  10.939 -0.0459  0.1021  0.0485
  166SOPE    C118639   4.380   0.826  10.876 -0.4409 -1.3300 -0.5868
  166SOPE    HA18640   4.404   0.742  10.808  0.2219 -2.1187  0.5965
  166SOPE    HB18641   4.461   0.839  10.951 -0.2303  2.1214 -1.2339
  166SOPE    C218642   4.377   0.952  10.784  0.6147  0.3625  1.2338
  166SOPE    HS18643   4.391   1.043  10.847 -0.5487 -0.1177  2.2386
  166SOPE   O2118644   4.249   0.941  10.707 -0.4930  0.2788  0.8024
  166SOPE   C2118645   4.185   1.064  10.705  0.3102  1.3623  0.6701
  166SOPE   O2218646   4.230   1.169  10.749  0.5370  0.2802  0.2937
  166SOPE   C2218647   4.070   1.054  10.598  0.1264  0.3790 -0.2146
  166SOPE   H2R18648   4.034   1.158  10.584 -1.3398  0.2196  1.9176
  166SOPE   H2S18649   3.996   0.984  10.641  1.1624  0.1011  1.2201
  166SOPE    C318650   4.491   0.945  10.684 -0.2175  0.4037  0.8404
  166SOPE    HX18651   4.505   0.845  10.639  1.3697  1.6315 -1.6576
  166SOPE    HY18652   4.576   0.956  10.755 -1.6624  2.3531  2.3781
  166SOPE   O3118653   4.486   1.052  10.593  0.0074 -0.1895 -0.1501
  166SOPE   C3118654   4.565   1.161  10.622 -0.3080 -0.4916  0.3411
  166SOPE   O3218655   4.651   1.162  10.709  0.1043  0.2623 -0.2020
  166SOPE   C3218656   4.512   1.289  10.556  0.1282 -0.1554 -0.2896
  166SOPE   H2X18657   4.458   1.344  10.636  0.6276  0.9048 -0.6578
  166SOPE   H2Y18658   4.452   1.259  10.468 -0.5264 -0.4516  0.2570
  166SOPE   C2318659   4.120   1.000  10.466 -0.2709 -0.2535  0.0158
  166SOPE   H3R18660   4.136   0.893  10.493 -1.6439  0.2332  3.1315
  166SOPE   H3S18661   4.210   1.056  10.433  0.9915 -1.0007  1.9764
  166SOPE   C2418662   4.013   1.010  10.356  0.2486  0.7711 -0.2415
  166SOPE   H4R18663   3.968   1.108  10.329 -1.2548  0.5574  1.3535
  166SOPE   H4S18664   4.072   0.987  10.264  0.8772  0.5437  0.2118
  166SOPE   C2518665   3.896   0.914  10.372  0.5351  0.4042  0.1167
  166SOPE   H5R18666   3.932   0.809  10.379  0.8854  0.2225 -2.9498
  166SOPE   H5S18667   3.847   0.953  10.464  0.1607  2.1239 -0.7745
  166SOPE   C2618668   3.804   0.929  10.250 -0.9883 -0.2040 -0.0732
  166SOPE   H6R18669   3.774   1.035  10.239  0.7772  0.5202  1.4812
  166SOPE   H6S18670   3.844   0.890  10.154  1.4017 -2.0117  1.5217
  166SOPE   C2718671   3.675   0.854  10.283 -0.3447 -0.5449 -0.4554
  166SOPE   H7R18672   3.712   0.750  10.291  3.0680  0.6221  0.7812
  166SOPE   H7S18673   3.640   0.894  10.381 -0.0402 -1.8302  0.1905
  166SOPE   C2818674   3.568   0.872  10.171  0.3108 -0.0768 -0.0172
  166SOPE   H8R18675   3.607   0.835  10.074 -2.9372 -0.9563 -1.1052
  166SOPE   H8S18676   3.494   0.791  10.189  1.0461 -0.6829  0.3488
  166SOPE   C2918677   3.492   1.004  10.176  0.2885  0.5400  0.5291
  166SOPE   H9118678   3.434   1.029  10.267  2.2955  0.6007  1.8630
  166SOPE  C21018679   3.485   1.083  10.073  0.2428  0.5859  0.0269
  166SOPE  H10118680   3.439   1.183  10.080  1.1541  1.0915 -0.8193
  166SOPE  C21118681   3.547   1.076   9.932  0.0423 -0.4287 -0.0695
  166SOPE  H11R18682   3.468   1.105   9.859 -0.0676 -0.9659 -0.1691
  166SOPE  H11S18683   3.567   0.972   9.898 -0.5869 -0.6676  0.2556
  166SOPE  C21218684   3.680   1.154   9.903  0.4058 -0.4835  0.5535
  166SOPE  H12R18685   3.766   1.083   9.908 -0.2123 -1.4340 -1.4048
  166SOPE  H12S18686   3.688   1.236   9.977  0.8163 -0.1879  0.1876
  166SOPE  C21318687   3.681   1.233   9.772  0.2968  0.1800 -0.0900
  166SOPE  H13R18688   3.763   1.307   9.763  2.8706 -2.6090 -1.2536
  166SOPE  H13S18689   3.582   1.283   9.771 -0.7295 -1.7695 -0.8327
  166SOPE  C21418690   3.668   1.143   9.649  0.2580 -0.0199 -0.4119
  166SOPE  H14R18691   3.580   1.076   9.661 -0.7412  1.2495 -0.4365
  166SOPE  H14S18692   3.756   1.077   9.639  0.6754  0.8043 -3.1888
  166SOPE  C21518693   3.664   1.220   9.523  0.0678 -0.8650 -0.1337
  166SOPE  H15R18694   3.755   1.284   9.523 -1.0822  1.2153  4.4437
  166SOPE  H15S18695   3.573   1.284   9.529  1.4674  1.5092 -2.0624
  166SOPE  C21618696   3.657   1.128   9.399  0.3628  0.1968  0.2964
  166SOPE  H16R18697   3.578   1.052   9.418 -0.7327  1.1461 -0.3117
  166SOPE  H16S18698   3.752   1.072   9.385 -0.0740 -0.0640 -2.0120
  166SOPE  C21718699   3.621   1.212   9.279  0.5494 -0.0350 -0.0548
  166SOPE  H17R18700   3.611   1.321   9.299 -0.0453 -0.0023 -0.4931
  166SOPE  H17S18701   3.528   1.177   9.229  0.1790 -0.1719  0.6994
  166SOPE  C21818702   3.730   1.222   9.179  0.3140  0.2254  0.5788
  166SOPE  H18R18703   3.758   1.122   9.140  1.3665  1.0072 -0.7599
  166SOPE  H18S18704   3.825   1.261   9.220  0.2752 -0.1870  1.0738
  166SOPE  H18T18705   3.696   1.291   9.099 -1.0498 -0.1578  0.7907
  166SOPE   C3318706   4.619   1.382  10.539  0.3736 -0.3401  1.0600
  166SOPE   H3X18707   4.684   1.392  10.628  2.2153  3.0836 -0.4591
  166SOPE   H3Y18708   4.575   1.481  10.513 -0.7097 -1.6137 -2.5867
  166SOPE   C3418709   4.707   1.338  10.421  0.3424  0.5897  0.6776
  166SOPE   H4X18710   4.767   1.248  10.446  0.8525  1.4110  2.5871
  166SOPE   H4Y18711   4.786   1.416  10.412  1.0310 -0.2244 -0.6830
  166SOPE   C3518712   4.627   1.322  10.288  0.6145  0.4136 -0.3488
  166SOPE   H5X18713   4.575   1.418  10.268  0.8502  0.6704  0.2413
  166SOPE   H5Y18714   4.558   1.235  10.280 -1.8755  1.9651  2.2959
  166SOPE   C3618715   4.724   1.298  10.172  0.0030 -0.3797 -0.0844
  166SOPE   H6X18716   4.792   1.211  10.184  2.2966  1.3579  0.2744
  166SOPE   H6Y18717   4.792   1.386  10.174 -0.5578  0.0548  0.0777
  166SOPE   C3718718   4.658   1.295  10.035 -0.2154  0.1368  0.0596
  166SOPE   H7X18719   4.740   1.314   9.963 -1.6601 -2.1553 -2.4231
  166SOPE   H7Y18720   4.585   1.374  10.008  0.9186  0.6470 -1.6655
  166SOPE   C3818721   4.602   1.158   9.986 -0.4946 -0.7422  0.6190
  166SOPE   H8X18722   4.512   1.131  10.045 -0.6937  1.5998  1.4957
  166SOPE   H8Y18723   4.687   1.087   9.997  0.8405  0.4783 -1.2011
  166SOPE   C3918724   4.558   1.149   9.844 -0.2120  0.1228  0.2848
  166SOPE   H9X18725   4.458   1.191   9.825 -0.6986 -0.4047  1.5688
  166SOPE   H9Y18726   4.548   1.039   9.832  2.1374 -0.3139  1.6062
  166SOPE  C31018727   4.655   1.207   9.745 -0.4735  0.2055  0.1642
  166SOPE  H10X18728   4.754   1.163   9.768 -0.1530 -0.5883 -2.3906
  166SOPE  H10Y18729   4.644   1.314   9.770  1.1273  0.1585  1.1413
  166SOPE  C31118730   4.610   1.175   9.599  0.0465  0.6140  0.0103
  166SOPE  H11X18731   4.500   1.187   9.596 -0.0272 -0.1538 -0.9923
  166SOPE  H11Y18732   4.628   1.067   9.576 -0.2374  0.3169  1.1144
  166SOPE  C31218733   4.673   1.257   9.484 -0.3635  0.5631 -0.2773
  166SOPE  H12X18734   4.784   1.263   9.485 -0.3993  1.3470  0.0648
  166SOPE  H12Y18735   4.624   1.357   9.484 -3.6284 -0.9244 -0.0259
  166SOPE  C31318736   4.645   1.205   9.343 -0.3040 -0.1193  0.4140
  166SOPE  H13X18737   4.539   1.220   9.315 -0.5146 -0.2177  1.1402
  166SOPE  H13Y18738   4.670   1.098   9.327 -2.1832 -0.4032 -0.9361
  166SOPE  C31418739   4.728   1.288   9.248  0.3168 -0.0407  0.1824
  166SOPE  H14X18740   4.838   1.284   9.260  0.1572  0.7568  2.1313
  166SOPE  H14Y18741   4.690   1.391   9.261 -2.8329 -1.0721  0.0282
  166SOPE  C31518742   4.706   1.245   9.106 -0.5477  0.9164 -0.3311
  166SOPE  H15X18743   4.599   1.226   9.083 -0.1891 -0.1563 -1.1982
  166SOPE  H15Y18744   4.761   1.149   9.095 -1.7457  0.3709 -1.9235
  166SOPE  C31618745   4.747   1.357   9.007  0.0966  0.5169  0.1255
  166SOPE  H16X18746   4.843   1.400   9.040  0.2112 -0.4775  1.1868
  166SOPE  H16Y18747   4.670   1.437   9.019 -1.1252 -0.6350  0.2667
  166SOPE  C31718748   4.770   1.306   8.864 -0.2288 -0.6345 -0.2541
  166SOPE  H17X18749   4.869   1.256   8.869 -0.9407 -2.5971 -3.1357
  166SOPE  H17Y18750   4.783   1.394   8.798  0.7600 -0.2988  0.3662
  166SOPE  C31818751   4.657   1.213   8.816 -0.0126 -0.0293 -0.4241
  166SOPE  H18X18752   4.685   1.174   8.716  0.1382  1.4785 -0.9888
  166SOPE  H18Y18753   4.568   1.278   8.810  1.2171  1.7627  0.0136
  166SOPE  H18Z18754   4.629   1.139   8.894 -1.9022  0.4073 -0.6404
  167SOPE     N18755   1.001   0.684   6.525  0.5096  0.5059 -0.4956
  167SOPE   HN118756   1.027   0.758   6.456 -0.2246  2.0528  0.8011
  167SOPE   HN218757   0.897   0.683   6.527  0.5210 -0.4985  0.4608
  167SOPE   HN318758   1.033   0.716   6.619 -0.7052 -3.2558  1.3761
  167SOPE   C1218759   1.052   0.557   6.481  0.2084 -0.0020 -0.7327
  167SOPE  H12A18760   1.001   0.487   6.550 -1.2282 -1.3793 -3.0409
  167SOPE  H12B18761   1.162   0.552   6.490  0.3266  2.5474 -0.1067
  167SOPE   C1118762   1.017   0.515   6.339 -0.4365 -0.7068  0.1661
  167SOPE  H11A18763   0.907   0.499   6.334 -0.5970  0.4689 -0.5311
  167SOPE  H11B18764   1.067   0.421   6.307  0.3095 -0.4648  0.5915
  167SOPE     P18765   1.183   0.628   6.171  0.3330  0.1943 -0.4522
  167SOPE   O1318766   1.180   0.766   6.117 -0.5184 -0.0468 -0.3405
  167SOPE   O1418767   1.189   0.515   6.081  0.5034 -0.4909 -0.3340
  167SOPE   O1218768   1.053   0.627   6.254  0.5750  0.3326  0.3547
  167SOPE   O1118769   1.286   0.610   6.291  0.1558 -0.2688  0.3307
  167SOPE    C118770   1.371   0.720   6.327 -0.4068 -0.0554 -0.5249
  167SOPE    HA18771   1.317   0.817   6.335 -1.4695 -0.5543 -1.4914
  167SOPE    HB18772   1.437   0.749   6.243 -0.5889  2.5442  0.1344
  167SOPE    C218773   1.465   0.682   6.439  0.5032  0.9988 -0.2696
  167SOPE    HS18774   1.532   0.601   6.405 -0.0624  1.0476 -1.5370
  167SOPE   O2118775   1.392   0.651   6.558 -0.3241 -0.4960 -0.4604
  167SOPE   C2118776   1.451   0.576   6.650  0.2782  0.6998  0.8274
  167SOPE   O2218777   1.548   0.505   6.628  0.5893  0.3174  0.3962
  167SOPE   C2218778   1.384   0.584   6.787  0.7772  0.0373  0.8096
  167SOPE   H2R18779   1.276   0.564   6.767  1.0833 -1.5865  0.6736
  167SOPE   H2S18780   1.396   0.685   6.832 -0.7143  0.4837  0.2743
  167SOPE    C318781   1.557   0.810   6.462  0.1076  0.6744  0.4246
  167SOPE    HX18782   1.485   0.892   6.484 -1.3004  0.2499 -2.2009
  167SOPE    HY18783   1.606   0.848   6.369  0.2020  2.6993  1.2484
  167SOPE   O3118784   1.655   0.788   6.565 -0.6003 -0.6052  0.1367
  167SOPE   C3118785   1.756   0.720   6.539  0.2901  0.0398  0.3273
  167SOPE   O3218786   1.776   0.659   6.437  0.0192  0.4362 -0.2788
  167SOPE   C3218787   1.849   0.719   6.661  0.5245  0.0116  0.0071
  167SOPE   H2X18788   1.798   0.778   6.739 -0.4239 -0.5274 -0.1885
  167SOPE   H2Y18789   1.943   0.771   6.634 -0.6917  2.7928  0.8244
  167SOPE   C2318790   1.430   0.489   6.896 -0.6109  0.5175  0.2325
  167SOPE   H3R18791   1.526   0.521   6.941 -1.4886  2.9907  0.4846
  167SOPE   H3S18792   1.442   0.389   6.850 -2.6635  0.4235 -0.2090
  167SOPE   C2418793   1.324   0.466   7.009 -0.4171  0.1702  0.2796
  167SOPE   H4R18794   1.306   0.564   7.059 -0.6905  0.1416  0.2375
  167SOPE   H4S18795   1.228   0.459   6.954  1.3554 -1.2192 -2.9525
  167SOPE   C2518796   1.350   0.365   7.126  1.0342  0.1058  0.1188
  167SOPE   H5R18797   1.347   0.265   7.079  2.8808 -0.4491  1.0775
  167SOPE   H5S18798   1.450   0.379   7.174  0.0067  1.1017  2.1291
  167SOPE   C2618799   1.248   0.384   7.233  0.1088 -0.4031 -0.9473
  167SOPE   H6R18800   1.148   0.408   7.191  0.1303  2.9772  0.5961
  167SOPE   H6S18801   1.261   0.292   7.295  4.5671  0.2961 -0.5792
  167SOPE   C2718802   1.287   0.496   7.337  0.2160  0.0346 -0.1808
  167SOPE   H7R18803   1.398   0.494   7.341  0.2360 -2.7298 -0.0426
  167SOPE   H7S18804   1.246   0.590   7.294 -1.9050 -1.1864 -0.9607
  167SOPE   C2818805   1.232   0.484   7.476 -1.0613  0.5109  0.3631
  167SOPE   H8R18806   1.279   0.397   7.526 -2.2623  0.0138  0.6606
  167SOPE   H8S18807   1.259   0.573   7.537  1.0886 -0.1721  0.4972
  167SOPE   C2918808   1.087   0.470   7.484 -0.1232 -0.1693  0.0943
  167SOPE   H9118809   1.026   0.561   7.490 -0.7037 -0.4409 -1.3733
  167SOPE  C21018810   1.024   0.361   7.522 -0.2448  0.1186 -0.5312
  167SOPE  H10118811   0.918   0.382   7.542 -0.0429  2.1003 -1.3128
  167SOPE  C21118812   1.073   0.223   7.565  0.7077  0.1203 -0.4148
  167SOPE  H11R18813   1.182   0.213   7.543  0.7078  0.1763 -0.4383
  167SOPE  H11S18814   1.017   0.152   7.501 -0.2812  0.8055 -0.3247
  167SOPE  C21218815   1.075   0.194   7.715  0.6094 -0.3458  0.0648
  167SOPE  H12R18816   1.159   0.240   7.771  0.7030  0.8304 -0.9685
  167SOPE  H12S18817   1.077   0.084   7.726  1.3143 -0.3310  0.1605
  167SOPE  C21318818   0.940   0.221   7.777  0.9162 -0.4124  0.1330
  167SOPE  H13R18819   0.864   0.164   7.719 -0.5190 -0.6504  2.1286
  167SOPE  H13S18820   0.902   0.325   7.782 -0.5448 -0.9549  0.9185
  167SOPE  C21418821   0.933   0.168   7.921  0.1197 -0.1094  0.4553
  167SOPE  H14R18822   0.990   0.249   7.972  2.0708 -0.4100 -1.0946
  167SOPE  H14S18823   0.974   0.065   7.928 -1.0148 -0.5228  1.3663
  167SOPE  C21518824   0.786   0.160   7.977  0.9737  0.6910  0.2799
  167SOPE  H15R18825   0.733   0.250   7.940  0.4193 -0.1765 -1.1822
  167SOPE  H15S18826   0.773   0.169   8.087 -1.7447  0.3722  0.0692
  167SOPE  C21618827   0.714   0.023   7.930 -0.2709  0.0644 -0.1320
  167SOPE  H16R18828   0.792  -0.056   7.933 -1.9043 -1.6070  2.4212
  167SOPE  H16S18829   0.683   0.031   7.823  2.0765  0.9211 -0.8047
  167SOPE  C21718830   0.592  -0.010   8.016  0.0280  0.1976  0.5840
  167SOPE  H17R18831   0.513   0.067   8.003 -1.0030 -0.7009  1.2744
  167SOPE  H17S18832   0.618  -0.013   8.124 -2.5504 -0.6709  1.2469
  167SOPE  C21818833   0.524  -0.139   7.988  1.2532  0.4892 -0.8194
  167SOPE  H18R18834   0.480  -0.136   7.886 -1.3021 -1.5477  0.1025
  167SOPE  H18S18835   0.448  -0.153   8.068  0.4564  2.7359 -1.1055
  167SOPE  H18T18836   0.599  -0.221   7.979 -0.6463 -1.7021  1.8470
  167SOPE   C3318837   1.876   0.578   6.722  0.4572 -0.5772 -0.1134
  167SOPE   H3X18838   1.964   0.538   6.668  1.6674 -1.3834  2.3518
  167SOPE   H3Y18839   1.791   0.516   6.685  1.0285 -1.1627 -0.4691
  167SOPE   C3418840   1.892   0.578   6.874 -0.2015  0.3388  1.1719
  167SOPE   H4X18841   1.835   0.666   6.911 -0.0443  1.4727 -1.1327
  167SOPE   H4Y18842   2.000   0.592   6.899 -0.0224  0.5661  0.3053
  167SOPE   C3518843   1.843   0.437   6.936  0.1296 -0.2765 -0.0293
  167SOPE   H5X18844   1.927   0.368   6.912 -0.3174 -1.4827  1.6916
  167SOPE   H5Y18845   1.751   0.405   6.883  0.7058  1.3795 -2.1751
  167SOPE   C3618846   1.806   0.449   7.084 -0.2161 -0.0011 -0.4902
  167SOPE   H6X18847   1.740   0.536   7.107 -0.2712 -0.4455  1.2375
  167SOPE   H6Y18848   1.892   0.490   7.142 -0.3088 -1.1731  0.5306
  167SOPE   C3718849   1.776   0.310   7.152 -0.9504  0.3196  0.4350
  167SOPE   H7X18850   1.870   0.254   7.134 -1.7121 -0.3626 -1.7297
  167SOPE   H7Y18851   1.706   0.255   7.085 -0.1504  1.3686 -1.3270
  167SOPE   C3818852   1.738   0.318   7.302 -0.1189 -0.6824 -0.3091
  167SOPE   H8X18853   1.695   0.220   7.332 -2.5363 -0.0497 -1.4417
  167SOPE   H8Y18854   1.658   0.395   7.306  1.5342  1.0526  0.7555
  167SOPE   C3918855   1.861   0.357   7.389 -0.9981  0.3741  0.8044
  167SOPE   H9X18856   1.918   0.438   7.338 -0.7434  0.5190  1.3095
  167SOPE   H9Y18857   1.928   0.269   7.389 -3.4804 -1.6392  1.6052
  167SOPE  C31018858   1.834   0.380   7.539 -0.2030 -0.5165 -0.6150
  167SOPE  H10X18859   1.747   0.312   7.551  1.2190 -2.2833  0.0565
  167SOPE  H10Y18860   1.805   0.487   7.553 -1.2932 -0.9155  0.3485
  167SOPE  C31118861   1.947   0.332   7.631 -0.5717  0.1622 -0.6705
  167SOPE  H11X18862   2.038   0.396   7.620  0.8037 -1.5706  0.2030
  167SOPE  H11Y18863   1.989   0.232   7.609 -0.3614 -0.0450  0.6421
  167SOPE  C31218864   1.895   0.327   7.772  0.7414  0.0741  0.3344
  167SOPE  H12X18865   1.827   0.240   7.783  0.1981  0.4039 -0.3797
  167SOPE  H12Y18866   1.826   0.411   7.795  0.1938  0.1221 -1.3403
  167SOPE  C31318867   2.011   0.327   7.876 -0.4855 -0.1360 -0.0820
  167SOPE  H13X18868   2.075   0.417   7.867 -1.5673  0.6587 -0.0744
  167SOPE  H13Y18869   2.069   0.235   7.855 -0.0559 -0.1129  0.9618
  167SOPE  C31418870   1.964   0.321   8.021  0.1819  0.4934 -0.8742
  167SOPE  H14X18871   1.920   0.223   8.046 -0.7641  1.8229  3.5622
  167SOPE  H14Y18872   1.882   0.396   8.021  1.1205  1.6096  1.4074
  167SOPE  C31518873   2.074   0.358   8.122  0.1310  0.5154 -0.1740
  167SOPE  H15X18874   2.122   0.451   8.083  0.4805  0.5394  0.2908
  167SOPE  H15Y18875   2.160   0.289   8.109  1.1607  2.0062 -1.6336
  167SOPE  C31618876   2.050   0.364   8.274  0.7010 -0.0812  0.8195
  167SOPE  H16X18877   2.141   0.399   8.327  0.4672 -1.2748  2.0709
  167SOPE  H16Y18878   2.025   0.259   8.302 -1.6706 -0.2364 -1.5049
  167SOPE  C31718879   1.937   0.463   8.310  0.9249  0.2984  0.4812
  167SOPE  H17X18880   1.841   0.420   8.274  1.7758 -0.0801 -1.4851
  167SOPE  H17Y18881   1.953   0.566   8.271  1.6184  0.4679  1.1856
  167SOPE  C31818882   1.916   0.482   8.466 -0.4729 -0.7720 -0.8076
  167SOPE  H18X18883   1.897   0.387   8.522  0.0964  0.6225  1.8898
  167SOPE  H18Y18884   1.829   0.544   8.494  3.2140  4.1828  0.9701
  167SOPE  H18Z18885   2.001   0.530   8.517 -0.1701 -2.7175  0.6237
  168SOPE     N18886   0.434   2.384   6.283 -0.3543  0.5117  0.8098
  168SOPE   HN118887   0.515   2.402   6.220 -0.6814 -0.1664  0.1734
  168SOPE   HN218888   0.439   2.289   6.325 -2.2712  0.2508  0.5607
  168SOPE   HN318889   0.353   2.380   6.217  0.0616 -1.1531  0.3399
  168SOPE   C1218890   0.424   2.491   6.388  0.0486  0.6741 -0.4342
  168SOPE  H12A18891   0.402   2.590   6.343 -2.5520 -0.0608 -0.9579
  168SOPE  H12B18892   0.522   2.499   6.441 -1.7173 -0.4678  3.3476
  168SOPE   C1118893   0.306   2.461   6.481  0.3910 -0.5683 -0.3171
  168SOPE  H11A18894   0.307   2.521   6.575  1.3618 -2.0607  0.6773
  168SOPE  H11B18895   0.318   2.355   6.511 -0.4737 -0.4477  0.5205
  168SOPE     P18896   0.063   2.376   6.460 -0.4814  0.1448  0.0957
  168SOPE   O1318897   0.077   2.255   6.382 -0.6286 -0.1433  0.1106
  168SOPE   O1418898  -0.070   2.432   6.457  0.0840 -0.7360 -0.1527
  168SOPE   O1218899   0.183   2.480   6.419  0.0783 -0.0521 -0.1903
  168SOPE   O1118900   0.098   2.339   6.606 -0.0466  0.2828 -0.3372
  168SOPE    C118901   0.079   2.427   6.725 -0.0218  0.2334  0.3252
  168SOPE    HA18902   0.115   2.532   6.712 -0.4283  0.6785  2.4485
  168SOPE    HB18903   0.144   2.387   6.806  1.0826  1.6713  0.2046
  168SOPE    C218904  -0.063   2.440   6.776 -0.1525 -0.6496  0.0788
  168SOPE    HS18905  -0.127   2.462   6.688  0.2043 -2.5483 -0.7076
  168SOPE   O2118906  -0.073   2.530   6.885  0.8406 -0.1745  0.5186
  168SOPE   C2118907  -0.105   2.656   6.847 -0.3977  0.2822  0.3112
  168SOPE   O2218908  -0.103   2.697   6.732  0.2085  0.3471 -0.0469
  168SOPE   C2218909  -0.122   2.752   6.958 -0.0625  0.3972 -1.0750
  168SOPE   H2R18910  -0.222   2.799   6.948 -0.0949 -0.1448 -4.0689
  168SOPE   H2S18911  -0.066   2.844   6.932 -1.5456  1.4046 -0.7828
  168SOPE    C318912  -0.127   2.302   6.814 -0.5046 -0.1595 -0.0751
  168SOPE    HX18913  -0.137   2.238   6.724  0.0232  1.9442 -1.7309
  168SOPE    HY18914  -0.233   2.318   6.845 -0.5670 -0.7565  0.0332
  168SOPE   O3118915  -0.057   2.236   6.918 -0.4053 -0.5504 -0.2279
  168SOPE   C3118916  -0.066   2.106   6.933 -0.5866  0.7270  0.0302
  168SOPE   O3218917  -0.120   2.027   6.856  0.5164  0.1924 -0.1425
  168SOPE   C3218918   0.029   2.068   7.042  0.6998  0.0524 -1.4273
  168SOPE   H2X18919  -0.015   2.112   7.134  0.3122  2.3805 -2.6496
  168SOPE   H2Y18920   0.121   2.128   7.029 -0.1062  0.9432 -3.5923
  168SOPE   C2318921  -0.111   2.694   7.101 -0.3128 -0.0629  0.1961
  168SOPE   H3R18922  -0.073   2.782   7.157 -1.9019  1.7515 -1.4332
  168SOPE   H3S18923  -0.048   2.603   7.107  0.5743  0.5222 -0.0027
  168SOPE   C2418924  -0.246   2.663   7.163  0.0343 -0.2344 -0.0279
  168SOPE   H4R18925  -0.307   2.754   7.143 -0.6377 -0.3451  1.4018
  168SOPE   H4S18926  -0.289   2.577   7.107  2.6635 -1.3796 -0.4455
  168SOPE   C2518927  -0.237   2.630   7.309  0.2491 -0.3582  0.5631
  168SOPE   H5R18928  -0.168   2.543   7.312 -1.5883 -1.9027 -0.0985
  168SOPE   H5S18929  -0.180   2.711   7.360  3.7123 -1.4760 -1.1446
  168SOPE   C2618930  -0.379   2.617   7.368 -0.7913 -0.4147 -0.8527
  168SOPE   H6R18931  -0.429   2.715   7.353  0.6475  0.4977  0.1024
  168SOPE   H6S18932  -0.443   2.540   7.319 -1.4532 -2.5356  2.9519
  168SOPE   C2718933  -0.378   2.579   7.518  0.0543  0.3670  1.1895
  168SOPE   H7R18934  -0.319   2.485   7.533  1.2387  0.3531 -2.5102
  168SOPE   H7S18935  -0.332   2.667   7.567 -0.3778  1.7869 -0.8700
  168SOPE   C2818936  -0.515   2.571   7.580  0.0041 -0.3252  0.0334
  168SOPE   H8R18937  -0.520   2.573   7.691  0.7450 -0.1576  0.0686
  168SOPE   H8S18938  -0.573   2.652   7.531  0.0053 -1.9096 -2.8178
  168SOPE   C2918939  -0.586   2.448   7.524 -0.2182 -0.5819 -0.4556
  168SOPE   H9118940  -0.620   2.450   7.420 -0.4625 -0.0837 -0.3679
  168SOPE  C21018941  -0.607   2.335   7.600 -0.1735 -0.6217 -0.4944
  168SOPE  H10118942  -0.642   2.244   7.550  2.0964 -0.6990 -2.0927
  168SOPE  C21118943  -0.561   2.313   7.740 -0.3514 -0.4658  0.2632
  168SOPE  H11R18944  -0.461   2.361   7.749  0.0302 -1.0523 -0.6623
  168SOPE  H11S18945  -0.541   2.205   7.760  3.0759  0.2333  1.3205
  168SOPE  C21218946  -0.654   2.351   7.861  0.4333 -0.4013 -0.5385
  168SOPE  H12R18947  -0.733   2.273   7.864  0.8172 -0.7831 -0.1818
  168SOPE  H12S18948  -0.700   2.450   7.840 -0.3460 -0.4776  0.7270
  168SOPE  C21318949  -0.588   2.365   7.997 -0.8536 -0.4367 -0.1994
  168SOPE  H13R18950  -0.536   2.275   8.036  1.7342  1.7034  1.6456
  168SOPE  H13S18951  -0.670   2.389   8.067 -1.1151 -1.5180 -0.1154
  168SOPE  C21418952  -0.499   2.490   8.022  1.0996 -0.2286  0.0697
  168SOPE  H14R18953  -0.560   2.581   8.041 -1.0161 -1.6515  0.4397
  168SOPE  H14S18954  -0.450   2.502   7.923  0.5302  2.3035  0.0180
  168SOPE  C21518955  -0.388   2.483   8.127  0.6231  0.1197 -0.2327
  168SOPE  H15R18956  -0.313   2.564   8.115  1.8587 -0.8880  0.4288
  168SOPE  H15S18957  -0.335   2.386   8.114  2.9494  1.3843 -0.7833
  168SOPE  C21618958  -0.435   2.490   8.270  0.1906  0.3195 -0.4621
  168SOPE  H16R18959  -0.354   2.448   8.335 -0.5073  3.7166  3.0194
  168SOPE  H16S18960  -0.515   2.416   8.288  0.9159 -0.1692  0.9389
  168SOPE  C21718961  -0.472   2.635   8.315 -0.7597  0.0488  0.4945
  168SOPE  H17R18962  -0.575   2.657   8.279 -1.2129  1.2553  2.3751
  168SOPE  H17S18963  -0.403   2.697   8.255 -0.4143 -0.1566  0.6746
  168SOPE  C21818964  -0.456   2.656   8.464 -0.1632  0.0725  0.5224
  168SOPE  H18R18965  -0.355   2.634   8.503  0.2311 -2.1293 -1.4950
  168SOPE  H18S18966  -0.532   2.595   8.518 -0.9585 -0.2212 -0.8623
  168SOPE  H18T18967  -0.476   2.762   8.491  0.1356  0.3535 -0.3109
  168SOPE   C3318968   0.051   1.916   7.060 -0.3486 -0.1603  0.2379
  168SOPE   H3X18969   0.097   1.870   6.970  0.7729 -0.8456  1.1349
  168SOPE   H3Y18970  -0.047   1.864   7.065 -0.2663 -0.8004 -2.7348
  168SOPE   C3418971   0.145   1.873   7.182  0.4585  0.2211  0.9515
  168SOPE   H4X18972   0.251   1.903   7.169  1.0394 -1.1648  2.1831
  168SOPE   H4Y18973   0.142   1.762   7.190 -0.7838  0.2097  0.5153
  168SOPE   C3518974   0.100   1.926   7.321 -0.3257 -0.6915  0.4339
  168SOPE   H5X18975   0.017   1.868   7.367 -0.0672 -0.7408  0.8491
  168SOPE   H5Y18976   0.071   2.033   7.329  1.6755 -0.0660  0.1191
  168SOPE   C3618977   0.216   1.918   7.421  0.1077 -0.2384 -0.7865
  168SOPE   H6X18978   0.277   2.010   7.412 -0.8231  0.6311  1.2737
  168SOPE   H6Y18979   0.279   1.829   7.396  0.6338  0.1762 -0.9807
  168SOPE   C3718980   0.170   1.907   7.565 -0.2166  0.7219  0.3461
  168SOPE   H7X18981   0.122   1.812   7.597  0.7604  0.5037  1.2424
  168SOPE   H7Y18982   0.101   1.993   7.580 -1.2263  0.0704 -0.4531
  168SOPE   C3818983   0.285   1.919   7.659 -0.0801 -0.0405 -0.7969
  168SOPE   H8X18984   0.324   2.021   7.638  1.1250 -0.0534  1.1058
  168SOPE   H8Y18985   0.371   1.851   7.640  1.5164  1.3509  0.9407
  168SOPE   C3918986   0.247   1.918   7.807  0.6328 -0.5051  0.0566
  168SOPE   H9X18987   0.211   1.820   7.845 -2.2553  0.7145  0.7128
  168SOPE   H9Y18988   0.160   1.986   7.820 -1.6737 -3.0816 -0.9517
  168SOPE  C31018989   0.362   1.984   7.886  0.1865 -0.7887 -0.3363
  168SOPE  H10X18990   0.371   2.091   7.856  2.2191 -0.6671  0.5016
  168SOPE  H10Y18991   0.458   1.931   7.868  0.4276 -0.8870  1.1002
  168SOPE  C31118992   0.324   1.987   8.032  0.2832 -0.5256 -0.5044
  168SOPE  H11X18993   0.313   1.885   8.074 -0.8360  0.3025  1.3557
  168SOPE  H11Y18994   0.225   2.032   8.055 -0.0141 -1.3354 -0.1654
  168SOPE  C31218995   0.430   2.057   8.130 -0.2705 -0.7131  0.3451
  168SOPE  H12X18996   0.395   2.055   8.236 -1.4426 -3.6585  0.0236
  168SOPE  H12Y18997   0.444   2.159   8.090  0.2217 -0.8064  0.2740
  168SOPE  C31318998   0.570   1.987   8.138  0.1942  0.4440  0.5622
  168SOPE  H13X18999   0.620   2.005   8.041 -1.0919  1.6161  0.0819
  168SOPE  H13Y19000   0.563   1.876   8.138  1.1396  0.2819 -2.8043
  168SOPE  C31419001   0.639   2.035   8.258  0.1401  0.2916 -0.5505
  168SOPE  H14X19002   0.573   1.997   8.340  0.2608  0.4501 -0.3788
  168SOPE  H14Y19003   0.626   2.145   8.254 -1.3124  0.1512 -0.3771
  168SOPE  C31519004   0.777   1.976   8.266  0.0572  0.2196 -0.1673
  168SOPE  H15X19005   0.803   1.931   8.168 -0.8136  1.0369 -0.7993
  168SOPE  H15Y19006   0.780   1.896   8.343  2.9640 -1.4013 -1.7859
  168SOPE  C31619007   0.877   2.086   8.299  0.7416  0.5689 -0.2893
  168SOPE  H16X19008   0.870   2.107   8.408 -0.7194  0.4454 -0.3313
  168SOPE  H16Y19009   0.865   2.176   8.234 -0.0409 -0.7977 -2.1097
  168SOPE  C31719010   1.017   2.033   8.280  0.2244 -0.0499  0.1405
  168SOPE  H17X19011   0.998   1.924   8.274 -0.6443  0.1865 -2.2864
  168SOPE  H17Y19012   1.076   2.081   8.362 -1.0915  0.7743  0.6435
  168SOPE  C31819013   1.063   2.076   8.142  0.6277  0.1108  0.3292
  168SOPE  H18X19014   1.162   2.036   8.111  0.4083 -0.4452  0.3367
  168SOPE  H18Y19015   1.089   2.185   8.139  3.0794 -0.3745  1.1617
  168SOPE  H18Z19016   0.976   2.050   8.079  0.7996 -0.2037  0.2194
  169SOPE     N19017   1.928   4.227   6.355 -0.0739  0.1432 -0.8650
  169SOPE   HN119018   2.011   4.199   6.411  0.3379  2.3757 -0.2535
  169SOPE   HN219019   1.847   4.249   6.416  1.1668  0.5696  0.6795
  169SOPE   HN319020   1.900   4.162   6.279  0.7780 -0.2484 -0.8586
  169SOPE   C1219021   1.988   4.351   6.288 -0.0524  0.1129 -0.3919
  169SOPE  H12A19022   1.909   4.427   6.277  0.1617  0.2240 -1.1797
  169SOPE  H12B19023   2.038   4.322   6.193  0.7401 -0.8416  0.2904
  169SOPE   C1119024   2.086   4.408   6.392  0.4937 -0.4152 -0.2111
  169SOPE  H11A19025   2.041   4.421   6.493 -0.3216  0.8588 -0.7091
  169SOPE  H11B19026   2.118   4.507   6.353  0.3320 -1.3751 -3.0008
  169SOPE     P19027   2.246   4.246   6.521  0.4103 -0.3009  0.1114
  169SOPE   O1319028   2.382   4.189   6.510  0.2449 -0.2271 -0.0095
  169SOPE   O1419029   2.137   4.147   6.524 -0.3802  0.3424 -0.1004
  169SOPE   O1219030   2.211   4.341   6.401  0.0858 -0.1683 -0.1737
  169SOPE   O1119031   2.239   4.351   6.640  0.0126  0.6598 -0.2005
  169SOPE    C119032   2.352   4.422   6.682 -0.0007 -0.7842  0.3202
  169SOPE    HA19033   2.328   4.530   6.694 -2.0804 -1.4362  2.9542
  169SOPE    HB19034   2.434   4.408   6.608  0.3033 -1.1702  0.7283
  169SOPE    C219035   2.416   4.382   6.819 -0.2929  0.1212 -0.5120
  169SOPE    HS19036   2.419   4.271   6.824 -3.4341 -0.0462  0.1110
  169SOPE   O2119037   2.335   4.443   6.923 -0.0148  0.0311 -0.8943
  169SOPE   C2119038   2.250   4.350   6.979 -0.7176  0.7866  0.5736
  169SOPE   O2219039   2.250   4.231   6.946 -0.0928 -0.0662  0.3941
  169SOPE   C2219040   2.148   4.415   7.077  0.0454 -0.9266  0.1275
  169SOPE   H2R19041   2.060   4.453   7.022  0.3419 -1.8650 -1.0592
  169SOPE   H2S19042   2.203   4.503   7.116  1.7394 -1.1269 -1.6255
  169SOPE    C319043   2.563   4.438   6.827  0.0352 -0.6473  0.7228
  169SOPE    HX19044   2.562   4.549   6.827  0.9937 -0.6230  1.5100
  169SOPE    HY19045   2.612   4.424   6.728  1.2198  1.5489  0.9351
  169SOPE   O3119046   2.639   4.376   6.932 -0.4468  0.0108 -0.0140
  169SOPE   C3119047   2.724   4.281   6.897  0.6781 -0.5655  0.0784
  169SOPE   O3219048   2.724   4.223   6.790  0.2780 -0.2712  0.2428
  169SOPE   C3219049   2.823   4.264   7.005  0.3259 -0.7618  0.3334
  169SOPE   H2X19050   2.872   4.363   7.017  1.6049 -0.9851 -2.4255
  169SOPE   H2Y19051   2.908   4.203   6.967  1.4984  2.5498 -2.8312
  169SOPE   C2319052   2.110   4.309   7.182  0.1667  0.7457 -0.0804
  169SOPE   H3R19053   2.086   4.207   7.145 -0.8770  0.9536 -0.0071
  169SOPE   H3S19054   2.015   4.343   7.229 -0.6396  1.2453 -1.9539
  169SOPE   C2419055   2.216   4.311   7.302 -1.1265  0.4141  0.4391
  169SOPE   H4R19056   2.312   4.267   7.268 -0.7681  0.1497  1.7356
  169SOPE   H4S19057   2.255   4.413   7.323 -0.1277  0.3688 -0.9818
  169SOPE   C2519058   2.177   4.226   7.422  0.4689 -0.0396 -0.1742
  169SOPE   H5R19059   2.084   4.276   7.458  0.5230  1.0342 -1.4336
  169SOPE   H5S19060   2.145   4.122   7.402 -1.5085  0.0946  1.8751
  169SOPE   C2619061   2.297   4.229   7.518 -0.1649  0.0580  0.5869
  169SOPE   H6R19062   2.389   4.224   7.456 -1.7768  0.4594 -1.9526
  169SOPE   H6S19063   2.303   4.323   7.578  1.0812  1.0287 -0.9690
  169SOPE   C2719064   2.296   4.112   7.620 -0.5532 -0.5702 -0.9453
  169SOPE   H7R19065   2.197   4.096   7.670  1.3582  1.7262  4.3077
  169SOPE   H7S19066   2.328   4.020   7.567 -0.1135 -2.0458  1.6822
  169SOPE   C2819067   2.393   4.145   7.736  0.0198 -0.1089  0.5462
  169SOPE   H8R19068   2.483   4.193   7.691  0.0323  0.3692  1.0622
  169SOPE   H8S19069   2.343   4.210   7.812 -1.5298 -1.1749  0.4759
  169SOPE   C2919070   2.424   4.014   7.810  0.4601 -0.1552 -0.5791
  169SOPE   H9119071   2.502   3.944   7.777  0.2807  0.5995 -2.7910
  169SOPE  C21019072   2.361   3.988   7.928  0.1949  0.6150 -0.1644
  169SOPE  H10119073   2.396   3.902   7.987  0.9590 -0.0487 -1.5189
  169SOPE  C21119074   2.258   4.064   8.007 -0.7566 -0.1838  0.2806
  169SOPE  H11R19075   2.187   3.986   8.042 -0.7162 -0.8683 -1.0969
  169SOPE  H11S19076   2.209   4.138   7.940 -1.2046 -1.2502 -0.6011
  169SOPE  C21219077   2.307   4.132   8.136 -0.3939 -0.2474  1.1221
  169SOPE  H12R19078   2.392   4.200   8.112 -2.4405  2.0576  0.0263
  169SOPE  H12S19079   2.352   4.050   8.195 -0.8155 -1.5035 -0.2279
  169SOPE  C21319080   2.197   4.205   8.200  0.4626 -0.6208  0.1323
  169SOPE  H13R19081   2.125   4.231   8.119 -2.7567  1.1563  3.2499
  169SOPE  H13S19082   2.220   4.301   8.252  1.9085 -0.3262 -0.9915
  169SOPE  C21419083   2.110   4.110   8.290 -0.1089 -0.4032 -0.2816
  169SOPE  H14R19084   2.172   4.074   8.374  0.3249  0.7273 -0.0963
  169SOPE  H14S19085   2.080   4.020   8.231  0.4698 -0.2389 -0.8427
  169SOPE  C21519086   1.979   4.168   8.340 -0.8503 -0.4624  0.0893
  169SOPE  H15R19087   2.007   4.258   8.399  0.0909 -0.0435 -0.9519
  169SOPE  H15S19088   1.934   4.096   8.411  1.9560 -2.1373  0.3186
  169SOPE  C21619089   1.885   4.212   8.229 -0.5298 -0.3481  0.0427
  169SOPE  H16R19090   1.871   4.117   8.174  0.6942  0.0388 -0.9919
  169SOPE  H16S19091   1.933   4.282   8.157  0.0350 -0.2579  0.4958
  169SOPE  C21719092   1.753   4.271   8.272 -0.7021  0.4975 -0.3175
  169SOPE  H17R19093   1.784   4.364   8.325  1.9604 -0.0381 -0.7617
  169SOPE  H17S19094   1.700   4.209   8.347  1.1170  0.9250  1.4179
  169SOPE  C21819095   1.666   4.310   8.150  0.4848 -0.1956 -0.5253
  169SOPE  H18R19096   1.642   4.211   8.106 -1.8752  0.7450 -1.5432
  169SOPE  H18S19097   1.725   4.367   8.076  2.0881 -0.8829  0.1780
  169SOPE  H18T19098   1.569   4.354   8.183 -0.0446  0.9555 -3.3906
  169SOPE   C3319099   2.765   4.204   7.134 -0.0303 -0.0910 -0.2378
  169SOPE   H3X19100   2.739   4.098   7.112 -0.1967  0.0281 -0.6296
  169SOPE   H3Y19101   2.673   4.257   7.166  0.9199  0.7460  1.2417
  169SOPE   C3419102   2.854   4.226   7.251 -0.6229  0.0118  0.2495
  169SOPE   H4X19103   2.845   4.335   7.269 -1.8045 -0.2251  1.2666
  169SOPE   H4Y19104   2.959   4.196   7.231 -1.2467 -0.7323 -2.2834
  169SOPE   C3519105   2.800   4.146   7.369  0.3675  0.2795 -0.2466
  169SOPE   H5X19106   2.823   4.038   7.361 -0.7567  0.1452 -2.3834
  169SOPE   H5Y19107   2.690   4.156   7.361  0.4376  0.9201 -0.4616
  169SOPE   C3619108   2.850   4.202   7.503  0.5192 -0.6506  0.0387
  169SOPE   H6X19109   2.831   4.311   7.509 -0.6630 -0.9243  1.9879
  169SOPE   H6Y19110   2.957   4.184   7.529  1.0972 -0.1105 -1.8027
  169SOPE   C3719111   2.778   4.134   7.625  0.2172 -0.9235 -0.0729
  169SOPE   H7X19112   2.801   4.026   7.614 -2.0885 -1.3390 -1.8134
  169SOPE   H7Y19113   2.667   4.130   7.622  0.2707 -3.0163 -2.0930
  169SOPE   C3819114   2.838   4.183   7.752  0.0712  0.1532 -0.0888
  169SOPE   H8X19115   2.946   4.159   7.758 -0.4415 -2.3711 -0.1760
  169SOPE   H8Y19116   2.832   4.294   7.745  1.3653  0.5820  3.4242
  169SOPE   C3919117   2.770   4.118   7.871  0.0915 -0.2729  0.7441
  169SOPE   H9X19118   2.797   4.012   7.853 -1.8006 -1.1304  2.6153
  169SOPE   H9Y19119   2.662   4.134   7.853 -0.0097 -0.5282  1.1195
  169SOPE  C31019120   2.812   4.165   8.006 -0.6307 -0.8853 -0.2122
  169SOPE  H10X19121   2.815   4.276   8.000  2.4889 -0.9221 -1.4333
  169SOPE  H10Y19122   2.920   4.138   8.016 -0.9313 -1.8096  0.7523
  169SOPE  C31119123   2.718   4.118   8.128 -0.8556 -0.4596 -0.3313
  169SOPE  H11X19124   2.623   4.081   8.083 -0.9961 -0.3842 -0.0981
  169SOPE  H11Y19125   2.687   4.212   8.179  0.3555 -1.5785  2.6293
  169SOPE  C31219126   2.777   4.013   8.217  1.1718  0.0618  0.5517
  169SOPE  H12X19127   2.879   4.051   8.240 -0.4224  3.5696  2.9494
  169SOPE  H12Y19128   2.771   3.921   8.155  0.7671  0.0154  0.6564
  169SOPE  C31319129   2.713   4.000   8.360  0.4668 -0.2262  0.1398
  169SOPE  H13X19130   2.612   3.955   8.350  0.6353 -0.4500 -0.6622
  169SOPE  H13Y19131   2.699   4.101   8.403  2.0359  0.1665 -0.2099
  169SOPE  C31419132   2.794   3.919   8.462 -0.4304  0.1643 -0.1664
  169SOPE  H14X19133   2.741   3.931   8.559  1.7123 -0.8690  1.2075
  169SOPE  H14Y19134   2.894   3.963   8.478 -0.6545  0.1710  1.3660
  169SOPE  C31519135   2.802   3.767   8.430 -0.2185  1.2400 -0.1481
  169SOPE  H15X19136   2.874   3.742   8.350 -0.8282  0.2672 -0.3999
  169SOPE  H15Y19137   2.704   3.736   8.390  0.3679  0.3211 -0.9027
  169SOPE  C31619138   2.827   3.672   8.550  0.0592  0.5903 -0.0291
  169SOPE  H16X19139   2.830   3.567   8.515 -0.5606  0.3422  0.6393
  169SOPE  H16Y19140   2.743   3.686   8.621  1.0222  0.4742  1.1689
  169SOPE  C31719141   2.965   3.697   8.615 -0.5614 -1.0515  0.5767
  169SOPE  H17X19142   2.979   3.803   8.641  4.0043 -1.2298 -0.4255
  169SOPE  H17Y19143   3.051   3.668   8.551  1.0411  1.8389  1.2713
  169SOPE  C31819144   3.003   3.619   8.743 -0.1594  0.7545  0.0946
  169SOPE  H18X19145   2.975   3.511   8.734  0.2410  0.2241  3.5001
  169SOPE  H18Y19146   2.943   3.649   8.832  0.0271  2.3880 -0.3034
  169SOPE  H18Z19147   3.110   3.631   8.769  0.3346 -2.2374 -0.1138
  170SOPE     N19148   2.811   2.236   6.603 -0.1008  0.8584  0.3509
  170SOPE   HN119149   2.877   2.238   6.683 -0.3038 -1.2068  0.6319
  170SOPE   HN219150   2.721   2.283   6.625 -1.4411 -1.6195  0.5737
  170SOPE   HN319151   2.783   2.136   6.600 -1.8279  1.3179  0.0075
  170SOPE   C1219152   2.875   2.287   6.482 -0.6303 -0.1880  0.3134
  170SOPE  H12A19153   2.804   2.280   6.397  2.2696  1.3723 -2.4524
  170SOPE  H12B19154   2.964   2.222   6.471  0.9109  1.7013  0.9427
  170SOPE   C1119155   2.937   2.426   6.505  0.3227  0.3723  0.9529
  170SOPE  H11A19156   2.991   2.455   6.412 -0.1571 -0.3459  0.4412
  170SOPE  H11B19157   3.012   2.414   6.586  0.9908 -0.0038  0.2917
  170SOPE     P19158   2.775   2.631   6.459 -0.1445  0.1032 -0.0340
  170SOPE   O1319159   2.678   2.706   6.538 -0.2207 -0.5730  0.1563
  170SOPE   O1419160   2.735   2.572   6.330 -0.6716 -0.2319  0.2581
  170SOPE   O1219161   2.838   2.514   6.535  0.1707  0.0533  0.0118
  170SOPE   O1119162   2.904   2.730   6.436  0.1587 -0.8645  0.5055
  170SOPE    C119163   2.895   2.872   6.467  0.5588 -0.1811  0.4600
  170SOPE    HA19164   2.848   2.887   6.566 -0.1456  0.4032  0.0488
  170SOPE    HB19165   2.847   2.939   6.392 -1.1531 -0.0944  1.5842
  170SOPE    C219166   3.030   2.939   6.501 -0.0323 -0.5267 -0.4554
  170SOPE    HS19167   3.095   2.933   6.411 -0.5158 -0.3106 -0.8203
  170SOPE   O2119168   3.096   2.863   6.604 -0.1822  0.0975 -0.5901
  170SOPE   C2119169   3.153   2.743   6.577 -0.1504  0.3172 -0.0867
  170SOPE   O2219170   3.190   2.703   6.468  0.3496  0.1701 -0.2945
  170SOPE   C2219171   3.170   2.668   6.708 -0.7331 -0.5478 -0.9190
  170SOPE   H2R19172   3.241   2.585   6.689 -0.8699 -0.0554 -4.1331
  170SOPE   H2S19173   3.073   2.622   6.737 -1.2957  1.3829  0.4529
  170SOPE    C319174   3.001   3.086   6.539 -0.2355  0.4115 -0.4356
  170SOPE    HX19175   2.929   3.132   6.468 -2.5897 -2.0962  0.1662
  170SOPE    HY19176   3.093   3.148   6.548  0.0755 -0.1039 -0.0388
  170SOPE   O3119177   2.930   3.084   6.661 -0.1252  0.2790  0.4309
  170SOPE   C3119178   2.986   3.088   6.774  0.0821  0.6710 -0.0603
  170SOPE   O3219179   3.103   3.107   6.801  0.9442 -0.3825 -0.1267
  170SOPE   C3219180   2.877   3.089   6.882  0.0698  0.2890  0.3705
  170SOPE   H2X19181   2.788   3.025   6.865 -0.4568  0.6389  1.6874
  170SOPE   H2Y19182   2.837   3.193   6.878  0.0618  0.2701 -0.2586
  170SOPE   C2319183   3.222   2.757   6.826 -0.5604  0.1720 -0.2299
  170SOPE   H3R19184   3.152   2.843   6.837  1.5213  1.8452  0.6344
  170SOPE   H3S19185   3.320   2.799   6.795 -0.3506 -0.1921 -0.0679
  170SOPE   C2419186   3.226   2.678   6.955 -0.4969 -0.5967  0.1490
  170SOPE   H4R19187   3.294   2.592   6.935  0.3237  0.2180 -0.7036
  170SOPE   H4S19188   3.282   2.740   7.029  0.2136 -0.9471 -0.0860
  170SOPE   C2519189   3.090   2.635   7.012  0.0506  0.2239  0.1544
  170SOPE   H5R19190   3.037   2.733   7.020  1.1346  1.0339 -1.7786
  170SOPE   H5S19191   3.037   2.580   6.932  0.9079  0.0501 -0.3005
  170SOPE   C2619192   3.082   2.562   7.147 -0.2170  0.2263  0.2409
  170SOPE   H6R19193   3.150   2.474   7.139 -0.4049 -0.0152  1.1679
  170SOPE   H6S19194   3.129   2.627   7.223 -2.0416  2.1898 -0.2058
  170SOPE   C2719195   2.949   2.513   7.191 -0.5653 -0.3745  0.0113
  170SOPE   H7R19196   2.872   2.546   7.118 -0.8203 -2.1761 -0.5837
  170SOPE   H7S19197   2.944   2.402   7.185 -1.2579 -0.2894 -1.7309
  170SOPE   C2819198   2.905   2.549   7.338  0.1212 -0.1137  0.0049
  170SOPE   H8R19199   2.967   2.488   7.406 -1.9823 -1.2598  1.0083
  170SOPE   H8S19200   2.930   2.656   7.356  0.1334 -0.3556  1.5344
  170SOPE   C2919201   2.763   2.534   7.373 -0.3722  0.1895  0.4678
  170SOPE   H9119202   2.698   2.484   7.300  1.1040 -0.3888 -0.5014
  170SOPE  C21019203   2.716   2.565   7.496 -0.6419  0.3116 -0.9558
  170SOPE  H10119204   2.610   2.544   7.517 -1.0985  0.1275 -3.2400
  170SOPE  C21119205   2.794   2.629   7.605  0.2520  0.9215  0.3438
  170SOPE  H11R19206   2.766   2.732   7.634 -1.7463  0.5041  0.0051
  170SOPE  H11S19207   2.901   2.640   7.576  0.2618 -0.5720 -0.2835
  170SOPE  C21219208   2.810   2.547   7.735  0.2725  0.6194 -0.3634
  170SOPE  H12R19209   2.889   2.595   7.797 -0.9256  1.2940  0.6911
  170SOPE  H12S19210   2.847   2.444   7.716  0.7092  0.4902  1.0496
  170SOPE  C21319211   2.680   2.553   7.824 -0.3328 -0.0965  0.3519
  170SOPE  H13R19212   2.588   2.534   7.765 -0.3499  1.0145 -0.0179
  170SOPE  H13S19213   2.665   2.660   7.852 -1.9945 -0.4606  1.0085
  170SOPE  C21419214   2.684   2.471   7.949 -0.2113  0.4595 -0.3543
  170SOPE  H14R19215   2.763   2.506   8.019 -0.8059 -1.7073  1.5434
  170SOPE  H14S19216   2.704   2.365   7.923 -0.3832  0.5391 -0.8123
  170SOPE  C21519217   2.551   2.469   8.027 -0.5893  0.0663 -0.0005
  170SOPE  H15R19218   2.474   2.424   7.961 -0.0435  0.3268 -0.8248
  170SOPE  H15S19219   2.502   2.567   8.050 -0.5895  0.2616 -0.8168
  170SOPE  C21619220   2.560   2.395   8.163  0.1671  0.5463  0.9549
  170SOPE  H16R19221   2.561   2.289   8.130  1.4738  0.9034 -0.2290
  170SOPE  H16S19222   2.476   2.414   8.233  0.9962 -0.8705  2.4068
  170SOPE  C21719223   2.691   2.423   8.241  0.3417  0.0401 -0.2915
  170SOPE  H17R19224   2.699   2.534   8.249  1.3186  0.0275 -0.9736
  170SOPE  H17S19225   2.778   2.389   8.182  0.0159 -2.2950  0.4870
  170SOPE  C21819226   2.696   2.353   8.374  0.2392 -0.4202 -0.1930
  170SOPE  H18R19227   2.601   2.369   8.428  1.1074 -1.5209  1.7840
  170SOPE  H18S19228   2.779   2.394   8.435 -0.8078  2.0254 -0.3123
  170SOPE  H18T19229   2.709   2.245   8.351 -0.4516 -0.6866  0.6178
  170SOPE   C3319230   2.926   3.061   7.019  0.1344 -0.1707  0.2413
  170SOPE   H3X19231   3.015   3.124   7.037  0.4333  0.0703 -1.8678
  170SOPE   H3Y19232   2.952   2.953   7.021 -2.6729 -0.9849 -1.2327
  170SOPE   C3419233   2.828   3.092   7.132  0.0274  0.0796 -0.8220
  170SOPE   H4X19234   2.745   3.020   7.113  1.1056 -1.6074  0.5353
  170SOPE   H4Y19235   2.788   3.194   7.115  2.0589  1.1047  0.2335
  170SOPE   C3519236   2.889   3.069   7.271 -0.1548 -0.0660 -0.4769
  170SOPE   H5X19237   2.965   3.150   7.280  0.7202 -0.6012 -2.5096
  170SOPE   H5Y19238   2.950   2.977   7.279 -0.6587 -0.4090 -0.5092
  170SOPE   C3619239   2.785   3.079   7.380 -0.7143 -0.6957  0.2989
  170SOPE   H6X19240   2.697   3.017   7.351 -0.0109 -0.8476 -1.7263
  170SOPE   H6Y19241   2.750   3.184   7.393  0.9642 -0.3020  1.9431
  170SOPE   C3719242   2.858   3.014   7.502  0.0328  0.4671  0.6773
  170SOPE   H7X19243   2.954   3.068   7.516  0.0260  0.0688  2.5394
  170SOPE   H7Y19244   2.874   2.908   7.474 -2.7425  0.5349 -1.5625
  170SOPE   C3819245   2.778   3.024   7.634  0.4975  0.7646 -0.0032
  170SOPE   H8X19246   2.689   2.959   7.621  0.6285  0.4432  0.6767
  170SOPE   H8Y19247   2.743   3.129   7.644 -1.2698  0.2545 -0.4891
  170SOPE   C3919248   2.862   2.996   7.755  0.2478 -0.1991 -1.0357
  170SOPE   H9X19249   2.958   3.052   7.747  0.4731 -0.2484  0.7449
  170SOPE   H9Y19250   2.908   2.895   7.757  1.9481  0.5357 -0.0484
  170SOPE  C31019251   2.789   3.036   7.886 -1.1205 -0.2107 -0.0805
  170SOPE  H10X19252   2.718   3.120   7.867 -0.5367  0.5533  0.9531
  170SOPE  H10Y19253   2.869   3.071   7.955  0.2938 -0.8524 -1.3469
  170SOPE  C31119254   2.716   2.924   7.963  0.1209  0.1980  0.4416
  170SOPE  H11X19255   2.798   2.853   7.988  0.0096  0.0334  0.3501
  170SOPE  H11Y19256   2.644   2.875   7.893 -0.5499 -1.0213  1.9404
  170SOPE  C31219257   2.627   2.970   8.077  0.1764 -0.0890  0.2996
  170SOPE  H12X19258   2.542   3.025   8.032  1.3269  1.4556 -0.0659
  170SOPE  H12Y19259   2.684   3.042   8.139 -1.4552  1.6782 -0.1644
  170SOPE  C31319260   2.580   2.850   8.155 -0.3636  0.2781  0.3938
  170SOPE  H13X19261   2.662   2.787   8.194  1.3578  2.5275  0.6017
  170SOPE  H13Y19262   2.508   2.791   8.094 -0.6970  1.3164 -0.2384
  170SOPE  C31419263   2.491   2.881   8.275  0.2506  0.0211 -0.2093
  170SOPE  H14X19264   2.407   2.939   8.232  0.4265 -1.0602 -2.1596
  170SOPE  H14Y19265   2.528   2.955   8.348  0.4725 -0.4020  0.1110
  170SOPE  C31519266   2.449   2.758   8.352 -0.2453 -0.0250 -0.0166
  170SOPE  H15X19267   2.534   2.702   8.397 -2.0442 -1.0428  2.3345
  170SOPE  H15Y19268   2.400   2.684   8.285  1.5601 -0.9690 -0.3516
  170SOPE  C31619269   2.352   2.790   8.464 -0.0418 -0.0603 -0.8663
  170SOPE  H16X19270   2.256   2.803   8.411 -1.1670 -0.4848  0.9630
  170SOPE  H16Y19271   2.370   2.889   8.510 -0.2559 -0.2379 -0.3893
  170SOPE  C31719272   2.344   2.691   8.578 -0.1708 -0.5703  0.8843
  170SOPE  H17X19273   2.447   2.664   8.610  0.1967 -0.1010  0.1162
  170SOPE  H17Y19274   2.284   2.603   8.547 -0.0075 -0.4205  0.1180
  170SOPE  C31819275   2.270   2.745   8.700 -0.7024  0.1415  0.3745
  170SOPE  H18X19276   2.252   2.656   8.762 -1.0738 -1.4455 -1.8903
  170SOPE  H18Y19277   2.174   2.800   8.686 -1.5115 -1.0266  1.2105
  170SOPE  H18Z19278   2.339   2.803   8.766  0.7863 -0.3284 -0.7069
  171SOPE     N19279   4.515   6.773   6.405 -0.1783  0.1979  0.4918
  171SOPE   HN119280   4.557   6.697   6.349 -0.3255 -1.8701  2.9809
  171SOPE   HN219281   4.427   6.808   6.361  0.9943  0.6657 -1.6096
  171SOPE   HN319282   4.577   6.856   6.399 -0.9447  0.9570  2.1936
  171SOPE   C1219283   4.480   6.724   6.539  0.0487 -0.1748 -1.0916
  171SOPE  H12A19284   4.455   6.801   6.615  1.9690  1.4575 -2.0247
  171SOPE  H12B19285   4.570   6.675   6.583 -0.8252 -0.8173  0.0452
  171SOPE   C1119286   4.381   6.617   6.519 -0.2326 -0.0110 -0.0085
  171SOPE  H11A19287   4.369   6.570   6.619 -2.1477 -0.8970 -0.6181
  171SOPE  H11B19288   4.407   6.533   6.450  1.7721 -0.3348  1.0467
  171SOPE     P19289   4.134   6.609   6.425  0.2952  0.2335 -0.2816
  171SOPE   O1319290   4.180   6.500   6.343 -0.5736 -0.4910  0.2312
  171SOPE   O1419291   4.036   6.705   6.360 -0.2331 -0.1572 -0.0718
  171SOPE   O1219292   4.259   6.682   6.484 -0.6779  0.2304  0.6914
  171SOPE   O1119293   4.069   6.542   6.552 -0.1895  0.3345 -0.0538
  171SOPE    C119294   4.034   6.615   6.667  0.3092 -0.0574 -0.3751
  171SOPE    HA19295   3.925   6.606   6.685  0.2730  1.3478  0.1799
  171SOPE    HB19296   4.049   6.724   6.656 -2.4079  0.1964 -2.6219
  171SOPE    C219297   4.096   6.559   6.801  0.0884 -0.6252  0.4152
  171SOPE    HS19298   4.201   6.592   6.787  0.2255 -1.6758 -1.4533
  171SOPE   O2119299   4.078   6.419   6.802  0.1750 -0.2987  0.5939
  171SOPE   C2119300   4.191   6.351   6.791  0.5866 -0.4671 -1.0061
  171SOPE   O2219301   4.305   6.385   6.769 -0.2575  0.1791  0.5701
  171SOPE   C2219302   4.134   6.209   6.814  0.1867  0.1690  0.7163
  171SOPE   H2R19303   4.128   6.163   6.713  1.6469  0.3480  0.5223
  171SOPE   H2S19304   4.041   6.201   6.873  0.9051 -2.5407  1.6548
  171SOPE    C319305   4.029   6.623   6.927 -0.2318 -0.3564  0.2349
  171SOPE    HX19306   4.072   6.563   7.010 -2.2925 -0.0860  1.5737
  171SOPE    HY19307   3.922   6.597   6.914 -0.5128  1.0521 -0.4872
  171SOPE   O3119308   4.051   6.768   6.933  0.1240  0.0444  0.0033
  171SOPE   C3119309   3.966   6.850   6.881 -0.6546  0.1682 -0.8969
  171SOPE   O3219310   3.856   6.823   6.831 -0.1411  0.5092  0.2045
  171SOPE   C3219311   4.019   6.992   6.900  0.0970  1.3340  0.0135
  171SOPE   H2X19312   3.980   7.057   6.818  0.5600  0.3526 -1.0045
  171SOPE   H2Y19313   4.130   6.981   6.901 -0.0168 -0.2192  1.7499
  171SOPE   C2319314   4.239   6.116   6.876 -0.3409  0.7731 -0.2288
  171SOPE   H3R19315   4.342   6.157   6.874  0.5843 -1.2458  1.7565
  171SOPE   H3S19316   4.223   6.014   6.836 -3.2672  0.7088  0.8900
  171SOPE   C2419317   4.214   6.103   7.031 -0.3820  0.3265  0.6204
  171SOPE   H4R19318   4.106   6.080   7.039 -0.5354  0.7713 -0.0780
  171SOPE   H4S19319   4.266   6.010   7.063  1.0963  0.4575 -1.2469
  171SOPE   C2519320   4.254   6.224   7.120 -0.2425 -0.3721 -0.3582
  171SOPE   H5R19321   4.361   6.248   7.103 -0.6966  2.2937  0.2016
  171SOPE   H5S19322   4.202   6.312   7.078  1.6429  0.6109 -0.7402
  171SOPE   C2619323   4.228   6.193   7.264  0.4046 -0.4132  0.5870
  171SOPE   H6R19324   4.122   6.165   7.281  0.1391  0.6274  0.7101
  171SOPE   H6S19325   4.288   6.104   7.292  0.6901 -0.9371 -1.5242
  171SOPE   C2719326   4.266   6.310   7.368  0.3542 -0.0089 -0.5228
  171SOPE   H7R19327   4.368   6.343   7.339 -0.7345  3.4720 -0.8494
  171SOPE   H7S19328   4.201   6.397   7.348 -1.0232 -0.8757  0.0528
  171SOPE   C2819329   4.256   6.264   7.513 -0.0354  0.2009 -0.1169
  171SOPE   H8R19330   4.298   6.162   7.511 -1.7482 -0.5276 -0.6765
  171SOPE   H8S19331   4.325   6.328   7.572 -0.0538 -0.2809  0.4364
  171SOPE   C2919332   4.118   6.278   7.579  0.4632  0.6589 -0.3222
  171SOPE   H9119333   4.093   6.378   7.616 -0.1190  0.3197  0.2330
  171SOPE  C21019334   4.038   6.178   7.606  0.6619  0.2761 -0.4080
  171SOPE  H10119335   3.942   6.206   7.651  1.4672 -0.2725  1.7855
  171SOPE  C21119336   4.049   6.029   7.572  0.2716 -0.9836  0.3961
  171SOPE  H11R19337   4.144   6.012   7.516  1.4365  0.1779  1.9239
  171SOPE  H11S19338   3.960   6.014   7.507  0.5023  2.8744 -1.0537
  171SOPE  C21219339   4.029   5.930   7.685 -0.0651  0.6901  0.3579
  171SOPE  H12R19340   4.010   5.830   7.640 -0.1054  0.6371  0.4936
  171SOPE  H12S19341   3.938   5.947   7.746 -0.1689  0.4797  0.2617
  171SOPE  C21319342   4.156   5.914   7.773  0.1149  0.2693 -0.2492
  171SOPE  H13R19343   4.160   5.993   7.850  1.3023  0.5529 -0.5892
  171SOPE  H13S19344   4.240   5.922   7.701 -0.6288 -0.3401 -1.2237
  171SOPE  C21419345   4.173   5.777   7.847 -1.0508  0.5562 -0.2900
  171SOPE  H14R19346   4.169   5.699   7.769 -0.7954 -0.7822  0.9940
  171SOPE  H14S19347   4.097   5.749   7.922 -0.7188 -0.3411 -0.2846
  171SOPE  C21519348   4.318   5.752   7.895 -0.3673 -0.1433  0.1650
  171SOPE  H15R19349   4.341   5.820   7.980 -2.1158  0.8182 -0.0677
  171SOPE  H15S19350   4.389   5.775   7.813  1.0974 -0.2785  1.3618
  171SOPE  C21619351   4.346   5.611   7.942  0.5239  0.3264 -0.4292
  171SOPE  H16R19352   4.456   5.600   7.954  0.9856  0.5743 -3.6666
  171SOPE  H16S19353   4.323   5.537   7.862 -1.5943  0.2051  0.2339
  171SOPE  C21719354   4.266   5.572   8.068 -0.4206  0.1071 -0.6725
  171SOPE  H17R19355   4.275   5.461   8.070 -2.4002 -0.0938 -0.5368
  171SOPE  H17S19356   4.162   5.596   8.038 -0.7570 -0.5346 -0.0444
  171SOPE  C21819357   4.301   5.640   8.205  0.0171 -0.5118  0.3189
  171SOPE  H18R19358   4.240   5.594   8.286  0.7829  1.7330  2.3221
  171SOPE  H18S19359   4.286   5.750   8.214 -2.6734 -0.7884 -0.0578
  171SOPE  H18T19360   4.409   5.632   8.232  0.4229  1.2383 -0.6446
  171SOPE   C3319361   3.976   7.048   7.039 -0.4127  1.1572 -0.6325
  171SOPE   H3X19362   3.865   7.046   7.049 -0.3918 -0.7040 -0.5468
  171SOPE   H3Y19363   4.025   7.148   7.045  1.2955  0.3266 -0.3367
  171SOPE   C3419364   4.025   6.972   7.168  0.6666 -0.9197  0.1385
  171SOPE   H4X19365   4.136   6.962   7.171  1.0836  2.6178  0.2001
  171SOPE   H4Y19366   3.976   6.872   7.170 -1.2660 -0.0903 -1.8719
  171SOPE   C3519367   3.976   7.043   7.292 -0.0793  0.4248  0.2283
  171SOPE   H5X19368   3.866   7.054   7.302  0.0790  1.6516  0.7969
  171SOPE   H5Y19369   4.006   7.148   7.271 -0.6755  0.2584 -1.6236
  171SOPE   C3619370   4.024   6.968   7.420  0.1003  1.1837  0.1523
  171SOPE   H6X19371   4.134   6.978   7.423  0.1166  1.4501 -0.7842
  171SOPE   H6Y19372   3.984   6.865   7.418  0.6451  0.9708  0.1989
  171SOPE   C3719373   3.967   7.042   7.540 -0.3313 -0.0735 -0.6716
  171SOPE   H7X19374   3.858   7.060   7.527 -0.2371  0.8411 -0.2736
  171SOPE   H7Y19375   4.009   7.145   7.538 -1.9447  0.6071 -2.3602
  171SOPE   C3819376   3.999   6.967   7.669  0.2026 -1.0125 -0.4966
  171SOPE   H8X19377   4.105   6.942   7.692  0.0722 -1.1530 -0.0388
  171SOPE   H8Y19378   3.959   6.865   7.654  0.9185 -1.3116 -0.4129
  171SOPE   C3919379   3.932   7.029   7.790  0.6948 -0.1165  0.0140
  171SOPE   H9X19380   3.824   7.010   7.770  0.6720  0.9519 -0.9773
  171SOPE   H9Y19381   3.955   7.137   7.793 -0.7885  0.2108  0.2867
  171SOPE  C31019382   3.970   6.945   7.912  0.1033 -0.4790 -1.1374
  171SOPE  H10X19383   4.080   6.944   7.922 -0.0350 -0.7477  0.6275
  171SOPE  H10Y19384   3.941   6.838   7.903  1.3231 -1.0301  0.8612
  171SOPE  C31119385   3.890   6.990   8.033 -0.9698  0.3549 -0.1478
  171SOPE  H11X19386   3.860   6.904   8.096 -2.4531  0.5274 -0.5772
  171SOPE  H11Y19387   3.794   7.029   7.991 -0.7265 -1.6081 -2.8031
  171SOPE  C31219388   3.971   7.087   8.124  0.4942 -0.3702  0.0603
  171SOPE  H12X19389   3.997   7.172   8.058  1.7188 -0.9649 -0.2613
  171SOPE  H12Y19390   4.061   7.028   8.152  0.8439  0.2098  0.1600
  171SOPE  C31319391   3.892   7.140   8.243 -1.0104 -0.4482 -0.1608
  171SOPE  H13X19392   3.833   7.063   8.298 -0.8032  0.6630  1.6948
  171SOPE  H13Y19393   3.827   7.219   8.200 -0.1067  0.4500  0.0846
  171SOPE  C31419394   3.989   7.216   8.340  0.4463  0.0381  0.9578
  171SOPE  H14X19395   4.066   7.274   8.285 -0.7846 -1.3004 -2.4635
  171SOPE  H14Y19396   4.061   7.144   8.384  1.8293  1.7137  1.5285
  171SOPE  C31519397   3.914   7.286   8.447 -0.0094  0.2621 -0.1352
  171SOPE  H15X19398   3.991   7.312   8.522  1.7251  1.7684 -2.2963
  171SOPE  H15Y19399   3.851   7.206   8.491  0.0785 -0.9428 -2.0860
  171SOPE  C31619400   3.824   7.404   8.419 -0.2168 -0.2593 -0.0543
  171SOPE  H16X19401   3.748   7.383   8.340  0.1331 -1.6310 -0.0468
  171SOPE  H16Y19402   3.899   7.469   8.369  2.6350 -2.1113  1.5371
  171SOPE  C31719403   3.773   7.487   8.539  0.4683  0.6497  0.1535
  171SOPE  H17X19404   3.853   7.504   8.613  0.8387  1.3375 -0.3831
  171SOPE  H17Y19405   3.698   7.420   8.586 -1.4891  0.7167 -2.6157
  171SOPE  C31819406   3.710   7.623   8.507 -0.5115  0.6419 -0.2853
  171SOPE  H18X19407   3.611   7.622   8.456 -1.3065 -0.6200  1.2060
  171SOPE  H18Y19408   3.787   7.680   8.453 -0.0238 -0.0193 -0.2986
  171SOPE  H18Z19409   3.689   7.677   8.602 -1.5123 -1.4844  0.7734
  172SOPE     N19410   4.301   2.462   6.720  0.1763  0.1544  0.2762
  172SOPE   HN119411   4.321   2.405   6.636 -1.0346 -1.8144  1.2571
  172SOPE   HN219412   4.213   2.423   6.761  0.7590 -1.1285  0.3533
  172SOPE   HN319413   4.282   2.559   6.687 -0.1100 -0.4190 -1.3400
  172SOPE   C1219414   4.411   2.453   6.822 -0.0200  0.0182 -0.1276
  172SOPE  H12A19415   4.419   2.347   6.855  2.3290  0.5439  1.2036
  172SOPE  H12B19416   4.374   2.512   6.909  0.4211 -2.5309  1.9100
  172SOPE   C1119417   4.543   2.499   6.769  0.2822  0.6102  0.4274
  172SOPE  H11A19418   4.615   2.481   6.851 -0.8542 -3.2070  0.7786
  172SOPE  H11B19419   4.536   2.607   6.745 -3.0934 -0.0811 -2.7146
  172SOPE     P19420   4.647   2.281   6.658 -0.2469 -0.2960  0.2412
  172SOPE   O1319421   4.791   2.287   6.617 -0.3136 -0.0406  0.8103
  172SOPE   O1419422   4.557   2.186   6.580 -0.4701  0.2041 -0.6152
  172SOPE   O1219423   4.575   2.424   6.645 -0.2362  0.6351  0.3357
  172SOPE   O1119424   4.630   2.247   6.815  0.4326 -0.5465  0.2917
  172SOPE    C119425   4.684   2.137   6.884 -0.5865 -0.2738  0.5937
  172SOPE    HA19426   4.791   2.154   6.908 -1.0121  2.4217  0.9477
  172SOPE    HB19427   4.681   2.044   6.825 -0.4412 -1.8944  3.0100
  172SOPE    C219428   4.608   2.112   7.014 -0.0625  0.0210  0.5276
  172SOPE    HS19429   4.638   2.008   7.038 -1.3991 -0.1037  1.7298
  172SOPE   O2119430   4.469   2.121   6.991 -0.3052  0.1918 -0.3640
  172SOPE   C2119431   4.413   2.033   6.912 -0.1785  0.0856  0.3445
  172SOPE   O2219432   4.456   1.926   6.869 -0.0972  0.5356  0.0773
  172SOPE   C2219433   4.267   2.075   6.886 -1.1571 -0.7700 -0.4091
  172SOPE   H2R19434   4.260   2.106   6.780 -1.9212 -2.0244 -0.7409
  172SOPE   H2S19435   4.245   2.162   6.951  1.3399  0.5350 -1.1766
  172SOPE    C319436   4.646   2.213   7.127 -0.0571 -0.3982 -0.3706
  172SOPE    HX19437   4.623   2.318   7.096 -2.7187 -1.0176 -0.7574
  172SOPE    HY19438   4.756   2.216   7.140 -0.2503  1.9140  1.5999
  172SOPE   O3119439   4.572   2.196   7.245  0.8163  1.0442 -0.1902
  172SOPE   C3119440   4.635   2.133   7.346 -0.6107 -0.3111 -0.5848
  172SOPE   O3219441   4.756   2.109   7.349  0.3935  0.0594  0.1776
  172SOPE   C3219442   4.550   2.118   7.468  0.7583 -0.9251 -0.5919
  172SOPE   H2X19443   4.485   2.029   7.455 -3.1392  1.4948  0.7378
  172SOPE   H2Y19444   4.478   2.202   7.472 -0.1404 -1.6848  3.0436
  172SOPE   C2319445   4.157   1.972   6.906 -0.2607  0.5326 -0.8035
  172SOPE   H3R19446   4.183   1.875   6.859 -2.2868 -0.1709 -0.5734
  172SOPE   H3S19447   4.062   2.012   6.863 -0.5827  2.9286  1.8745
  172SOPE   C2419448   4.127   1.959   7.063  0.5920  0.2570  0.3651
  172SOPE   H4R19449   4.227   1.954   7.110  0.0434  1.6891  1.7984
  172SOPE   H4S19450   4.092   2.055   7.107  3.2717  1.4946  0.0088
  172SOPE   C2519451   4.049   1.828   7.087  0.4754  0.2226 -0.1058
  172SOPE   H5R19452   3.962   1.836   7.019 -0.7679 -0.2230  1.3786
  172SOPE   H5S19453   4.113   1.744   7.052  0.9900  0.6486 -0.2089
  172SOPE   C2619454   4.001   1.815   7.228  0.0660  0.3734  0.2867
  172SOPE   H6R19455   3.960   1.910   7.267  1.2966  0.6294  1.0231
  172SOPE   H6S19456   3.928   1.732   7.239 -0.3797  0.5888 -0.8596
  172SOPE   C2719457   4.124   1.788   7.326  0.4751 -0.2139 -0.4505
  172SOPE   H7R19458   4.160   1.684   7.318 -1.5295 -1.0947  1.1247
  172SOPE   H7S19459   4.204   1.862   7.302 -0.3570  0.5862 -0.8312
  172SOPE   C2819460   4.075   1.805   7.473 -0.3428  0.4513 -0.0684
  172SOPE   H8R19461   4.170   1.821   7.529 -0.9934  0.6375  1.0051
  172SOPE   H8S19462   4.015   1.898   7.470  2.1327  2.1493 -2.8816
  172SOPE   C2919463   3.987   1.690   7.518  0.2763  0.1457  0.4130
  172SOPE   H9119464   3.970   1.625   7.431 -0.0374  3.7299 -2.4716
  172SOPE  C21019465   3.948   1.668   7.646 -0.4785 -0.2854  0.0281
  172SOPE  H10119466   3.893   1.576   7.674  0.5036 -0.1460  2.7366
  172SOPE  C21119467   3.982   1.756   7.768  0.0211  0.1051 -0.6958
  172SOPE  H11R19468   3.886   1.767   7.823  0.8843  2.5557  0.4725
  172SOPE  H11S19469   4.030   1.851   7.737  0.1726  0.2647  0.0052
  172SOPE  C21219470   4.072   1.687   7.871 -0.0846 -0.8839 -0.0038
  172SOPE  H12R19471   4.177   1.683   7.835  0.3299 -0.1145  1.0612
  172SOPE  H12S19472   4.033   1.584   7.883  0.0449 -0.9169  0.1319
  172SOPE  C21319473   4.066   1.763   8.007  0.4111  0.2069 -0.5534
  172SOPE  H13R19474   3.969   1.750   8.060  0.7086  0.7649  0.1455
  172SOPE  H13S19475   4.064   1.871   7.981 -1.9975  0.9424  2.1812
  172SOPE  C21419476   4.175   1.725   8.107  0.4640 -0.1011  0.4179
  172SOPE  H14R19477   4.276   1.755   8.070 -0.2875  1.4267 -0.5116
  172SOPE  H14S19478   4.181   1.617   8.130  1.6345 -0.2446 -0.4458
  172SOPE  C21519479   4.165   1.818   8.232  0.3021  0.1687 -0.3318
  172SOPE  H15R19480   4.191   1.922   8.203  0.2453  0.4545  0.6010
  172SOPE  H15S19481   4.246   1.784   8.300 -1.9033 -3.1359  0.9266
  172SOPE  C21619482   4.027   1.813   8.296 -0.5379  0.5642  0.4167
  172SOPE  H16R19483   3.985   1.710   8.294  1.4326 -0.3033  0.6433
  172SOPE  H16S19484   3.958   1.889   8.254  0.8378  2.0636  0.7736
  172SOPE  C21719485   4.033   1.835   8.451 -0.1336  0.0193  0.2407
  172SOPE  H17R19486   3.930   1.838   8.492 -0.3871 -0.8228 -0.3174
  172SOPE  H17S19487   4.079   1.933   8.476 -0.3262  0.3347 -0.6003
  172SOPE  C21819488   4.115   1.736   8.532 -0.7626  0.1178  0.0554
  172SOPE  H18R19489   4.137   1.772   8.635  2.6420 -0.9435 -0.1764
  172SOPE  H18S19490   4.215   1.715   8.488 -1.1060 -3.0594  0.5354
  172SOPE  H18T19491   4.081   1.630   8.525  2.3908 -1.0443  0.5139
  172SOPE   C3319492   4.627   2.120   7.608  0.3130  0.0530  0.3241
  172SOPE   H3X19493   4.664   2.223   7.623 -0.3811  0.4399 -0.6013
  172SOPE   H3Y19494   4.711   2.047   7.602 -0.9831 -1.3362 -2.0598
  172SOPE   C3419495   4.545   2.072   7.730 -0.1123  0.0234  0.2277
  172SOPE   H4X19496   4.500   1.971   7.718 -0.3944  0.0976  0.6477
  172SOPE   H4Y19497   4.460   2.141   7.750  0.3375  0.7229 -0.1910
  172SOPE   C3519498   4.628   2.085   7.862 -0.2074 -0.7579  1.0906
  172SOPE   H5X19499   4.679   2.184   7.865 -1.3569  0.0695 -2.2490
  172SOPE   H5Y19500   4.700   2.001   7.867  0.2840 -0.4975 -0.6566
  172SOPE   C3619501   4.537   2.073   7.979  0.3210  0.0671 -0.0031
  172SOPE   H6X19502   4.471   1.983   7.976  1.6565 -1.1278  2.7126
  172SOPE   H6Y19503   4.458   2.151   7.967 -0.3016 -0.6273 -0.4789
  172SOPE   C3719504   4.601   2.070   8.119 -0.2484  0.3855 -0.3265
  172SOPE   H7X19505   4.659   2.163   8.137  0.4808 -0.4799  2.1336
  172SOPE   H7Y19506   4.681   1.993   8.121  0.4919  1.1293 -0.3744
  172SOPE   C3819507   4.503   2.039   8.232  0.1660 -0.0839 -0.4217
  172SOPE   H8X19508   4.418   1.971   8.210  1.0116 -1.2832 -0.0309
  172SOPE   H8Y19509   4.448   2.135   8.239 -0.3290 -0.3869 -0.1212
  172SOPE   C3919510   4.565   2.001   8.372  0.3669  0.3146 -0.4549
  172SOPE   H9X19511   4.624   2.090   8.404  0.1838  0.4000 -0.3478
  172SOPE   H9Y19512   4.619   1.905   8.367  1.1218  0.5744  1.7382
  172SOPE  C31019513   4.448   2.001   8.478  0.4300  0.0320 -0.2364
  172SOPE  H10X19514   4.358   1.944   8.447 -1.7162  3.3903 -0.6531
  172SOPE  H10Y19515   4.406   2.103   8.486  0.7913  0.0582  1.8872
  172SOPE  C31119516   4.484   1.965   8.625 -0.2807 -0.3496  0.9959
  172SOPE  H11X19517   4.588   1.990   8.655  0.0563 -0.2601 -0.1952
  172SOPE  H11Y19518   4.473   1.855   8.627 -0.2077 -0.3527  1.2004
  172SOPE  C31219519   4.387   2.029   8.724 -0.1374  0.1276  0.1015
  172SOPE  H12X19520   4.283   2.013   8.688  0.2241  0.9370 -1.4032
  172SOPE  H12Y19521   4.393   2.137   8.746  1.1556 -0.1383  1.1675
  172SOPE  C31319522   4.408   1.955   8.857 -0.4315 -0.4411 -0.4726
  172SOPE  H13X19523   4.513   1.963   8.893 -0.9912  2.0511  0.8635
  172SOPE  H13Y19524   4.390   1.847   8.843  3.1282 -1.0070 -1.8773
  172SOPE  C31419525   4.327   2.019   8.973 -0.3555  0.4640 -0.0220
  172SOPE  H14X19526   4.350   2.128   8.975  0.6608  0.2562  1.7363
  172SOPE  H14Y19527   4.378   1.969   9.058 -0.4700 -0.3497 -0.4311
  172SOPE  C31519528   4.177   1.984   8.984 -0.6753 -0.5291 -1.1979
  172SOPE  H15X19529   4.142   2.031   9.078  1.8767  0.8049 -0.8127
  172SOPE  H15Y19530   4.171   1.873   8.987  3.3532 -0.9667 -2.4977
  172SOPE  C31619531   4.088   2.026   8.863  0.7929 -0.4153  0.3140
  172SOPE  H16X19532   3.985   1.985   8.864  0.6795 -0.2542 -1.6334
  172SOPE  H16Y19533   4.132   1.978   8.772  2.4349  5.5103 -2.5313
  172SOPE  C31719534   4.087   2.180   8.849  0.7051 -0.5951 -0.1275
  172SOPE  H17X19535   4.192   2.205   8.822 -0.2078  1.3488 -2.1285
  172SOPE  H17Y19536   4.053   2.231   8.942  1.1791 -0.4198 -0.0423
  172SOPE  C31819537   4.000   2.215   8.729  0.2901 -0.3187 -0.8470
  172SOPE  H18X19538   3.893   2.203   8.756 -0.3440  2.2393 -1.9243
  172SOPE  H18Y19539   4.029   2.146   8.647  3.3141 -1.2643  0.8557
  172SOPE  H18Z19540   4.008   2.319   8.692  0.6492  0.6814  1.8707
  173SAPI   C1219541   6.253   0.413  10.871  0.1748  0.4176 -0.4540
  173SAPI    H219542   6.228   0.376  10.769  2.0619  1.2315 -1.2607
  173SAPI    O219543   6.396   0.400  10.886 -0.7673  0.2259  0.2917
  173SAPI   HO219544   6.421   0.461  10.817  1.8379 -0.6534  0.3437
  173SAPI   C1319545   6.218   0.560  10.889  0.6233  0.4525  0.4620
  173SAPI    H319546   6.111   0.569  10.860 -0.0236 -2.6009  1.5743
  173SAPI    O319547   6.288   0.642  10.792 -0.9411 -0.4178  0.6712
  173SAPI   HO319548   6.234   0.712  10.753  1.5609  0.5023 -1.4548
  173SAPI   C1419549   6.253   0.610  11.025 -0.0797  0.4358 -0.9432
  173SAPI    H419550   6.364   0.604  11.033 -0.0672  1.4248 -0.2319
  173SAPI    O419551   6.222   0.749  11.051  0.0654 -0.1310  0.1450
  173SAPI   HO419552   6.258   0.793  10.973 -0.6259  1.3815  0.6352
  173SAPI   C1519553   6.186   0.516  11.130  0.5634 -0.3974 -0.9422
  173SAPI    H519554   6.075   0.519  11.127  0.5416 -0.6277 -0.5105
  173SAPI    O519555   6.218   0.555  11.262  0.3027  0.3394 -0.1114
  173SAPI   HO519556   6.227   0.477  11.317 -0.0647  0.0444 -0.4623
  173SAPI   C1619557   6.225   0.369  11.108  0.1342  0.3041  0.3378
  173SAPI    H619558   6.333   0.342  11.111 -0.3031 -1.9955 -1.5523
  173SAPI    O619559   6.165   0.295  11.212 -0.1970 -0.5556  0.3105
  173SAPI   HO619560   6.129   0.217  11.170 -1.8239  1.4719 -2.4098
  173SAPI   C1119561   6.180   0.323  10.969  0.8127 -0.2322 -0.3290
  173SAPI    H119562   6.071   0.331  10.952  0.1452 -0.8756  3.0586
  173SAPI     P19563   6.131   0.057  10.947 -0.1432 -0.5132  0.1708
  173SAPI   O1319564   6.030   0.063  11.057 -0.3889  0.0100  0.5362
  173SAPI   O1419565   6.215  -0.063  10.928  0.0763  0.4124 -0.4221
  173SAPI   O1219566   6.231   0.190  10.958 -0.2594 -0.4333  0.4608
  173SAPI   O1119567   6.060   0.092  10.816  0.2499  0.0909  0.4185
  173SAPI    C119568   6.041   0.005  10.706  0.2179 -0.0934  0.0024
  173SAPI    HA19569   6.028  -0.097  10.747  1.0015  0.5584  1.9975
  173SAPI    HB19570   5.945   0.026  10.654 -0.9975 -0.6491  1.9166
  173SAPI    C219571   6.160   0.021  10.599  0.1240  0.8547  0.2332
  173SAPI    HS19572   6.249  -0.032  10.641 -1.0214 -1.2709  0.1317
  173SAPI   O2119573   6.183   0.162  10.579 -0.2660  0.6035  0.1851
  173SAPI   C2119574   6.306   0.191  10.543 -0.8026  0.6372  0.1655
  173SAPI   O2219575   6.399   0.110  10.547 -0.3408 -0.4888  0.0031
  173SAPI   C2219576   6.317   0.331  10.495  0.0688 -0.0420  0.2895
  173SAPI   H2R19577   6.216   0.376  10.508 -0.8409 -1.4857 -1.3160
  173SAPI   H2S19578   6.385   0.382  10.566  1.4887 -2.4731  0.7804
  173SAPI    C319579   6.134  -0.058  10.462  0.0633  0.1302  1.2481
  173SAPI    HX19580   6.038  -0.014  10.429 -0.5790 -0.8692  1.7341
  173SAPI    HY19581   6.125  -0.168  10.478 -1.5017 -0.0135 -0.3135
  173SAPI   O3119582   6.236  -0.020  10.369 -0.5544  0.5116 -0.1210
  173SAPI   C3119583   6.323  -0.115  10.340  0.5354 -0.0716 -0.0959
  173SAPI   O3219584   6.327  -0.220  10.396 -0.1918 -0.0795 -0.2648
  173SAPI   C3219585   6.420  -0.067  10.229  0.3670 -0.6474 -0.2876
  173SAPI   H2X19586   6.498  -0.013  10.286 -1.3017  0.9454  0.5855
  173SAPI   H2Y19587   6.362   0.004  10.166  1.1911 -1.5861 -2.1916
  173SAPI   C2319588   6.383   0.349  10.361 -0.8946  0.2877  0.0677
  173SAPI   H3R19589   6.308   0.330  10.281 -2.0256  0.6559  1.0176
  173SAPI   H3S19590   6.473   0.286  10.345  0.1099  2.1910 -2.3921
  173SAPI   C2419591   6.439   0.496  10.337  0.1049 -0.4171  0.7832
  173SAPI   H4R19592   6.490   0.486  10.239  0.0591 -2.6513  0.9510
  173SAPI   H4S19593   6.511   0.536  10.411  0.2373  1.9062 -0.4874
  173SAPI   C2519594   6.336   0.606  10.325  0.3549 -0.1588  0.2552
  173SAPI   H5R19595   6.315   0.646  10.425 -1.1788 -1.0316  0.3108
  173SAPI   C2619596   6.271   0.645  10.217 -0.3414  0.2708  0.0213
  173SAPI   H6R19597   6.196   0.725  10.230 -0.8591 -0.5375  2.5784
  173SAPI   C2719598   6.284   0.598  10.074 -0.1137  0.3005  0.5427
  173SAPI   H7R19599   6.371   0.531  10.060  1.3562  2.2883 -0.3452
  173SAPI   H7S19600   6.302   0.696  10.024  1.7802  0.3210  1.1760
  173SAPI   C2819601   6.155   0.527  10.035  0.5702 -0.7236  0.1186
  173SAPI   H8R19602   6.062   0.564  10.081 -0.8514 -1.6591 -1.8532
  173SAPI   C2919603   6.141   0.437   9.943 -0.0089 -0.2526  0.8436
  173SAPI   H9R19604   6.043   0.390   9.933  0.0151 -0.1561  0.1448
  173SAPI  C21019605   6.252   0.363   9.858  0.1378  0.1021 -0.0629
  173SAPI  H10R19606   6.353   0.399   9.886 -0.4279  2.5104 -0.8785
  173SAPI  H10S19607   6.244   0.393   9.752 -3.0989 -0.1519  0.0117
  173SAPI  C21119608   6.230   0.209   9.864  0.1751  0.5094 -0.1233
  173SAPI  H11R19609   6.222   0.167   9.965 -1.3973 -2.3952 -1.3104
  173SAPI  C21219610   6.210   0.120   9.764  1.1764  0.3750 -0.4404
  173SAPI  H12R19611   6.210   0.014   9.793 -0.6757  0.4913  0.0774
  173SAPI  C21319612   6.193   0.151   9.614 -0.4800  0.2721 -0.6091
  173SAPI  H13R19613   6.233   0.248   9.578 -1.0258  0.5635 -0.4296
  173SAPI  H13S19614   6.091   0.144   9.571 -0.6629 -1.4059  0.0140
  173SAPI  C21419615   6.289   0.060   9.544 -0.5678 -0.2570 -0.8797
  173SAPI  H14R19616   6.386   0.047   9.595 -1.4668 -0.3162  0.9043
  173SAPI  C21519617   6.264  -0.014   9.436  0.4602 -0.1341 -0.2709
  173SAPI  H15R19618   6.350  -0.065   9.388  0.3026 -1.8140  1.1584
  173SAPI  C21619619   6.133  -0.026   9.363  0.0545 -0.1081 -0.0389
  173SAPI  H16R19620   6.083   0.073   9.362  2.0552  0.9599  0.0651
  173SAPI  H16S19621   6.071  -0.096   9.423  1.8706 -0.2297  1.8029
  173SAPI  C21719622   6.133  -0.067   9.213  0.2448 -0.5310  0.3875
  173SAPI  H17R19623   6.169  -0.172   9.200 -0.9293 -0.6322 -2.7476
  173SAPI  H17S19624   6.189   0.010   9.156  0.0546 -1.0569 -0.5177
  173SAPI  C21819625   5.995  -0.077   9.137 -0.3698  0.1643 -0.2799
  173SAPI  H18R19626   5.941   0.019   9.151  0.5013  0.6710 -0.3119
  173SAPI  H18S19627   5.931  -0.155   9.183  0.2746 -0.4262 -0.3622
  173SAPI  C21919628   6.010  -0.098   8.985 -0.4574  0.1546 -0.1303
  173SAPI  H19R19629   6.072  -0.189   8.967  1.9243  1.5557  0.5586
  173SAPI  H19S19630   6.069  -0.019   8.935  0.4713  0.0471  0.7830
  173SAPI  C22019631   5.874  -0.120   8.917 -0.1597  0.7483  0.0223
  173SAPI  H20R19632   5.815  -0.028   8.939 -0.0896  0.4504  1.5319
  173SAPI  H20S19633   5.818  -0.208   8.954 -0.7975  0.7891 -0.8161
  173SAPI  H20T19634   5.882  -0.124   8.806  1.1061 -1.0192  0.1409
  173SAPI   C3319635   6.470  -0.183  10.150 -0.2895 -0.2019 -0.1494
  173SAPI   H3X19636   6.518  -0.262  10.211 -0.9270 -0.5379 -0.0821
  173SAPI   H3Y19637   6.557  -0.134  10.101 -0.9234  0.8740 -0.2304
  173SAPI   C3419638   6.377  -0.243  10.046  0.0621  0.5277  0.3407
  173SAPI   H4X19639   6.320  -0.161   9.998  0.6813  1.7617  1.6533
  173SAPI   H4Y19640   6.307  -0.317  10.091  0.1141  1.3441  1.8218
  173SAPI   C3519641   6.453  -0.326   9.944  0.3896  0.2967  0.2280
  173SAPI   H5X19642   6.475  -0.431   9.972  2.5723  0.6322 -0.0572
  173SAPI   H5Y19643   6.550  -0.274   9.930 -0.1909  1.0937 -0.9856
  173SAPI   C3619644   6.384  -0.330   9.805  0.5065 -0.1316 -0.1099
  173SAPI   H6X19645   6.368  -0.221   9.792 -0.3815  0.0011  1.7530
  173SAPI   H6Y19646   6.291  -0.391   9.811  0.4400  0.1299  2.2280
  173SAPI   C3719647   6.466  -0.391   9.692  0.2510  0.2225 -0.5139
  173SAPI   H7X19648   6.487  -0.496   9.721 -1.4599  0.7964  3.3577
  173SAPI   H7Y19649   6.565  -0.339   9.685  0.9063 -1.1520 -2.6312
  173SAPI   C3819650   6.380  -0.369   9.565  0.2852  0.8086  0.1107
  173SAPI   H8X19651   6.352  -0.263   9.551 -0.4438  0.7729  1.1188
  173SAPI   H8Y19652   6.285  -0.424   9.582  0.0469  1.0828 -0.3114
  173SAPI   C3919653   6.444  -0.430   9.434 -0.5108  0.2785  0.2819
  173SAPI   H9X19654   6.432  -0.539   9.414  1.6015  0.3144 -1.4712
  173SAPI   H9Y19655   6.553  -0.410   9.435 -0.4706  0.0572  0.5399
  173SAPI  C31019656   6.404  -0.341   9.314 -0.1091 -0.7457 -0.2001
  173SAPI  H10X19657   6.433  -0.235   9.328 -0.2019 -0.4879 -1.7632
  173SAPI  H10Y19658   6.293  -0.340   9.307 -0.1490 -0.4400  0.4075
  173SAPI  C31119659   6.466  -0.411   9.191 -0.4180  0.2192  0.0290
  173SAPI  H11X19660   6.414  -0.504   9.159  1.2163 -0.1411 -1.7630
  173SAPI  H11Y19661   6.570  -0.442   9.215 -1.1917 -2.3703  0.4072
  173SAPI  C31219662   6.473  -0.327   9.059  0.6743  0.0781  1.1662
  173SAPI  H12X19663   6.551  -0.250   9.079  1.7531 -0.4958 -0.5787
  173SAPI  H12Y19664   6.371  -0.284   9.048 -0.4037 -2.7027 -0.8413
  173SAPI  C31319665   6.512  -0.415   8.933  0.5186 -0.7885  0.3665
  173SAPI  H13X19666   6.439  -0.497   8.914 -1.2882  1.1280 -1.4333
  173SAPI  H13Y19667   6.616  -0.454   8.941  0.7408 -0.0005  1.7435
  173SAPI  C31419668   6.494  -0.337   8.802 -0.2442 -0.2354 -0.2350
  173SAPI  H14X19669   6.540  -0.236   8.811 -2.0707  0.4402  2.6117
  173SAPI  H14Y19670   6.384  -0.329   8.793 -0.0363  2.3811 -1.7633
  173SAPI  C31519671   6.558  -0.412   8.686  0.5851 -0.1890  0.4070
  173SAPI  H15X19672   6.499  -0.504   8.663 -0.5302  0.2201  1.4988
  173SAPI  H15Y19673   6.661  -0.440   8.717  0.0841 -2.8106 -0.0889
  173SAPI  C31619674   6.562  -0.335   8.549 -0.1785  0.1658  0.6454
  173SAPI  H16X19675   6.611  -0.407   8.480 -0.2911 -0.4573  1.1943
  173SAPI  H16Y19676   6.625  -0.244   8.553  0.0698  0.1042 -1.1297
  173SAPI  C31719677   6.431  -0.301   8.472 -0.3452  0.0821 -0.0437
  173SAPI  H17X19678   6.375  -0.227   8.534  1.8575  1.6891  0.1284
  173SAPI  H17Y19679   6.370  -0.394   8.474  1.2783 -1.0479 -1.0520
  173SAPI  C31819680   6.456  -0.261   8.322  0.5527  0.1158  0.5374
  173SAPI  H18X19681   6.538  -0.187   8.324  1.3770 -0.7952  1.3442
  173SAPI  H18Y19682   6.365  -0.213   8.279  0.0348 -0.8223  0.5465
  173SAPI  H18Z19683   6.498  -0.343   8.260  0.3231  0.2116  0.2513
  174SAPI   C1219684   1.827   0.577  11.001 -0.4364 -0.3982  0.3852
  174SAPI    H219685   1.720   0.569  11.028 -1.3610  0.3702 -2.7125
  174SAPI    O219686   1.897   0.571  11.125 -0.1925  0.2797  0.2664
  174SAPI   HO219687   1.841   0.543  11.198  0.7501 -0.8142  0.5998
  174SAPI   C1319688   1.856   0.467  10.903  0.7970  0.6114 -0.2720
  174SAPI    H319689   1.792   0.473  10.813  3.0764  0.4709 -2.0024
  174SAPI    O319690   1.823   0.332  10.961 -0.6535  0.1945 -0.0019
  174SAPI   HO319691   1.731   0.320  10.937 -0.2393  1.5235 -2.6238
  174SAPI   C1419692   2.002   0.480  10.865  0.3272  0.3080 -0.1986
  174SAPI    H419693   2.065   0.494  10.956 -0.9925  2.5790  0.4481
  174SAPI    O419694   2.044   0.363  10.793 -0.1714 -0.0177  0.4868
  174SAPI   HO419695   2.108   0.319  10.849  1.1655  2.1806  0.7823
  174SAPI   C1519696   2.033   0.614  10.791  0.3895  0.1564  0.1031
  174SAPI    H519697   1.968   0.605  10.702 -2.1553 -0.1913  1.8868
  174SAPI    O519698   2.171   0.626  10.755 -0.4515  0.3619 -0.0285
  174SAPI   HO519699   2.187   0.721  10.754  1.2618  0.1467  1.4397
  174SAPI   C1619700   1.989   0.732  10.878 -0.2950 -0.0425 -0.4183
  174SAPI    H619701   2.062   0.741  10.961 -1.0202  0.7122  0.1526
  174SAPI    O619702   1.991   0.848  10.794 -0.7449  0.4809 -0.1237
  174SAPI   HO619703   1.901   0.882  10.797 -0.2704  1.6957  0.9987
  174SAPI   C1119704   1.851   0.709  10.933 -0.5403  0.1605  0.5105
  174SAPI    H119705   1.772   0.698  10.854 -2.4847  0.9181  2.2570
  174SAPI     P19706   1.668   0.888  11.022 -0.1015 -0.0614  0.2652
  174SAPI   O1319707   1.638   0.965  11.149 -0.1239  0.0616 -0.2505
  174SAPI   O1419708   1.572   0.780  10.978 -0.3631  0.0124 -0.7304
  174SAPI   O1219709   1.819   0.820  11.018  0.0981 -0.0738 -0.1082
  174SAPI   O1119710   1.696   0.984  10.902  0.2069  0.3025  0.0037
  174SAPI    C119711   1.605   1.034  10.801 -0.9429  0.4242 -1.2393
  174SAPI    HA19712   1.505   1.047  10.846  0.0075  1.7321  0.6489
  174SAPI    HB19713   1.642   1.129  10.758 -0.5297  0.7791 -0.1440
  174SAPI    C219714   1.591   0.928  10.688  0.1002 -0.5817 -0.3342
  174SAPI    HS19715   1.568   0.830  10.735  1.3383 -1.7918 -2.0943
  174SAPI   O2119716   1.718   0.930  10.620  0.1076  0.2487  0.3468
  174SAPI   C2119717   1.754   0.812  10.576 -0.0858  1.3810  0.7886
  174SAPI   O2219718   1.717   0.698  10.612  0.1828 -0.5637  0.5505
  174SAPI   C2219719   1.866   0.833  10.475 -0.7674  0.0041 -0.5655
  174SAPI   H2R19720   1.873   0.938  10.440  2.1272 -0.2750 -1.0996
  174SAPI   H2S19721   1.962   0.802  10.522 -0.2739 -2.0668 -2.7294
  174SAPI    C319722   1.494   0.963  10.572 -0.1300 -0.4079 -0.4212
  174SAPI    HX19723   1.546   1.049  10.525 -0.3840 -0.1015 -0.1469
  174SAPI    HY19724   1.412   1.004  10.635  1.0753  1.2213  0.1748
  174SAPI   O3119725   1.458   0.852  10.494 -0.3975  0.5405 -0.1977
  174SAPI   C3119726   1.343   0.886  10.420 -0.8364  0.5572  0.0662
  174SAPI   O3219727   1.305   1.001  10.395  0.3841  0.1609  0.0098
  174SAPI   C3219728   1.265   0.762  10.364 -0.2034 -0.3654 -0.7114
  174SAPI   H2X19729   1.267   0.697  10.454  1.7214  1.4651  0.6584
  174SAPI   H2Y19730   1.337   0.718  10.291 -0.7435 -1.3212 -0.6964
  174SAPI   C2319731   1.852   0.752  10.345 -0.0931  0.3594  0.5183
  174SAPI   H3R19732   1.745   0.758  10.314  0.2202  2.4466 -0.3938
  174SAPI   H3S19733   1.892   0.655  10.380  0.8370  1.3984  2.5315
  174SAPI   C2419734   1.929   0.809  10.226 -0.8501 -0.4493  0.1966
  174SAPI   H4R19735   1.921   0.728  10.150 -1.3610 -1.5224  1.3633
  174SAPI   H4S19736   2.037   0.807  10.252 -0.7210 -0.0418 -0.2823
  174SAPI   C2519737   1.890   0.943  10.164  0.7712  0.2165 -0.0071
  174SAPI   H5R19738   1.914   1.030  10.227 -2.0817  3.3659 -2.8844
  174SAPI   C2619739   1.844   0.967  10.038 -0.4047 -0.0937  0.3404
  174SAPI   H6R19740   1.833   1.068   9.996  3.0770 -0.5402 -2.0591
  174SAPI   C2719741   1.806   0.864   9.930  0.3095 -0.1228 -0.1664
  174SAPI   H7R19742   1.783   0.764   9.972 -3.2302  0.3189 -0.7240
  174SAPI   H7S19743   1.893   0.860   9.861 -0.7459 -0.2673 -1.5307
  174SAPI   C2819744   1.691   0.908   9.843 -0.0189 -0.3514 -0.1747
  174SAPI   H8R19745   1.628   0.993   9.871 -0.8295 -0.4860 -1.4993
  174SAPI   C2919746   1.669   0.861   9.716 -0.6179 -0.0653  0.1002
  174SAPI   H9R19747   1.578   0.892   9.663 -0.3962 -1.3263 -1.0691
  174SAPI  C21019748   1.757   0.755   9.641  0.5896  0.2856 -0.7300
  174SAPI  H10R19749   1.827   0.711   9.716 -0.8800  1.7357  1.6363
  174SAPI  H10S19750   1.823   0.803   9.566  0.6911 -0.1040 -0.8900
  174SAPI  C21119751   1.671   0.641   9.588  0.3032 -0.1106 -0.7860
  174SAPI  H11R19752   1.635   0.571   9.665  1.2254  0.3539  0.0915
  174SAPI  C21219753   1.650   0.615   9.457 -0.0770  1.1644  0.2446
  174SAPI  H12R19754   1.582   0.529   9.442 -2.9634  3.7047 -2.8915
  174SAPI  C21319755   1.704   0.688   9.332 -0.2712 -0.5549  0.1904
  174SAPI  H13R19756   1.722   0.609   9.256  2.0890  1.1087 -1.1154
  174SAPI  H13S19757   1.805   0.735   9.328 -0.2754 -0.5651 -2.8118
  174SAPI  C21419758   1.604   0.788   9.271 -0.1913  0.6160 -0.2137
  174SAPI  H14R19759   1.575   0.875   9.333 -0.0935  0.9875 -0.6860
  174SAPI  C21519760   1.560   0.786   9.145 -0.2282  0.4488 -0.0766
  174SAPI  H15R19761   1.473   0.844   9.111 -0.3612  0.1030 -0.3283
  174SAPI  C21619762   1.594   0.680   9.042 -0.5322  0.5070 -0.3184
  174SAPI  H16R19763   1.506   0.614   9.044  0.9415 -1.5686 -0.7165
  174SAPI  H16S19764   1.683   0.614   9.052 -0.6132  0.2955 -0.9655
  174SAPI  C21719765   1.598   0.720   8.897 -0.3110 -0.1297  0.3446
  174SAPI  H17R19766   1.520   0.797   8.876  1.2955  1.4416 -0.1351
  174SAPI  H17S19767   1.582   0.636   8.827 -1.8677  0.9230 -0.6307
  174SAPI  C21819768   1.738   0.789   8.845  0.1501 -0.0220 -0.3701
  174SAPI  H18R19769   1.756   0.878   8.910  1.7249 -1.9926  2.1041
  174SAPI  H18S19770   1.725   0.810   8.737  0.0666 -0.8682 -0.5278
  174SAPI  C21919771   1.860   0.695   8.861 -0.0156 -0.3788  0.1691
  174SAPI  H19R19772   1.853   0.594   8.817 -3.0550 -1.5378  2.9066
  174SAPI  H19S19773   1.883   0.691   8.970  0.7957 -2.9955 -0.0385
  174SAPI  C22019774   1.985   0.758   8.793  0.3547  0.4444 -0.4494
  174SAPI  H20R19775   1.956   0.782   8.689 -1.2813  0.0117 -0.1357
  174SAPI  H20S19776   2.073   0.690   8.792  0.1379  0.1644 -1.1044
  174SAPI  H20T19777   2.027   0.851   8.837 -1.5382  0.2770  1.9410
  174SAPI   C3319778   1.125   0.794  10.303 -0.1499  0.5861  0.4671
  174SAPI   H3X19779   1.152   0.873  10.230 -0.8643 -0.3888 -0.9114
  174SAPI   H3Y19780   1.054   0.824  10.383  0.1250  0.2687  0.8337
  174SAPI   C3419781   1.065   0.671  10.226  0.2912 -0.0519  0.1055
  174SAPI   H4X19782   1.050   0.586  10.294  3.2410 -1.0976 -0.3969
  174SAPI   H4Y19783   1.132   0.624  10.150 -0.6177 -0.5248 -0.4149
  174SAPI   C3519784   0.937   0.704  10.147 -0.0017 -0.7211 -0.2205
  174SAPI   H5X19785   0.970   0.775  10.069 -1.1710 -0.7583 -0.7703
  174SAPI   H5Y19786   0.872   0.762  10.215  3.2540  0.6331  2.0120
  174SAPI   C3619787   0.866   0.573  10.109 -0.4746 -0.0142  0.0263
  174SAPI   H6X19788   0.830   0.523  10.201  2.1114 -0.8765  0.6227
  174SAPI   H6Y19789   0.948   0.519  10.057  1.1895  2.3952 -0.0376
  174SAPI   C3719790   0.757   0.587  10.005 -0.1727 -0.3200 -0.5238
  174SAPI   H7X19791   0.688   0.663  10.045  1.1661  0.9905 -0.6167
  174SAPI   H7Y19792   0.705   0.489  10.008 -0.5790 -0.1078 -0.6102
  174SAPI   C3819793   0.800   0.630   9.870 -0.9170  0.7564 -0.4417
  174SAPI   H8X19794   0.867   0.552   9.827 -0.9533 -0.0469  0.9339
  174SAPI   H8Y19795   0.864   0.721   9.879  3.3884 -1.6274 -3.0489
  174SAPI   C3919796   0.692   0.643   9.770 -0.1951 -0.2164 -0.5455
  174SAPI   H9X19797   0.614   0.710   9.811 -0.5110 -0.6006 -0.5171
  174SAPI   H9Y19798   0.638   0.548   9.750 -1.8668 -0.0413  2.4769
  174SAPI  C31019799   0.756   0.692   9.630  1.1540 -0.3598 -0.1242
  174SAPI  H10X19800   0.816   0.612   9.583 -0.1957 -1.5102  0.0336
  174SAPI  H10Y19801   0.826   0.777   9.643 -0.3475  1.0802 -1.0543
  174SAPI  C31119802   0.641   0.722   9.529  0.3870  0.2067 -0.0343
  174SAPI  H11X19803   0.578   0.803   9.574  0.6881  0.5490 -0.2255
  174SAPI  H11Y19804   0.574   0.634   9.520 -0.7587  1.1029 -0.6268
  174SAPI  C31219805   0.693   0.771   9.392  0.1383 -0.0849 -0.1363
  174SAPI  H12X19806   0.763   0.700   9.345  1.0047 -1.1930  2.6224
  174SAPI  H12Y19807   0.754   0.864   9.397  1.0467 -0.6174 -1.1303
  174SAPI  C31319808   0.577   0.787   9.286 -0.2106 -0.0190  0.4095
  174SAPI  H13X19809   0.510   0.872   9.311 -0.5065  0.5311 -1.9839
  174SAPI  H13Y19810   0.525   0.689   9.293  0.4545 -0.3466  0.8164
  174SAPI  C31419811   0.626   0.797   9.136 -0.2065 -0.5412  0.1367
  174SAPI  H14X19812   0.725   0.847   9.137 -0.4802 -0.0027  0.4275
  174SAPI  H14Y19813   0.563   0.868   9.077  1.3456  0.3861 -0.4607
  174SAPI  C31519814   0.624   0.663   9.077 -0.1584 -0.1982  0.5823
  174SAPI  H15X19815   0.524   0.618   9.066 -1.0051  2.0383 -1.8102
  174SAPI  H15Y19816   0.674   0.591   9.146 -0.2645 -0.5311  0.3115
  174SAPI  C31619817   0.687   0.658   8.935 -0.4549 -0.7343 -0.9014
  174SAPI  H16X19818   0.791   0.697   8.947 -0.4638 -0.5635 -1.3706
  174SAPI  H16Y19819   0.634   0.730   8.870 -0.6714  1.7062  1.7443
  174SAPI  C31719820   0.701   0.514   8.881 -0.4122  0.0483  0.8876
  174SAPI  H17X19821   0.603   0.462   8.876 -0.1069 -0.4425 -0.4436
  174SAPI  H17Y19822   0.755   0.449   8.953 -1.0445 -0.5617  0.8199
  174SAPI  C31819823   0.770   0.516   8.746  0.2669 -0.3182  0.0410
  174SAPI  H18X19824   0.789   0.413   8.711  0.8860 -0.4567  0.7521
  174SAPI  H18Y19825   0.874   0.553   8.763 -0.0541  0.5911  0.0924
  174SAPI  H18Z19826   0.720   0.569   8.662  0.9173 -1.1817 -0.9220
  175SAPI   C1219827   5.514   6.644   6.181 -0.1605 -0.0284  0.5577
  175SAPI    H219828   5.556   6.746   6.190  0.5735 -0.3699  1.1098
  175SAPI    O219829   5.376   6.649   6.224 -0.0980 -0.3589  0.3105
  175SAPI   HO219830   5.369   6.658   6.319 -0.1688  0.3984  0.2424
  175SAPI   C1319831   5.524   6.607   6.033 -0.7040  0.7529 -0.5625
  175SAPI    H319832   5.627   6.593   5.993  0.1226  1.9526  0.9845
  175SAPI    O319833   5.454   6.698   5.948 -0.2988 -0.1817 -0.0210
  175SAPI   HO319834   5.377   6.731   5.995  1.4511  3.0848  0.9045
  175SAPI   C1419835   5.454   6.470   6.011  0.5584  0.2284  0.1612
  175SAPI    H419836   5.352   6.477   6.056  1.1092 -0.0075  1.4964
  175SAPI    O419837   5.451   6.424   5.874 -0.5566 -0.1583  0.2744
  175SAPI   HO419838   5.365   6.387   5.853  0.0930 -2.2135  0.9303
  175SAPI   C1519839   5.527   6.365   6.103  0.3101 -0.9037  0.1445
  175SAPI    H519840   5.628   6.366   6.056  0.4147  4.3228 -0.0522
  175SAPI    O519841   5.459   6.240   6.094  0.0217  0.4542  0.7873
  175SAPI   HO519842   5.527   6.174   6.076 -0.8668 -0.0475 -0.8322
  175SAPI   C1619843   5.535   6.405   6.248 -0.2576 -0.5380  0.5823
  175SAPI    H619844   5.435   6.397   6.295 -0.6964  0.8705 -0.0311
  175SAPI    O619845   5.626   6.321   6.308  0.4020 -0.6892 -0.7102
  175SAPI   HO619846   5.579   6.272   6.375 -0.9478  0.8454 -0.4860
  175SAPI   C1119847   5.590   6.544   6.263 -0.4014 -0.0128  0.8756
  175SAPI    H119848   5.693   6.548   6.222 -0.2632  0.3320  1.2517
  175SAPI     P19849   5.681   6.718   6.452  0.1494  0.1338 -0.1262
  175SAPI   O1319850   5.606   6.835   6.402  0.3086 -0.1159 -0.7304
  175SAPI   O1419851   5.825   6.717   6.422  0.4699 -0.1831 -0.8394
  175SAPI   O1219852   5.603   6.585   6.396  0.2267 -0.0884 -0.1028
  175SAPI   O1119853   5.675   6.706   6.606  0.0691 -0.4465  0.2486
  175SAPI    C119854   5.566   6.655   6.678 -0.2169 -0.1720 -0.3916
  175SAPI    HA19855   5.478   6.723   6.669 -0.1690 -0.0095  0.3133
  175SAPI    HB19856   5.538   6.554   6.643  1.1798  0.2466 -2.9758
  175SAPI    C219857   5.609   6.642   6.832 -0.1418  0.0304  0.2888
  175SAPI    HS19858   5.515   6.625   6.889 -0.7193  1.3405 -0.2156
  175SAPI   O2119859   5.672   6.760   6.883 -0.5754  0.3462 -0.0799
  175SAPI   C2119860   5.619   6.882   6.870  0.0460 -0.6555 -0.8006
  175SAPI   O2219861   5.509   6.901   6.826 -0.0989  0.6495  0.9276
  175SAPI   C2219862   5.719   6.986   6.938 -0.1537  0.3934 -0.1133
  175SAPI   H2R19863   5.733   6.960   7.045  1.4485  0.2494 -0.3360
  175SAPI   H2S19864   5.815   6.976   6.884  0.7912  1.2966  1.3607
  175SAPI    C319865   5.704   6.518   6.844  0.1268 -0.4595 -1.0013
  175SAPI    HX19866   5.794   6.542   6.783  0.1977  1.0784 -0.3271
  175SAPI    HY19867   5.649   6.438   6.790 -0.8997  0.2882 -1.1104
  175SAPI   O3119868   5.737   6.497   6.984  0.3944  0.0718 -0.4352
  175SAPI   C3119869   5.661   6.414   7.052 -0.2025 -0.4421  1.4696
  175SAPI   O3219870   5.573   6.347   7.002  0.2199  0.1433  0.0791
  175SAPI   C3219871   5.692   6.428   7.201  0.0434  0.3561 -0.0120
  175SAPI   H2X19872   5.689   6.537   7.225 -2.3834  0.0878  1.2154
  175SAPI   H2Y19873   5.796   6.391   7.208 -0.0778 -0.5207 -2.1774
  175SAPI   C2319874   5.697   7.138   6.925 -0.0474 -0.0708 -0.1565
  175SAPI   H3R19875   5.658   7.176   6.829  2.0584 -1.5353 -1.6767
  175SAPI   H3S19876   5.794   7.190   6.941 -1.4427  2.3749  0.9002
  175SAPI   C2419877   5.611   7.198   7.038  0.0402  0.0175 -0.6392
  175SAPI   H4R19878   5.596   7.308   7.045 -1.7919 -0.2643  0.7452
  175SAPI   H4S19879   5.669   7.194   7.132  0.2402  2.6979 -0.5579
  175SAPI   C2519880   5.469   7.138   7.046  0.0136 -0.1441  0.3044
  175SAPI   H5R19881   5.414   7.124   6.952  1.3926 -2.1477 -0.2900
  175SAPI   C2619882   5.419   7.074   7.155 -0.6179  0.4562  0.0544
  175SAPI   H6R19883   5.327   7.018   7.133  0.6274 -1.2501 -1.0081
  175SAPI   C2719884   5.478   7.047   7.298 -0.1155 -0.2432  0.9805
  175SAPI   H7R19885   5.563   7.116   7.315 -0.3171  0.4729 -0.7235
  175SAPI   H7S19886   5.526   6.947   7.303  1.0797  0.3696  2.4291
  175SAPI   C2819887   5.373   7.061   7.406  0.2692 -0.7459 -0.0536
  175SAPI   H8R19888   5.269   7.052   7.371  0.3590  1.6888 -1.1290
  175SAPI   C2919889   5.403   7.054   7.538 -0.1886 -0.3803  0.1771
  175SAPI   H9R19890   5.324   7.050   7.614 -0.8839 -1.8878 -0.5689
  175SAPI  C21019891   5.545   7.050   7.595 -0.4055 -0.2239  0.2389
  175SAPI  H10R19892   5.569   7.159   7.603 -1.9797  0.2222 -0.5801
  175SAPI  H10S19893   5.621   7.015   7.522 -0.8208  0.4284 -0.5338
  175SAPI  C21119894   5.560   6.977   7.723  0.4571 -0.1920 -0.0601
  175SAPI  H11R19895   5.588   6.871   7.708  0.1139 -0.2986  0.0454
  175SAPI  C21219896   5.570   7.025   7.849 -0.2228  0.2255 -0.5538
  175SAPI  H12R19897   5.582   6.950   7.929  1.5160 -0.1941 -1.1672
  175SAPI  C21319898   5.554   7.163   7.902 -0.3187 -0.1761 -0.1000
  175SAPI  H13R19899   5.502   7.226   7.827 -0.3733  0.6320  0.6110
  175SAPI  H13S19900   5.659   7.197   7.911  1.3532 -4.5070 -0.7748
  175SAPI  C21419901   5.478   7.164   8.034 -0.6261 -0.7792 -0.5741
  175SAPI  H14R19902   5.369   7.171   8.023 -0.6937 -1.4045 -0.3234
  175SAPI  C21519903   5.529   7.152   8.159 -0.4235  0.2840  0.1065
  175SAPI  H15R19904   5.464   7.175   8.245 -1.8517  3.2810 -1.6104
  175SAPI  C21619905   5.675   7.125   8.203 -0.0644  0.2878 -0.0306
  175SAPI  H16R19906   5.726   7.212   8.249  3.2898 -0.5179 -1.9049
  175SAPI  H16S19907   5.725   7.092   8.110  1.4745  0.5111  0.6820
  175SAPI  C21719908   5.683   7.007   8.297  0.0620  0.2529  0.0435
  175SAPI  H17R19909   5.789   6.978   8.316  0.1172  0.3148 -0.1665
  175SAPI  H17S19910   5.638   6.923   8.241 -0.0866 -0.2726  0.9392
  175SAPI  C21819911   5.601   7.022   8.427  0.0356 -0.4518  0.2395
  175SAPI  H18R19912   5.493   7.010   8.405  0.2434 -0.3648 -0.8679
  175SAPI  H18S19913   5.605   7.127   8.463 -1.2861 -0.0504 -0.7123
  175SAPI  C21919914   5.644   6.930   8.542 -0.5260 -0.1270  0.2476
  175SAPI  H19R19915   5.621   6.826   8.508  3.7454 -1.9575  2.2330
  175SAPI  H19S19916   5.573   6.948   8.626 -1.2282 -2.0472  0.1225
  175SAPI  C22019917   5.787   6.947   8.588 -0.3493 -0.4467 -0.6227
  175SAPI  H20R19918   5.795   6.940   8.698  0.8524 -0.0935 -0.6689
  175SAPI  H20S19919   5.834   7.041   8.551  0.0654 -0.4268 -0.0588
  175SAPI  H20T19920   5.846   6.860   8.551  0.2649 -0.5308  0.5181
  175SAPI   C3319921   5.590   6.347   7.285  0.1108 -0.0662  0.8312
  175SAPI   H3X19922   5.556   6.258   7.228 -0.0762 -0.6567  1.8417
  175SAPI   H3Y19923   5.503   6.413   7.303 -0.1092 -0.0769 -0.1422
  175SAPI   C3419924   5.655   6.301   7.413  0.0360 -0.0751  0.0821
  175SAPI   H4X19925   5.658   6.383   7.488  2.1354 -0.4429  0.4490
  175SAPI   H4Y19926   5.756   6.259   7.395 -0.1199  0.1508 -1.5016
  175SAPI   C3519927   5.579   6.180   7.477  0.2278 -0.1511 -0.3074
  175SAPI   H5X19928   5.581   6.085   7.419 -2.8289 -2.4967  3.0223
  175SAPI   H5Y19929   5.471   6.197   7.460 -0.1566 -1.1732  1.0497
  175SAPI   C3619930   5.633   6.152   7.617 -0.1250  0.3238  0.2133
  175SAPI   H6X19931   5.632   6.247   7.674 -2.3252  0.8189 -0.5347
  175SAPI   H6Y19932   5.732   6.105   7.607  0.3091  1.0616  0.9308
  175SAPI   C3719933   5.538   6.051   7.695 -0.8476 -0.2644  0.2854
  175SAPI   H7X19934   5.544   5.952   7.645  0.9395  0.6848 -1.5153
  175SAPI   H7Y19935   5.440   6.102   7.701 -0.4694  0.3716  1.4261
  175SAPI   C3819936   5.570   6.040   7.846 -0.5891 -0.0377 -0.1354
  175SAPI   H8X19937   5.586   6.141   7.888  0.3777 -0.6561  1.0320
  175SAPI   H8Y19938   5.670   5.992   7.856 -0.3813  0.1549 -1.1626
  175SAPI   C3919939   5.464   5.960   7.933 -0.4013 -0.0298  0.0861
  175SAPI   H9X19940   5.444   5.853   7.909 -2.5199  0.2241  0.5673
  175SAPI   H9Y19941   5.370   6.014   7.912  0.6885  0.9709 -2.7434
  175SAPI  C31019942   5.473   5.969   8.088  0.2147 -0.0857 -0.4711
  175SAPI  H10X19943   5.495   6.074   8.116 -2.1763  0.8241 -1.7735
  175SAPI  H10Y19944   5.559   5.904   8.118 -0.1814 -0.1645  0.5381
  175SAPI  C31119945   5.350   5.919   8.176 -0.3394 -0.1262  0.0422
  175SAPI  H11X19946   5.342   5.810   8.159 -1.2495 -0.1119  0.3767
  175SAPI  H11Y19947   5.250   5.960   8.150  0.5808  1.6829 -0.8580
  175SAPI  C31219948   5.371   5.964   8.327  0.1724  0.3891  0.2304
  175SAPI  H12X19949   5.392   6.072   8.339 -1.8471  0.6714  1.8008
  175SAPI  H12Y19950   5.462   5.903   8.347 -0.3005 -0.3392  0.2382
  175SAPI  C31319951   5.259   5.919   8.426 -0.3007 -0.8414  0.2515
  175SAPI  H13X19952   5.259   5.808   8.431  1.8181 -0.9959 -1.4982
  175SAPI  H13Y19953   5.162   5.955   8.386 -0.5502 -1.2047  0.5310
  175SAPI  C31419954   5.262   5.968   8.570  0.0812 -0.3558 -0.0692
  175SAPI  H14X19955   5.276   6.078   8.572 -0.3943 -0.3035  0.8320
  175SAPI  H14Y19956   5.343   5.914   8.624 -0.9961 -1.3882  0.5615
  175SAPI  C31519957   5.130   5.931   8.638 -0.3396 -0.1851  0.2808
  175SAPI  H15X19958   5.109   5.826   8.608  0.1987  0.2368 -1.7478
  175SAPI  H15Y19959   5.061   6.003   8.590  1.4506  1.4667  0.0634
  175SAPI  C31619960   5.128   5.961   8.791 -0.6516  0.7186 -0.3510
  175SAPI  H16X19961   5.200   5.902   8.851 -2.1647  0.8509  1.7205
  175SAPI  H16Y19962   5.029   5.930   8.831 -0.0118  1.4525  1.9855
  175SAPI  C31719963   5.157   6.103   8.824 -0.0763  0.7118  0.4586
  175SAPI  H17X19964   5.109   6.160   8.742  1.3271  0.6148 -0.4610
  175SAPI  H17Y19965   5.267   6.117   8.814  0.0931 -1.4528 -1.6196
  175SAPI  C31819966   5.097   6.146   8.953  0.1601 -0.2030  0.1712
  175SAPI  H18X19967   5.154   6.233   8.992  0.8014 -0.5180 -0.0525
  175SAPI  H18Y19968   5.091   6.072   9.036 -1.8489  2.6601  2.7964
  175SAPI  H18Z19969   4.994   6.184   8.932  1.7377  5.4602  0.9903
  176SAPI   C1219970   4.845   3.374   6.277 -0.0805  0.9412  0.0795
  176SAPI    H219971   4.874   3.445   6.357  1.6940 -0.6892  0.9771
  176SAPI    O219972   4.857   3.448   6.152  0.1861  0.9150 -0.2867
  176SAPI   HO219973   4.777   3.501   6.151  0.0445  0.7068 -1.8262
  176SAPI   C1319974   4.932   3.250   6.293 -0.1591 -0.5273 -0.0556
  176SAPI    H319975   4.913   3.195   6.388 -0.2417 -1.0532 -0.3770
  176SAPI    O319976   5.073   3.286   6.303  1.0182 -0.0660  0.2297
  176SAPI   HO319977   5.100   3.301   6.394 -0.2596 -0.7572  0.7443
  176SAPI   C1419978   4.901   3.158   6.177  0.0240 -0.4093  0.8339
  176SAPI    H419979   4.933   3.200   6.079 -3.7808  0.0858 -0.3740
  176SAPI    O419980   4.984   3.037   6.183  0.1931 -0.0277 -0.1910
  176SAPI   HO419981   4.979   2.983   6.104  0.8653  0.3953 -0.5302
  176SAPI   C1519982   4.746   3.121   6.160 -0.1706  0.3141  0.6918
  176SAPI    H519983   4.717   3.048   6.238 -1.1189  1.5673  1.5555
  176SAPI    O519984   4.730   3.053   6.032  0.0158 -0.4132 -0.0806
  176SAPI   HO519985   4.661   2.989   6.049  0.4405 -0.3475  2.1720
  176SAPI   C1619986   4.662   3.251   6.167  0.5608  0.5913  0.4339
  176SAPI    H619987   4.674   3.313   6.075 -2.4583  2.1505  0.9464
  176SAPI    O619988   4.524   3.209   6.169  0.2811 -0.4582 -0.6906
  176SAPI   HO619989   4.474   3.254   6.101 -0.3699 -2.0533 -1.3214
  176SAPI   C1119990   4.695   3.330   6.290  0.1056  1.0890  0.6132
  176SAPI    H119991   4.687   3.272   6.384  1.4246  2.4251  1.5797
  176SAPI     P19992   4.542   3.487   6.434 -0.2277  0.4880  0.5414
  176SAPI   O1319993   4.461   3.368   6.473 -0.0945  0.8105 -0.2996
  176SAPI   O1419994   4.469   3.617   6.425 -0.1225 -0.9954  0.5077
  176SAPI   O1219995   4.624   3.455   6.295  0.2845  0.3216 -0.2340
  176SAPI   O1119996   4.655   3.512   6.536  0.3691 -0.1074 -1.0950
  176SAPI    C119997   4.690   3.423   6.645  0.0430 -0.0371  0.3772
  176SAPI    HA19998   4.678   3.317   6.614  2.0104 -0.0641 -0.4884
  176SAPI    HB19999   4.794   3.435   6.683 -0.1943  2.2780  0.4408
  176SAPI    C220000   4.598   3.443   6.769 -0.1934 -0.2896 -0.8729
  176SAPI    HS20001   4.496   3.412   6.740 -0.2261 -2.3528  1.1384
  176SAPI   O2120002   4.614   3.581   6.805  0.0477  0.2171 -0.0782
  176SAPI   C2120003   4.515   3.627   6.875 -0.2489 -0.0264 -0.2002
  176SAPI   O2220004   4.413   3.573   6.909 -0.2277  0.8371  0.0131
  176SAPI   C2220005   4.550   3.770   6.926  0.8149 -0.2436  0.6530
  176SAPI   H2R20006   4.615   3.813   6.847 -0.0834  0.8950  0.4933
  176SAPI   H2S20007   4.449   3.816   6.922  1.1889  0.5748  0.2962
  176SAPI    C320008   4.658   3.339   6.876 -0.0482  0.2291  0.2252
  176SAPI    HX20009   4.758   3.375   6.907 -0.7010  2.0574  0.3254
  176SAPI    HY20010   4.667   3.235   6.838  2.0116  1.0381 -1.7407
  176SAPI   O3120011   4.583   3.350   6.998 -0.7422  0.1362  0.2581
  176SAPI   C3120012   4.465   3.291   6.984 -0.0701  0.1419  1.1158
  176SAPI   O3220013   4.423   3.231   6.882  0.1426 -0.5345 -0.1040
  176SAPI   C3220014   4.376   3.298   7.115 -0.2053 -0.4498  0.4378
  176SAPI   H2X20015   4.271   3.277   7.084 -0.5750  0.4461  1.0617
  176SAPI   H2Y20016   4.380   3.407   7.135  0.4421 -0.5137  0.6892
  176SAPI   C2320017   4.604   3.775   7.068  0.2922  0.5486 -0.0510
  176SAPI   H3R20018   4.697   3.713   7.067 -1.5684 -2.4871  1.0956
  176SAPI   H3S20019   4.531   3.735   7.142  0.5527 -1.2984 -0.7341
  176SAPI   C2420020   4.649   3.915   7.108  0.4211 -0.6644 -0.1818
  176SAPI   H4R20021   4.717   3.945   7.026  1.9701  0.0428  1.3152
  176SAPI   H4S20022   4.701   3.907   7.206  0.2278  1.1300  0.0890
  176SAPI   C2520023   4.537   4.017   7.127 -0.7622 -0.1225 -0.0200
  176SAPI   H5R20024   4.505   4.058   7.030 -1.3358 -1.1229 -0.2628
  176SAPI   C2620025   4.495   4.067   7.242 -0.3263  0.0440 -0.3303
  176SAPI   H6R20026   4.412   4.140   7.240 -0.6982 -0.2179  2.2747
  176SAPI   C2720027   4.556   4.046   7.378  0.3260  0.6328 -0.2963
  176SAPI   H7R20028   4.545   4.144   7.429  0.5504  0.8174 -0.6015
  176SAPI   H7S20029   4.666   4.031   7.377  0.0900 -2.0568  1.7804
  176SAPI   C2820030   4.504   3.929   7.457  0.2140 -0.2814 -0.0432
  176SAPI   H8R20031   4.528   3.834   7.406 -0.3668  0.1115 -1.0973
  176SAPI   C2920032   4.420   3.915   7.564 -0.3825 -0.2460  0.1481
  176SAPI   H9R20033   4.389   3.815   7.598  0.0492  0.2634  2.2028
  176SAPI  C21020034   4.365   4.034   7.639 -0.0943  0.0308  0.0899
  176SAPI  H10R20035   4.444   4.110   7.658 -0.6875  0.7629 -0.3208
  176SAPI  H10S20036   4.323   4.012   7.740 -0.8550  0.3241 -0.1592
  176SAPI  C21120037   4.259   4.114   7.567  0.1324  0.3944 -0.0083
  176SAPI  H11R20038   4.224   4.071   7.472 -0.3810 -0.3660  0.5186
  176SAPI  C21220039   4.194   4.220   7.609  0.7013 -0.4886 -0.2926
  176SAPI  H12R20040   4.113   4.261   7.547 -1.5355  0.6491  3.1002
  176SAPI  C21320041   4.214   4.278   7.754  0.8484 -0.3104  0.5674
  176SAPI  H13R20042   4.323   4.276   7.775  1.3438 -1.2463 -1.8005
  176SAPI  H13S20043   4.156   4.213   7.823  0.8688  0.4825  1.3506
  176SAPI  C21420044   4.167   4.423   7.780  0.1971  0.2038  0.3666
  176SAPI  H14R20045   4.141   4.490   7.697  1.5437 -1.1399 -1.2037
  176SAPI  C21520046   4.145   4.476   7.902 -0.2914  0.0328 -0.1384
  176SAPI  H15R20047   4.114   4.582   7.911  0.8985  0.5078 -1.2984
  176SAPI  C21620048   4.164   4.414   8.042 -0.0189  0.1202 -0.0407
  176SAPI  H16R20049   4.219   4.318   8.031  1.1473  0.8886 -1.2493
  176SAPI  H16S20050   4.062   4.393   8.079 -0.2454  0.6065 -0.3811
  176SAPI  C21720051   4.239   4.494   8.142 -0.2419  0.4599  0.7760
  176SAPI  H17R20052   4.167   4.573   8.169 -1.5493  0.0542 -1.2462
  176SAPI  H17S20053   4.333   4.536   8.099  0.8590 -1.1886  1.4374
  176SAPI  C21820054   4.276   4.425   8.270  1.0190  0.2327 -0.9096
  176SAPI  H18R20055   4.359   4.352   8.255 -0.4599 -1.4507 -1.3560
  176SAPI  H18S20056   4.182   4.371   8.296  0.4397  0.5397 -2.2576
  176SAPI  C21920057   4.301   4.523   8.382  0.4470 -0.1515 -0.5060
  176SAPI  H19R20058   4.221   4.598   8.400  2.0559  1.4205  0.3133
  176SAPI  H19S20059   4.387   4.590   8.360 -0.5574  1.3009 -0.1435
  176SAPI  C22020060   4.331   4.451   8.520  0.0831  0.5106 -0.0270
  176SAPI  H20R20061   4.402   4.509   8.583  1.8170 -0.6331 -0.8649
  176SAPI  H20S20062   4.363   4.347   8.496 -1.6703 -0.0634 -0.0780
  176SAPI  H20T20063   4.234   4.441   8.574 -0.1881 -2.6044 -0.8899
  176SAPI   C3320064   4.403   3.201   7.235  0.5562 -0.1304  0.4600
  176SAPI   H3X20065   4.420   3.097   7.198 -0.2535  0.3817 -1.5354
  176SAPI   H3Y20066   4.306   3.204   7.289 -0.8747 -3.5357 -1.5555
  176SAPI   C3420067   4.528   3.240   7.312  0.3395  0.2690  0.2509
  176SAPI   H4X20068   4.523   3.348   7.338  1.2195  1.1636 -2.8222
  176SAPI   H4Y20069   4.614   3.227   7.242  1.0508  1.2554  0.9140
  176SAPI   C3520070   4.560   3.134   7.420  0.0249 -1.0716  0.6630
  176SAPI   H5X20071   4.667   3.119   7.445  0.2392 -0.4659  0.1301
  176SAPI   H5Y20072   4.521   3.039   7.377 -1.8134 -0.2176  0.3174
  176SAPI   C3620073   4.493   3.165   7.556  0.0118  0.9525 -0.2390
  176SAPI   H6X20074   4.382   3.157   7.551 -0.0256  1.2082  0.1242
  176SAPI   H6Y20075   4.531   3.269   7.567  0.6921  0.7833 -0.8946
  176SAPI   C3720076   4.543   3.071   7.669 -0.8102  0.3600 -0.1184
  176SAPI   H7X20077   4.647   3.050   7.636 -0.5864  1.5326 -0.1770
  176SAPI   H7Y20078   4.496   2.970   7.660 -2.9524  0.9851  2.7739
  176SAPI   C3820079   4.526   3.129   7.806 -0.3767  0.3345 -0.4831
  176SAPI   H8X20080   4.424   3.172   7.811 -0.0993  0.9381  0.1786
  176SAPI   H8Y20081   4.596   3.215   7.816 -0.5641  0.4894 -0.4960
  176SAPI   C3920082   4.540   3.033   7.926  0.3939  0.4378 -0.2502
  176SAPI   H9X20083   4.644   2.995   7.927  0.3111  0.1550 -1.4574
  176SAPI   H9Y20084   4.474   2.944   7.916 -1.2342  1.7911 -2.4193
  176SAPI  C31020085   4.505   3.098   8.063  0.6374  0.7398  0.3236
  176SAPI  H10X20086   4.405   3.145   8.048 -0.4267 -1.8019 -1.4772
  176SAPI  H10Y20087   4.571   3.187   8.065 -0.7497  1.8030  0.0807
  176SAPI  C31120088   4.505   3.004   8.182  0.3811  0.6262  0.0647
  176SAPI  H11X20089   4.585   2.928   8.169 -0.2014 -0.0684  0.4868
  176SAPI  H11Y20090   4.399   2.972   8.194  0.6340 -0.1485  0.3035
  176SAPI  C31220091   4.533   3.071   8.315  0.8807 -0.0379  0.0921
  176SAPI  H12X20092   4.448   3.130   8.354  0.5298 -0.2845 -0.2923
  176SAPI  H12Y20093   4.608   3.151   8.297 -0.1067  1.5742  2.5709
  176SAPI  C31320094   4.572   2.971   8.427  1.0178 -0.8948 -0.6806
  176SAPI  H13X20095   4.581   3.031   8.520  0.7414 -0.0102 -1.2096
  176SAPI  H13Y20096   4.671   2.929   8.400  1.1361 -0.9990 -0.0925
  176SAPI  C31420097   4.475   2.853   8.451  0.7434  0.5591 -0.8117
  176SAPI  H14X20098   4.457   2.796   8.358  1.0381 -0.2191 -0.4079
  176SAPI  H14Y20099   4.373   2.889   8.477  0.0994 -2.5317  1.6903
  176SAPI  C31520100   4.510   2.746   8.557  0.2207  0.6390 -0.3683
  176SAPI  H15X20101   4.619   2.744   8.578  0.4746 -0.2638 -1.6402
  176SAPI  H15Y20102   4.478   2.644   8.528  0.1357  0.5387  0.0732
  176SAPI  C31620103   4.433   2.773   8.688  0.9195  0.4970 -0.3393
  176SAPI  H16X20104   4.431   2.881   8.714  1.2313  0.0505  1.7003
  176SAPI  H16Y20105   4.489   2.713   8.762 -0.5286 -0.4356  0.0431
  176SAPI  C31720106   4.284   2.723   8.700 -0.2499 -0.6826 -0.8424
  176SAPI  H17X20107   4.224   2.761   8.614 -1.8643 -0.4644  0.3298
  176SAPI  H17Y20108   4.231   2.764   8.789  1.9025 -2.3585  1.3397
  176SAPI  C31820109   4.271   2.572   8.718 -0.0542 -0.9248  0.1440
  176SAPI  H18X20110   4.307   2.535   8.620 -2.7989 -0.6181 -1.0669
  176SAPI  H18Y20111   4.167   2.540   8.741 -0.2825  0.2205  0.8069
  176SAPI  H18Z20112   4.342   2.525   8.790  1.0143  0.7060  0.2196
  177SLPC     N20113   3.886   0.260  11.383 -0.3275  0.3400  0.0885
  177SLPC   C1320114   3.813   0.344  11.472  0.2892  0.0868 -0.4044
  177SLPC  H13A20115   3.716   0.301  11.491  1.8935 -3.4969  0.5771
  177SLPC  H13B20116   3.856   0.338  11.571  2.4324 -5.1082 -1.3244
  177SLPC  H13C20117   3.801   0.449  11.452  1.0549  0.5093  1.1595
  177SLPC   C1420118   3.841   0.114  11.423  0.1406 -0.2269  0.1372
  177SLPC  H14A20119   3.900   0.046  11.364  0.7719  0.5755 -0.1693
  177SLPC  H14B20120   3.844   0.082  11.527 -0.3982 -0.6561  0.0304
  177SLPC  H14C20121   3.737   0.105  11.392  0.2991 -0.5905 -0.2969
  177SLPC   C1520122   4.032   0.275  11.401  0.1174  0.4214  0.1829
  177SLPC  H15A20123   4.088   0.222  11.477 -0.8625 -0.0437  0.6034
  177SLPC  H15B20124   4.083   0.245  11.311  1.2911 -1.0503  1.2673
  177SLPC  H15C20125   4.055   0.378  11.425  0.8199  0.7562 -1.7570
  177SLPC   C1220126   3.836   0.289  11.245  0.5390 -0.0247  1.0626
  177SLPC  H12A20127   3.730   0.269  11.246  0.6087 -0.4509  2.7836
  177SLPC  H12B20128   3.886   0.225  11.175  0.1339  0.2185  0.5441
  177SLPC   C1120129   3.853   0.429  11.171 -0.1311  0.0244 -0.9993
  177SLPC  H11A20130   3.810   0.412  11.069 -0.7358  0.5132 -0.8335
  177SLPC  H11B20131   3.962   0.448  11.160  0.2390 -1.5024 -0.1723
  177SLPC     P20132   3.630   0.578  11.201 -0.0271  0.2175  0.4944
  177SLPC   O1320133   3.537   0.475  11.245 -0.2662  0.3552  0.2991
  177SLPC   O1420134   3.611   0.713  11.255  0.2244  0.3175 -0.3365
  177SLPC   O1220135   3.776   0.528  11.244  0.0869  0.5906  0.3007
  177SLPC   O1120136   3.631   0.574  11.042  0.5237 -0.1957 -0.2352
  177SLPC    C120137   3.723   0.652  10.959 -0.1184 -0.1852  0.5121
  177SLPC    HA20138   3.811   0.676  11.022  0.5848 -0.1301 -0.4677
  177SLPC    HB20139   3.771   0.589  10.881 -1.9177  1.6640 -2.2530
  177SLPC    C220140   3.668   0.781  10.894  0.2810 -0.4542 -0.2888
  177SLPC    HS20141   3.617   0.849  10.966 -0.8499  0.5319 -1.9540
  177SLPC   O2120142   3.570   0.748  10.796 -0.1897  0.1934  0.7688
  177SLPC   C2120143   3.448   0.731  10.845  0.3674  0.2183 -0.1157
  177SLPC   O2220144   3.416   0.730  10.964  0.1904  0.3313 -0.3640
  177SLPC   C2220145   3.342   0.723  10.730 -0.5367  0.1529 -0.3651
  177SLPC   H2R20146   3.282   0.629  10.727 -0.5638  0.1823 -0.7730
  177SLPC   H2S20147   3.266   0.804  10.735  0.5446  1.2308 -0.9464
  177SLPC    C320148   3.775   0.852  10.814  0.2282  0.0600 -0.2441
  177SLPC    HX20149   3.821   0.783  10.740 -0.9852 -0.6596 -0.3595
  177SLPC    HY20150   3.859   0.885  10.878 -0.5399 -0.8387  1.3026
  177SLPC   O3120151   3.718   0.957  10.737  0.2266  0.4281 -0.7866
  177SLPC   C3120152   3.724   1.075  10.798 -0.3671  0.7111  0.4831
  177SLPC   O3220153   3.772   1.098  10.910  0.2088  0.1051 -0.1443
  177SLPC   C3220154   3.663   1.181  10.713 -0.2283 -0.5561 -0.0163
  177SLPC   H2X20155   3.736   1.260  10.684 -2.6636  1.4115 -1.2253
  177SLPC   H2Y20156   3.582   1.234  10.768 -0.7830  0.1320 -1.4374
  177SLPC   C2320157   3.412   0.742  10.591  0.4757 -0.0621 -0.1759
  177SLPC   H3R20158   3.496   0.671  10.576 -0.5516 -1.6912  1.2504
  177SLPC   H3S20159   3.467   0.838  10.587  1.3517 -0.4506  1.3315
  177SLPC   C2420160   3.313   0.767  10.469 -0.1732  0.3911  0.0995
  177SLPC   H4R20161   3.380   0.774  10.381 -2.1532 -0.6644 -1.5871
  177SLPC   H4S20162   3.255   0.861  10.484 -3.0187 -1.0097 -1.3075
  177SLPC   C2520163   3.207   0.659  10.443  0.4333  0.1495 -0.2274
  177SLPC   H5R20164   3.142   0.653  10.533 -0.7269 -1.0825 -1.0985
  177SLPC   H5S20165   3.258   0.560  10.439  0.6268  0.2564 -0.4135
  177SLPC   C2620166   3.119   0.676  10.321 -0.4483  0.7065 -0.1067
  177SLPC   H6R20167   3.053   0.765  10.329 -1.9421 -0.2043 -1.5482
  177SLPC   H6S20168   3.052   0.588  10.315  1.8351 -1.0400 -3.2058
  177SLPC   C2720169   3.199   0.681  10.193  0.1136 -0.3999  0.0298
  177SLPC   H7R20170   3.264   0.592  10.179 -0.5283 -0.8559 -0.1150
  177SLPC   H7S20171   3.262   0.772  10.187  0.8013 -0.7059  1.9570
  177SLPC   C2820172   3.101   0.703  10.074  0.4315  0.1821  1.0997
  177SLPC   H8R20173   3.067   0.807  10.091  1.3664  0.9750 -1.3744
  177SLPC   H8S20174   3.016   0.631  10.084 -0.1239  0.5427 -0.6406
  177SLPC   C2920175   3.166   0.687   9.941  0.2310 -0.8411  0.1149
  177SLPC   H9R20176   3.223   0.593   9.933  3.4320  0.9330  0.3933
  177SLPC  C21020177   3.177   0.777   9.842  0.4384  0.3909  0.0752
  177SLPC  H10R20178   3.236   0.755   9.752  1.0045 -0.9022  0.7471
  177SLPC  C21120179   3.115   0.915   9.837 -0.7662  0.0479  0.5745
  177SLPC  H11R20180   3.018   0.923   9.784 -1.3518 -1.7004  1.3001
  177SLPC  H11S20181   3.080   0.948   9.937 -2.6685  0.5854 -0.2275
  177SLPC  C21220182   3.222   1.011   9.792  0.1157  0.7247 -0.2709
  177SLPC  H12R20183   3.276   1.054   9.878  2.0476  0.1795 -1.1332
  177SLPC  C21320184   3.251   1.066   9.674  0.7571 -0.2722 -0.3188
  177SLPC  H13R20185   3.333   1.140   9.670  2.8773 -2.3026  2.2004
  177SLPC  C21420186   3.176   1.036   9.543  0.1508  0.2195  0.0834
  177SLPC  H14R20187   3.083   0.978   9.560  0.8261 -0.8796  0.0776
  177SLPC  H14S20188   3.239   0.974   9.475  2.1877  2.4450 -0.2197
  177SLPC  C21520189   3.151   1.173   9.485 -0.1295 -0.4634 -0.1494
  177SLPC  H15R20190   3.247   1.219   9.452 -0.8868  0.4966 -1.0840
  177SLPC  H15S20191   3.103   1.238   9.561 -0.2070  0.9231 -1.3406
  177SLPC  C21620192   3.057   1.176   9.364  0.5025  0.0889 -0.4307
  177SLPC  H16R20193   2.958   1.144   9.402  1.6625 -0.8845  1.9352
  177SLPC  H16S20194   3.104   1.101   9.297  2.1606  0.5587  0.1627
  177SLPC  C21720195   3.060   1.314   9.293 -0.3189 -0.0993  0.0235
  177SLPC  H17R20196   3.069   1.385   9.378 -0.7465 -0.3914  0.3164
  177SLPC  H17S20197   2.963   1.321   9.240  0.3592  1.2823 -1.1043
  177SLPC  C21820198   3.181   1.328   9.203  0.2308 -0.1159 -0.2561
  177SLPC  H18R20199   3.262   1.259   9.233 -0.5629 -1.4207 -1.0242
  177SLPC  H18S20200   3.218   1.433   9.205  0.0308 -0.0218 -1.2323
  177SLPC  H18T20201   3.151   1.303   9.099 -2.6912  0.0026  0.4654
  177SLPC   C3320202   3.590   1.130  10.584 -0.5013  0.7190 -0.2343
  177SLPC   H3X20203   3.496   1.077  10.612  0.4096 -1.2400 -0.7225
  177SLPC   H3Y20204   3.654   1.057  10.531 -1.4957  0.1104 -0.6371
  177SLPC   C3420205   3.547   1.243  10.486  0.1986  0.5844  0.5532
  177SLPC   H4X20206   3.516   1.333  10.544  1.2370  1.1376  0.2675
  177SLPC   H4Y20207   3.462   1.209  10.423  1.8747 -1.8390 -0.5548
  177SLPC   C3520208   3.656   1.295  10.388 -0.0202 -0.2536 -0.3849
  177SLPC   H5X20209   3.693   1.204  10.336  2.3846  0.9980 -1.0198
  177SLPC   H5Y20210   3.737   1.333  10.454 -0.1008 -2.4961  1.1272
  177SLPC   C3620211   3.603   1.411  10.297  0.6203 -0.9095  0.1665
  177SLPC   H6X20212   3.579   1.504  10.355 -0.5099 -0.3861 -1.0860
  177SLPC   H6Y20213   3.515   1.386  10.235  2.0104 -1.6967 -1.5458
  177SLPC   C3720214   3.712   1.461  10.200  0.4035  0.3434 -0.3301
  177SLPC   H7X20215   3.711   1.396  10.111  0.3631 -1.5704  1.0054
  177SLPC   H7Y20216   3.813   1.462  10.246 -0.2077  0.1865  1.0772
  177SLPC   C3820217   3.690   1.611  10.156  0.0031  0.8375  1.2085
  177SLPC   H8X20218   3.703   1.672  10.248 -0.0174  2.5351  0.1267
  177SLPC   H8Y20219   3.585   1.629  10.125 -0.6806 -0.4858  2.6142
  177SLPC   C3920220   3.780   1.651  10.036 -0.2058 -0.3846  0.0983
  177SLPC   H9X20221   3.887   1.650  10.069 -0.2846  0.3510  0.4075
  177SLPC   H9Y20222   3.755   1.755  10.006 -0.5236  0.0835  1.8540
  177SLPC  C31020223   3.760   1.565   9.911  0.4489 -0.3094 -0.1166
  177SLPC  H10X20224   3.651   1.554   9.892  0.3583  0.9402 -0.4070
  177SLPC  H10Y20225   3.793   1.461   9.930  0.6430 -0.1282  0.5757
  177SLPC  C31120226   3.839   1.620   9.782  0.2186 -0.1581 -0.3819
  177SLPC  H11X20227   3.948   1.615   9.802  0.4906 -1.5236 -1.9725
  177SLPC  H11Y20228   3.796   1.722   9.776 -1.8493 -0.4783  4.3130
  177SLPC  C31220229   3.809   1.550   9.650 -0.1621  0.0301  0.1241
  177SLPC  H12X20230   3.700   1.537   9.631  0.4747 -1.6645 -3.1033
  177SLPC  H12Y20231   3.846   1.445   9.658 -0.6801 -0.0924  0.9892
  177SLPC  C31320232   3.868   1.622   9.533 -0.0174 -0.1136  0.5580
  177SLPC  H13X20233   3.978   1.634   9.545  1.0675  0.1105 -5.8246
  177SLPC  H13Y20234   3.820   1.722   9.527 -2.5664 -0.9085  4.3173
  177SLPC  C31420235   3.843   1.551   9.394 -0.0373 -0.8909 -0.2219
  177SLPC  H14X20236   3.736   1.539   9.369 -0.2007  0.4935 -0.2642
  177SLPC  H14Y20237   3.882   1.448   9.406  0.1656 -0.8286 -0.3410
  177SLPC  C31520238   3.894   1.633   9.277 -0.2744  1.0588  0.1955
  177SLPC  H15X20239   4.004   1.641   9.294 -0.1573 -0.9596  0.7324
  177SLPC  H15Y20240   3.857   1.737   9.284 -2.5141  0.3709 -0.5119
  177SLPC  C31620241   3.869   1.581   9.131  0.3012  0.7736 -0.2033
  177SLPC  H16X20242   3.762   1.578   9.100  0.9553 -0.7289 -2.4791
  177SLPC  H16Y20243   3.903   1.476   9.126  0.4361  0.7187  1.3665
  177SLPC  C31720244   3.946   1.655   9.020  0.7606  0.1441  0.3650
  177SLPC  H17X20245   4.055   1.637   9.010  0.4960 -0.6974 -1.4659
  177SLPC  H17Y20246   3.913   1.761   9.021  1.1502  0.2931 -0.8141
  177SLPC  C31820247   3.897   1.604   8.886 -0.5288  0.2271 -0.1190
  177SLPC  H18X20248   3.792   1.638   8.871 -0.3068 -0.0428 -2.7440
  177SLPC  H18Y20249   3.894   1.493   8.885 -1.2604  0.2389 -0.0209
  177SLPC  H18Z20250   3.961   1.641   8.804  0.8667 -0.1411  0.7727
  178SLPC     N20251   6.180   3.174  11.370 -0.0501  0.0493 -0.3958
  178SLPC   C1320252   6.324   3.215  11.378  0.7653  0.0804 -0.0671
  178SLPC  H13A20253   6.385   3.133  11.340 -0.3702 -0.4127 -0.8971
  178SLPC  H13B20254   6.346   3.304  11.321  5.5356 -0.9253 -0.2223
  178SLPC  H13C20255   6.358   3.236  11.478  0.3352  1.0368 -0.1193
  178SLPC   C1420256   6.090   3.282  11.437 -0.6919 -0.1161  0.7137
  178SLPC  H14A20257   6.107   3.299  11.542 -2.8404 -0.8736  1.2356
  178SLPC  H14B20258   6.119   3.372  11.385 -0.3227  0.1177  1.3053
  178SLPC  H14C20259   5.985   3.261  11.423  0.0948 -4.9491  0.2269
  178SLPC   C1520260   6.157   3.047  11.445 -0.1941  0.1154  0.1220
  178SLPC  H15A20261   6.186   3.060  11.548 -1.9624 -1.5504  0.8839
  178SLPC  H15B20262   6.053   3.019  11.441  0.1669 -1.6358  1.4701
  178SLPC  H15C20263   6.202   2.956  11.407  2.6757  2.0822 -1.5769
  178SLPC   C1220264   6.141   3.149  11.229 -0.4911  0.0203  0.4160
  178SLPC  H12A20265   6.044   3.102  11.232 -0.7877  0.5833 -0.0342
  178SLPC  H12B20266   6.205   3.074  11.186  1.9335  1.5014  1.2401
  178SLPC   C1120267   6.152   3.266  11.121 -0.0370 -0.0995  0.0569
  178SLPC  H11A20268   6.124   3.227  11.022  1.2198 -0.1690 -0.2951
  178SLPC  H11B20269   6.259   3.296  11.117 -0.5947  2.4874  1.7384
  178SLPC     P20270   6.107   3.513  11.151  0.0372 -0.2903  0.2118
  178SLPC   O1320271   6.130   3.558  11.291  0.2443  0.0999  0.4651
  178SLPC   O1420272   6.222   3.531  11.061  0.4459  0.1615  0.5889
  178SLPC   O1220273   6.060   3.364  11.154  0.9775 -0.7872 -0.3092
  178SLPC   O1120274   5.985   3.589  11.087 -0.4775  0.1525  0.0537
  178SLPC    C120275   5.903   3.531  10.988  0.2193  0.6504  0.3368
  178SLPC    HA20276   5.938   3.431  10.954 -0.6996  0.2958  0.4037
  178SLPC    HB20277   5.796   3.528  11.019  0.6352 -1.3942  1.8341
  178SLPC    C220278   5.900   3.624  10.851 -0.0591  0.7046  0.2980
  178SLPC    HS20279   5.830   3.588  10.773 -0.2866 -0.7336  1.1294
  178SLPC   O2120280   6.032   3.645  10.797 -0.8167 -0.0288 -0.0986
  178SLPC   C2120281   6.084   3.536  10.740 -0.2406 -0.2982 -0.5873
  178SLPC   O2220282   6.021   3.429  10.732  0.3134  0.2579  0.7229
  178SLPC   C2220283   6.233   3.561  10.684  0.0620  0.0211  0.4274
  178SLPC   H2R20284   6.298   3.602  10.765  1.2839  0.7496 -0.8851
  178SLPC   H2S20285   6.276   3.466  10.647 -2.3358 -1.4451  1.1918
  178SLPC    C320286   5.845   3.758  10.902 -0.1410 -0.6176  0.7694
  178SLPC    HX20287   5.901   3.797  10.990  0.0145 -1.0890  0.8836
  178SLPC    HY20288   5.742   3.736  10.939 -0.2219 -0.8676  0.4025
  178SLPC   O3120289   5.825   3.849  10.794 -0.2589 -0.0676 -0.3071
  178SLPC   C3120290   5.925   3.921  10.769  0.1230 -0.2992 -0.5062
  178SLPC   O3220291   6.024   3.929  10.836 -0.1642  0.3746  0.6870
  178SLPC   C3220292   5.896   3.998  10.645 -0.3541 -0.1433 -0.1608
  178SLPC   H2X20293   5.920   4.104  10.668  1.8191 -0.8228  0.9836
  178SLPC   H2Y20294   5.786   3.990  10.626 -0.5693  0.2243  0.8627
  178SLPC   C2320295   6.239   3.671  10.578  0.2285  0.6708 -0.2186
  178SLPC   H3R20296   6.332   3.723  10.608 -1.0439  2.9626 -0.0360
  178SLPC   H3S20297   6.161   3.750  10.577  0.4456  0.8939  0.2242
  178SLPC   C2420298   6.275   3.642  10.428 -0.5075 -0.5164 -0.2540
  178SLPC   H4R20299   6.377   3.600  10.429 -0.2047  0.2064  0.0874
  178SLPC   H4S20300   6.262   3.741  10.378 -1.1210 -0.1298  0.6405
  178SLPC   C2520301   6.191   3.533  10.357  0.2448  0.4657 -0.1938
  178SLPC   H5R20302   6.214   3.449  10.426  2.6787  0.2252 -1.2062
  178SLPC   H5S20303   6.250   3.518  10.264  0.4538 -0.4952  0.0783
  178SLPC   C2620304   6.043   3.556  10.337  0.4647 -0.3569 -0.0864
  178SLPC   H6R20305   6.038   3.649  10.276  0.2303 -1.2704 -1.5122
  178SLPC   H6S20306   6.007   3.585  10.438  1.3614 -0.0276  0.1512
  178SLPC   C2720307   5.964   3.442  10.267 -0.3709  0.0089  1.0150
  178SLPC   H7R20308   5.854   3.454  10.274 -0.6317  1.4796 -3.0882
  178SLPC   H7S20309   5.990   3.350  10.324 -0.0973 -0.3479  0.3259
  178SLPC   C2820310   5.998   3.418  10.120 -0.0410 -0.1639 -0.6216
  178SLPC   H8R20311   5.920   3.346  10.088  0.8467 -0.1399 -3.0494
  178SLPC   H8S20312   6.101   3.379  10.107  0.3972  0.5002  0.6613
  178SLPC   C2920313   5.988   3.536  10.033 -0.4817 -0.2418  0.6820
  178SLPC   H9R20314   5.948   3.627  10.081 -0.8444 -0.4408  0.7568
  178SLPC  C21020315   6.052   3.554   9.912  0.5766  0.5975  0.0950
  178SLPC  H10R20316   6.049   3.659   9.880 -0.6375  0.5695  0.0644
  178SLPC  C21120317   6.126   3.453   9.833 -0.6275  0.6507  0.5730
  178SLPC  H11R20318   6.188   3.398   9.907  0.3736  3.0228  1.6083
  178SLPC  H11S20319   6.192   3.502   9.760  0.1916 -0.6156  0.4342
  178SLPC  C21220320   6.025   3.358   9.768  0.2715 -0.0711  0.2989
  178SLPC  H12R20321   5.961   3.306   9.841 -0.2653  1.3747  0.9030
  178SLPC  C21320322   6.004   3.330   9.637  0.1690  0.1036  0.7569
  178SLPC  H13R20323   5.912   3.278   9.606 -0.9343  0.9361  2.4690
  178SLPC  C21420324   6.097   3.378   9.526  0.6189 -0.5888  0.1467
  178SLPC  H14R20325   6.195   3.332   9.550  1.1564  0.3686 -0.1693
  178SLPC  H14S20326   6.112   3.488   9.521  0.3794 -0.5786 -0.3904
  178SLPC  C21520327   6.047   3.331   9.387 -0.0253 -0.2120  0.0175
  178SLPC  H15R20328   5.950   3.380   9.368  1.0809  2.7300  1.3543
  178SLPC  H15S20329   6.012   3.226   9.397  0.3963 -0.2257  1.7652
  178SLPC  C21620330   6.146   3.339   9.267  0.4701  0.1970 -0.0061
  178SLPC  H16R20331   6.232   3.269   9.269 -0.2336 -0.7812 -1.8108
  178SLPC  H16S20332   6.176   3.446   9.269 -2.5782  1.1502  0.6307
  178SLPC  C21720333   6.076   3.305   9.137  0.1609  0.0258 -0.7780
  178SLPC  H17R20334   5.976   3.355   9.145 -0.3013 -1.0461  0.4364
  178SLPC  H17S20335   6.058   3.196   9.127 -0.9742  0.2011 -0.7957
  178SLPC  C21820336   6.149   3.368   9.020 -0.0736  0.2282  0.2095
  178SLPC  H18R20337   6.116   3.335   8.919  1.8618  0.8403 -0.6759
  178SLPC  H18S20338   6.255   3.338   9.028 -0.3302 -0.7228  0.2695
  178SLPC  H18T20339   6.154   3.479   9.020 -2.4968  0.4200  1.9651
  178SLPC   C3320340   5.960   3.953  10.518  0.3724  0.0536  0.3463
  178SLPC   H3X20341   5.907   3.862  10.483 -2.3405  2.2487 -1.7298
  178SLPC   H3Y20342   6.070   3.939  10.516  0.4412  0.4985  0.8822
  178SLPC   C3420343   5.934   4.060  10.406  0.1063  0.8173 -0.2694
  178SLPC   H4X20344   5.993   4.152  10.430  1.0985 -0.0032  0.5384
  178SLPC   H4Y20345   5.830   4.095  10.391 -1.1584 -1.8524  1.6216
  178SLPC   C3520346   5.995   4.018  10.270  0.1199 -0.0181 -0.1026
  178SLPC   H5X20347   5.933   3.934  10.234  1.3257 -1.2909  0.6972
  178SLPC   H5Y20348   6.097   3.977  10.288  0.7706  1.2447 -0.6995
  178SLPC   C3620349   5.998   4.143  10.182 -0.2696 -0.7060  0.0088
  178SLPC   H6X20350   6.087   4.131  10.118 -1.7272 -2.2914 -1.8356
  178SLPC   H6Y20351   6.006   4.227  10.255  3.3951 -2.4684  1.8769
  178SLPC   C3720352   5.873   4.155  10.088  0.4408  0.0545 -0.4415
  178SLPC   H7X20353   5.787   4.127  10.153  0.4008 -1.1128 -0.9768
  178SLPC   H7Y20354   5.882   4.085  10.002  0.4442  1.1470 -1.3647
  178SLPC   C3820355   5.864   4.287  10.022  0.3298  0.1693  0.1616
  178SLPC   H8X20356   5.879   4.372  10.092  1.1853  0.8482 -0.8258
  178SLPC   H8Y20357   5.760   4.312   9.989  0.7473  0.5104 -0.9397
  178SLPC   C3920358   5.948   4.303   9.898  0.3618 -1.0680  0.1764
  178SLPC   H9X20359   5.938   4.214   9.832  0.1297  0.5996 -2.1479
  178SLPC   H9Y20360   6.055   4.308   9.928  0.7233  0.2657 -1.2118
  178SLPC  C31020361   5.937   4.434   9.815 -0.2632  0.7637 -0.2576
  178SLPC  H10X20362   5.961   4.512   9.890 -0.1569 -1.4986  2.1951
  178SLPC  H10Y20363   5.827   4.445   9.798 -0.2075  1.5759 -0.1132
  178SLPC  C31120364   6.024   4.438   9.686 -0.4541  0.3455 -0.5811
  178SLPC  H11X20365   5.998   4.343   9.634 -2.2753  0.0277  0.7862
  178SLPC  H11Y20366   6.131   4.435   9.717 -0.6977 -0.7186  0.2242
  178SLPC  C31220367   5.995   4.563   9.613 -0.2450  0.2818  0.2010
  178SLPC  H12X20368   6.034   4.644   9.678 -0.7830  0.1319  0.7148
  178SLPC  H12Y20369   5.885   4.570   9.603 -0.2647 -1.2589 -0.9593
  178SLPC  C31320370   6.052   4.564   9.473 -0.0982  0.0139 -0.6503
  178SLPC  H13X20371   6.016   4.474   9.419 -1.1798 -0.9205  1.4996
  178SLPC  H13Y20372   6.161   4.584   9.480 -0.5788  2.4603  1.4007
  178SLPC  C31420373   6.000   4.680   9.389  0.3682 -0.1012  0.5625
  178SLPC  H14X20374   6.033   4.775   9.436 -0.7107 -0.0640  1.2690
  178SLPC  H14Y20375   5.890   4.678   9.407  0.6977 -0.9484  2.6959
  178SLPC  C31520376   6.037   4.667   9.236 -0.4032 -0.4326  0.6940
  178SLPC  H15X20377   6.145   4.690   9.223 -0.5618  1.2927  2.0724
  178SLPC  H15Y20378   6.025   4.560   9.208  1.3737 -0.5793  0.4029
  178SLPC  C31620379   5.962   4.758   9.142  0.1807 -0.0767  0.1107
  178SLPC  H16X20380   6.007   4.859   9.139 -1.0654  0.4795 -0.3633
  178SLPC  H16Y20381   5.854   4.767   9.165  0.2757  0.8846  0.2029
  178SLPC  C31720382   5.976   4.708   8.996  0.6269 -0.0365 -0.3553
  178SLPC  H17X20383   5.910   4.752   8.918 -0.0940 -1.0692 -0.3441
  178SLPC  H17Y20384   5.948   4.601   9.000 -0.6264  0.2975  0.2306
  178SLPC  C31820385   6.122   4.716   8.950  0.4861 -0.5619  0.7599
  178SLPC  H18X20386   6.201   4.656   9.001  0.9436  0.3950  1.1917
  178SLPC  H18Y20387   6.150   4.823   8.953  1.1035 -0.7264  0.9886
  178SLPC  H18Z20388   6.145   4.685   8.846  2.7080  0.0250  1.0266
  179SLPC     N20389   1.094   6.531  10.455 -0.4938  0.1051  0.1319
  179SLPC   C1320390   1.210   6.611  10.517 -0.2270  0.5003  0.1951
  179SLPC  H13A20391   1.204   6.719  10.510  0.6548  0.5222 -0.2989
  179SLPC  H13B20392   1.231   6.587  10.620 -3.1181  0.8682  0.9710
  179SLPC  H13C20393   1.295   6.578  10.458  0.0054  2.6003 -0.7360
  179SLPC   C1420394   1.132   6.384  10.478 -0.2006  0.3786  0.0603
  179SLPC  H14A20395   1.045   6.329  10.445 -0.8936  1.7612 -0.4627
  179SLPC  H14B20396   1.216   6.353  10.418 -0.3343 -0.1837  0.1518
  179SLPC  H14C20397   1.150   6.364  10.583 -0.9204  4.0442  1.0121
  179SLPC   C1520398   1.091   6.569  10.310  0.0230  0.4870  0.0716
  179SLPC  H15A20399   0.997   6.533  10.271 -2.0003  4.6764  0.4871
  179SLPC  H15B20400   1.091   6.677  10.306  0.8788  0.5100  0.5810
  179SLPC  H15C20401   1.177   6.522  10.264  0.1623 -1.3719  2.0734
  179SLPC   C1220402   0.962   6.564  10.523 -0.1052 -0.0017 -0.0581
  179SLPC  H12A20403   0.946   6.670  10.535  1.2518  0.0761  1.3825
  179SLPC  H12B20404   0.962   6.517  10.620 -1.2247  1.0785  0.4964
  179SLPC   C1120405   0.826   6.509  10.451 -0.3671 -0.5145  0.6142
  179SLPC  H11A20406   0.832   6.537  10.344 -0.7654  2.7244  1.3505
  179SLPC  H11B20407   0.746   6.569  10.500 -2.0981 -1.4263 -0.9651
  179SLPC     P20408   0.786   6.310  10.606  0.2157  0.1124  0.2037
  179SLPC   O1320409   0.826   6.169  10.598 -0.3431  0.7308 -0.1063
  179SLPC   O1420410   0.852   6.381  10.709 -0.1307  0.0713 -0.0870
  179SLPC   O1220411   0.812   6.373  10.467  0.2220 -0.3617  0.0423
  179SLPC   O1120412   0.630   6.312  10.632  0.3889  0.1099 -0.1107
  179SLPC    C120413   0.545   6.204  10.589 -0.2799 -0.4603  0.7772
  179SLPC    HA20414   0.582   6.118  10.648  1.6094  0.0764  0.4641
  179SLPC    HB20415   0.446   6.249  10.611 -0.0545  1.0894 -1.1141
  179SLPC    C220416   0.546   6.175  10.438 -0.0439 -0.5264  0.7725
  179SLPC    HS20417   0.629   6.109  10.403 -0.2695  0.3233 -1.5175
  179SLPC   O2120418   0.547   6.299  10.359  0.1279 -0.2104 -0.0907
  179SLPC   C2120419   0.614   6.290  10.243 -0.2893 -0.7326  0.1693
  179SLPC   O2220420   0.684   6.202  10.202 -0.0362 -0.2737  0.1651
  179SLPC   C2220421   0.600   6.420  10.165 -0.4579  0.1902  0.0637
  179SLPC   H2R20422   0.491   6.443  10.161 -0.0744  2.0909 -2.9138
  179SLPC   H2S20423   0.641   6.504  10.225  0.2893 -0.6217  0.7121
  179SLPC    C320424   0.416   6.099  10.399  0.6692  0.1094  0.1910
  179SLPC    HX20425   0.332   6.171  10.414 -0.9369 -1.8015  0.7222
  179SLPC    HY20426   0.389   6.016  10.468  0.3695 -0.0661 -0.1329
  179SLPC   O3120427   0.413   6.069  10.258  0.6964 -0.6770 -0.1552
  179SLPC   C3120428   0.452   5.949  10.219  0.1153  0.0652  0.4247
  179SLPC   O3220429   0.448   5.851  10.293  0.0542  0.1651 -0.1224
  179SLPC   C3220430   0.503   5.962  10.081  0.2369 -0.0874 -0.5877
  179SLPC   H2X20431   0.614   5.950  10.082  0.3667  0.9763 -0.0110
  179SLPC   H2Y20432   0.490   6.069  10.053  0.3775  0.4065  1.1049
  179SLPC   C2320433   0.655   6.426  10.025 -0.6860  0.1727  0.2340
  179SLPC   H3R20434   0.643   6.329   9.972 -1.8447  0.6313 -0.3704
  179SLPC   H3S20435   0.763   6.450  10.033 -0.8824  0.9357  0.6141
  179SLPC   C2420436   0.599   6.532   9.927  0.8325 -0.1123 -0.5755
  179SLPC   H4R20437   0.611   6.630   9.978 -0.4908 -1.5613  2.7880
  179SLPC   H4S20438   0.495   6.497   9.912  2.3265 -5.3894 -0.6442
  179SLPC   C2520439   0.677   6.527   9.795  0.2473  0.0359  0.0128
  179SLPC   H5R20440   0.670   6.423   9.755  0.5829  0.1414 -0.3290
  179SLPC   H5S20441   0.785   6.549   9.813  0.1335 -0.0577  0.8565
  179SLPC   C2620442   0.630   6.621   9.688 -0.1454  0.1675  0.2001
  179SLPC   H6R20443   0.639   6.727   9.721 -1.1546  0.7224 -1.1786
  179SLPC   H6S20444   0.523   6.608   9.661  0.2652  1.7307 -2.5348
  179SLPC   C2720445   0.707   6.604   9.556 -0.3149  0.7392  0.1132
  179SLPC   H7R20446   0.704   6.497   9.525  0.2215  0.8909 -0.4861
  179SLPC   H7S20447   0.813   6.618   9.586 -0.0139 -2.3269  0.8704
  179SLPC   C2820448   0.669   6.691   9.440  0.3932 -0.6497  0.1712
  179SLPC   H8R20449   0.691   6.797   9.463 -1.6257 -0.0082 -0.6611
  179SLPC   H8S20450   0.561   6.677   9.420  0.2262  1.6181 -0.7778
  179SLPC   C2920451   0.752   6.666   9.317 -0.3926 -0.1437 -0.2683
  179SLPC   H9R20452   0.850   6.717   9.320  0.9070 -2.5526  0.6213
  179SLPC  C21020453   0.719   6.594   9.210 -0.8106  0.2437 -0.3166
  179SLPC  H10R20454   0.788   6.584   9.126 -0.6586 -1.2719 -0.0309
  179SLPC  C21120455   0.592   6.517   9.190 -0.6121 -0.3184  0.4888
  179SLPC  H11R20456   0.555   6.494   9.292  2.4284 -1.0167  1.5455
  179SLPC  H11S20457   0.623   6.417   9.152  1.1821 -0.2437  1.6342
  179SLPC  C21220458   0.483   6.572   9.090 -0.1105  0.2575 -0.3807
  179SLPC  H12R20459   0.385   6.598   9.133  0.3984 -0.1295  1.1021
  179SLPC  C21320460   0.494   6.569   8.958 -0.0499 -0.5313  0.7310
  179SLPC  H13R20461   0.409   6.606   8.899  0.0336 -0.6444  0.5410
  179SLPC  C21420462   0.615   6.527   8.878 -0.9171  0.3025 -0.4150
  179SLPC  H14R20463   0.684   6.474   8.946 -2.5961 -0.9957  0.3588
  179SLPC  H14S20464   0.667   6.616   8.836 -0.4622  0.7498  1.0644
  179SLPC  C21520465   0.583   6.428   8.757  0.0666  0.3440  0.4613
  179SLPC  H15R20466   0.538   6.334   8.796 -1.4137  0.2526 -1.3011
  179SLPC  H15S20467   0.676   6.396   8.706  0.0296  0.8511  0.0657
  179SLPC  C21620468   0.502   6.499   8.644  0.0830  0.4269 -0.2453
  179SLPC  H16R20469   0.576   6.566   8.594 -0.2770  1.8369  1.0424
  179SLPC  H16S20470   0.427   6.566   8.691 -0.2585 -1.1314  1.5428
  179SLPC  C21720471   0.448   6.400   8.540 -0.0059 -0.4525  0.9933
  179SLPC  H17R20472   0.373   6.334   8.587 -1.5395  0.1137 -0.5457
  179SLPC  H17S20473   0.534   6.333   8.519 -1.1242 -1.4363 -0.7888
  179SLPC  C21820474   0.388   6.455   8.409  0.0713 -0.3244 -0.2256
  179SLPC  H18R20475   0.306   6.527   8.432 -0.6510 -0.6707 -1.6221
  179SLPC  H18S20476   0.328   6.375   8.361  0.3774 -2.2002  2.3229
  179SLPC  H18T20477   0.467   6.494   8.343  0.7643 -3.1561 -1.1830
  179SLPC   C3320478   0.433   5.877   9.973 -0.3435  0.6114 -0.1428
  179SLPC   H3X20479   0.338   5.831  10.007 -2.2122  4.1406 -0.0875
  179SLPC   H3Y20480   0.506   5.802   9.936  1.7228  1.1411  2.5552
  179SLPC   C3420481   0.390   5.966   9.852  0.8394 -0.2470 -0.5099
  179SLPC   H4X20482   0.304   6.027   9.887  0.8086 -0.3462 -0.4129
  179SLPC   H4Y20483   0.351   5.897   9.774  0.2397 -1.6493  0.9918
  179SLPC   C3520484   0.497   6.058   9.785  0.0584 -0.6116  0.5871
  179SLPC   H5X20485   0.526   6.123   9.870 -2.1221 -1.3441  1.9695
  179SLPC   H5Y20486   0.447   6.113   9.702  3.9842 -0.1526 -1.7063
  179SLPC   C3620487   0.613   5.982   9.733  0.7623  0.2669 -0.1967
  179SLPC   H6X20488   0.572   5.920   9.649 -2.6725 -0.1901  1.6379
  179SLPC   H6Y20489   0.651   5.916   9.813 -0.6471 -0.2583  0.0787
  179SLPC   C3720490   0.743   6.066   9.712  0.0660 -0.2650 -0.0108
  179SLPC   H7X20491   0.831   6.001   9.697  0.8586  0.6807  0.4285
  179SLPC   H7Y20492   0.753   6.122   9.807 -2.3796 -0.6608  0.5517
  179SLPC   C3820493   0.744   6.166   9.595 -0.3351 -0.0469 -0.0202
  179SLPC   H8X20494   0.829   6.236   9.610 -0.7627  0.2109  1.3753
  179SLPC   H8Y20495   0.659   6.239   9.599 -0.0976  0.2880 -0.8300
  179SLPC   C3920496   0.752   6.101   9.458  0.4947 -0.2719  0.3885
  179SLPC   H9X20497   0.668   6.031   9.436  0.3504 -0.5960  1.8480
  179SLPC   H9Y20498   0.840   6.033   9.452 -0.9041 -2.1419 -0.1518
  179SLPC  C31020499   0.759   6.211   9.357  0.0604  0.3218  0.2226
  179SLPC  H10X20500   0.811   6.297   9.405  1.2461 -2.2776  4.0047
  179SLPC  H10Y20501   0.655   6.236   9.327  0.0439 -0.8091 -0.7314
  179SLPC  C31120502   0.820   6.162   9.219  0.5745 -0.4456 -0.3081
  179SLPC  H11X20503   0.900   6.086   9.236 -0.7914 -1.9331 -0.3532
  179SLPC  H11Y20504   0.875   6.247   9.174  1.4358 -0.4632  0.6549
  179SLPC  C31220505   0.713   6.117   9.126 -1.8941  0.3464 -0.0108
  179SLPC  H12X20506   0.629   6.188   9.109 -3.6402 -1.7165 -0.3732
  179SLPC  H12Y20507   0.661   6.030   9.170  1.1441 -1.5088  0.1657
  179SLPC  C31320508   0.758   6.060   8.991 -0.2444  0.2118  0.3965
  179SLPC  H13X20509   0.832   5.981   9.016  0.2010  0.3937 -0.3114
  179SLPC  H13Y20510   0.815   6.131   8.928 -1.1264  2.4116  1.9278
  179SLPC  C31420511   0.632   6.006   8.916  0.2016 -0.2690  0.9790
  179SLPC  H14X20512   0.581   6.087   8.861  2.4873 -0.2850 -1.3651
  179SLPC  H14Y20513   0.561   5.972   8.995 -1.0339  3.1974  1.5383
  179SLPC  C31520514   0.668   5.895   8.812 -0.2634 -0.8815  0.4411
  179SLPC  H15X20515   0.715   5.810   8.865 -0.2431 -0.6063  0.8660
  179SLPC  H15Y20516   0.739   5.930   8.733 -1.2981 -1.0909 -0.6135
  179SLPC  C31620517   0.541   5.838   8.751  0.1249  0.3307  0.2346
  179SLPC  H16X20518   0.455   5.813   8.816 -0.3018 -2.8398 -1.3396
  179SLPC  H16Y20519   0.563   5.738   8.707 -2.1470 -0.2865  0.3381
  179SLPC  C31720520   0.472   5.905   8.631 -0.0141 -0.1535 -0.1731
  179SLPC  H17X20521   0.546   5.946   8.559 -0.2092  0.9034  0.2110
  179SLPC  H17Y20522   0.412   5.993   8.661  3.1700  2.0794  0.0944
  179SLPC  C31820523   0.372   5.818   8.556  0.1365  0.2983  0.2496
  179SLPC  H18X20524   0.330   5.883   8.477 -0.6074  1.3671  1.4908
  179SLPC  H18Y20525   0.286   5.794   8.621 -1.8228  0.8176 -2.0071
  179SLPC  H18Z20526   0.414   5.726   8.509 -0.0292 -0.2692  1.1748
  180SLPC     N20527   2.662   4.925  10.723 -0.3701  0.1116  0.7212
  180SLPC   C1320528   2.701   4.990  10.593  0.2444 -0.0162 -0.3536
  180SLPC  H13A20529   2.630   4.992  10.511 -0.0452  1.2914 -0.0917
  180SLPC  H13B20530   2.726   5.091  10.622  1.4819  0.6401 -3.3884
  180SLPC  H13C20531   2.784   4.945  10.542  1.0981 -0.9381  1.7391
  180SLPC   C1420532   2.608   4.789  10.687  0.9320  0.0078  0.5614
  180SLPC  H14A20533   2.503   4.786  10.664  0.9931  1.6039 -0.0288
  180SLPC  H14B20534   2.664   4.753  10.601 -1.6247 -1.7364 -0.5150
  180SLPC  H14C20535   2.611   4.727  10.775  0.9418 -0.1969  0.4172
  180SLPC   C1520536   2.561   5.006  10.789 -0.5427  0.1563 -0.2305
  180SLPC  H15A20537   2.533   4.950  10.877  2.3993 -0.5417  0.3460
  180SLPC  H15B20538   2.594   5.101  10.828 -1.3825  1.2580 -2.0610
  180SLPC  H15C20539   2.483   5.040  10.723 -0.0056  1.4151 -0.2371
  180SLPC   C1220540   2.787   4.905  10.812 -0.2712 -0.7472 -0.4018
  180SLPC  H12A20541   2.863   4.839  10.774  0.8065  0.8387 -1.0949
  180SLPC  H12B20542   2.754   4.860  10.905 -1.6457  0.2353 -0.3962
  180SLPC   C1120543   2.865   5.038  10.859  0.2609  0.0933 -0.9365
  180SLPC  H11A20544   2.925   5.081  10.776 -1.9873  1.3718 -1.9599
  180SLPC  H11B20545   2.946   4.994  10.922 -0.1943  0.3572 -0.1561
  180SLPC     P20546   2.784   5.281  10.882 -0.3614 -0.3026 -0.3145
  180SLPC   O1320547   2.698   5.356  10.976 -0.0436 -0.9465 -0.1940
  180SLPC   O1420548   2.918   5.336  10.890 -0.3401  0.0895  0.6129
  180SLPC   O1220549   2.785   5.131  10.936 -0.3520 -0.2524 -0.6644
  180SLPC   O1120550   2.725   5.274  10.737  0.7103 -0.0720  0.3071
  180SLPC    C120551   2.660   5.386  10.671 -0.2617 -0.1856 -0.4044
  180SLPC    HA20552   2.558   5.413  10.706 -0.0021 -0.5640  0.6801
  180SLPC    HB20553   2.718   5.479  10.688 -1.5832  0.2508  2.2273
  180SLPC    C220554   2.636   5.373  10.523  0.1618 -0.3129  0.2961
  180SLPC    HS20555   2.574   5.462  10.499  0.7597 -0.3389 -1.5341
  180SLPC   O2120556   2.565   5.250  10.498 -0.5199 -0.2797 -0.5622
  180SLPC   C2120557   2.450   5.249  10.432  0.3241  0.1740 -0.2551
  180SLPC   O2220558   2.380   5.347  10.418 -0.1923 -0.0486 -0.5789
  180SLPC   C2220559   2.404   5.104  10.409 -0.2530  0.2771 -0.4002
  180SLPC   H2R20560   2.497   5.045  10.397  1.0379  2.2768 -0.7080
  180SLPC   H2S20561   2.331   5.072  10.487 -1.1196  1.5968 -0.6371
  180SLPC    C320562   2.759   5.374  10.430  0.8358  0.4579  0.5890
  180SLPC    HX20563   2.833   5.331  10.500  0.9736 -0.4347 -0.0781
  180SLPC    HY20564   2.791   5.476  10.399 -0.7039  0.3975 -1.4284
  180SLPC   O3120565   2.742   5.304  10.307  0.0709 -0.7138 -0.1374
  180SLPC   C3120566   2.843   5.219  10.288  0.2660  0.2680  0.0904
  180SLPC   O3220567   2.914   5.170  10.377  0.2304  0.3599 -0.1218
  180SLPC   C3220568   2.849   5.170  10.142  0.0788  0.1091 -0.6519
  180SLPC   H2X20569   2.950   5.202  10.110  0.0073  0.1289 -0.8635
  180SLPC   H2Y20570   2.768   5.214  10.079  1.2595  3.2818 -0.1115
  180SLPC   C2320571   2.333   5.110  10.275  0.3957  0.5794 -0.7773
  180SLPC   H3R20572   2.262   5.195  10.268  1.3573  1.4018 -0.7567
  180SLPC   H3S20573   2.285   5.011  10.261 -1.8257  0.7386  3.8321
  180SLPC   C2420574   2.436   5.135  10.167 -0.1285 -0.1312  0.8765
  180SLPC   H4R20575   2.499   5.044  10.152 -1.1211 -0.7478  0.3570
  180SLPC   H4S20576   2.505   5.220  10.185  2.2798 -1.6764 -0.4150
  180SLPC   C2520577   2.370   5.162  10.028 -0.7717 -0.0958  0.3405
  180SLPC   H5R20578   2.331   5.267  10.029  0.1595  0.2809 -0.6722
  180SLPC   H5S20579   2.284   5.092  10.017  0.6116 -2.3258  2.7177
  180SLPC   C2620580   2.462   5.144   9.909  0.3462 -0.5992  0.1813
  180SLPC   H6R20581   2.479   5.034   9.905  1.9137 -0.4076  0.9129
  180SLPC   H6S20582   2.550   5.201   9.945  0.0376  0.3390 -0.5052
  180SLPC   C2720583   2.417   5.201   9.774 -0.4060 -0.0879  0.5578
  180SLPC   H7R20584   2.415   5.312   9.779  1.0934  0.1551 -2.3131
  180SLPC   H7S20585   2.322   5.149   9.753 -1.2933  2.3189 -2.0577
  180SLPC   C2820586   2.509   5.148   9.656 -0.3119 -0.0237 -0.1244
  180SLPC   H8R20587   2.468   5.045   9.654 -1.3477  0.3208  1.2567
  180SLPC   H8S20588   2.609   5.128   9.701 -1.1043 -0.5302  1.4826
  180SLPC   C2920589   2.514   5.215   9.522  0.0839  0.5818  0.4729
  180SLPC   H9R20590   2.475   5.152   9.441  0.6189  1.1293 -0.2172
  180SLPC  C21020591   2.554   5.340   9.499 -0.6468 -0.0147 -0.1600
  180SLPC  H10R20592   2.559   5.373   9.395 -0.2872 -2.6869 -1.0675
  180SLPC  C21120593   2.600   5.450   9.589  0.0769  0.0267 -0.3905
  180SLPC  H11R20594   2.521   5.470   9.665 -0.5095 -2.3105 -0.2888
  180SLPC  H11S20595   2.619   5.544   9.534 -0.5238 -0.0888 -0.8086
  180SLPC  C21220596   2.729   5.414   9.652 -0.2931  0.4831  0.1958
  180SLPC  H12R20597   2.797   5.345   9.601  0.8785  0.6696  1.4239
  180SLPC  C21320598   2.774   5.461   9.764  0.5157 -0.2951  0.0261
  180SLPC  H13R20599   2.873   5.423   9.791  1.0629  0.8769 -0.2616
  180SLPC  C21420600   2.711   5.559   9.863  0.5339 -0.5191  0.2664
  180SLPC  H14R20601   2.636   5.615   9.804  0.7054  1.6884  1.9987
  180SLPC  H14S20602   2.786   5.635   9.894  1.4221 -0.8276 -1.0510
  180SLPC  C21520603   2.638   5.494   9.979  0.1815  0.6638 -0.2428
  180SLPC  H15R20604   2.719   5.444  10.037 -0.9084 -0.6194  0.2053
  180SLPC  H15S20605   2.562   5.418   9.953  0.0078  0.2933  1.2861
  180SLPC  C21620606   2.570   5.586  10.088 -0.2374 -0.4046 -0.6260
  180SLPC  H16R20607   2.526   5.508  10.154 -0.3425 -0.4507 -0.7500
  180SLPC  H16S20608   2.484   5.637  10.040  0.1501  0.4602 -0.4275
  180SLPC  C21720609   2.666   5.687  10.152  0.7919  0.4844  0.3112
  180SLPC  H17R20610   2.716   5.750  10.076  1.5005 -0.1035  0.2754
  180SLPC  H17S20611   2.743   5.624  10.201 -0.4936 -2.0530 -0.7327
  180SLPC  C21820612   2.598   5.781  10.248  0.2997  0.2977 -0.5780
  180SLPC  H18R20613   2.511   5.825  10.194 -0.8031 -2.4094 -1.2128
  180SLPC  H18S20614   2.659   5.866  10.285  2.5976 -1.3334 -0.4058
  180SLPC  H18T20615   2.564   5.726  10.338  1.0534 -1.6583 -1.4410
  180SLPC   C3320616   2.843   5.016  10.147  0.3893 -0.9130  0.7101
  180SLPC   H3X20617   2.747   4.986  10.193 -1.5206  4.1234  0.6179
  180SLPC   H3Y20618   2.937   4.988  10.200  0.6565 -0.2152  0.6138
  180SLPC   C3420619   2.837   4.954  10.001  0.3999  0.2205 -0.0983
  180SLPC   H4X20620   2.738   4.994   9.969  0.6838  2.3890  1.5093
  180SLPC   H4Y20621   2.836   4.845  10.020  1.3115  0.4411  1.3508
  180SLPC   C3520622   2.950   4.999   9.901 -0.6767 -0.5768  0.0554
  180SLPC   H5X20623   3.034   4.993   9.973  0.7435  0.6719 -1.4155
  180SLPC   H5Y20624   2.949   5.103   9.861  0.4718 -1.1555 -1.5929
  180SLPC   C3620625   2.979   4.901   9.788 -0.6332 -0.3288 -1.0341
  180SLPC   H6X20626   3.025   4.814   9.841 -1.8714 -1.4528 -1.7529
  180SLPC   H6Y20627   3.055   4.945   9.720  0.8595 -0.0838  0.7055
  180SLPC   C3720628   2.869   4.825   9.703  0.0558 -0.0002 -0.7381
  180SLPC   H7X20629   2.769   4.801   9.746 -0.8466  2.2095 -1.4469
  180SLPC   H7Y20630   2.903   4.734   9.648 -1.1245  0.0171 -1.5440
  180SLPC   C3820631   2.812   4.915   9.599 -0.3589 -0.1234  0.0871
  180SLPC   H8X20632   2.890   4.929   9.522  0.2643  2.0646  1.0319
  180SLPC   H8Y20633   2.809   5.017   9.642  4.9710  0.8722 -1.1837
  180SLPC   C3920634   2.690   4.860   9.523  0.8322 -0.0293 -0.2225
  180SLPC   H9X20635   2.684   4.932   9.439 -1.6327 -0.0631 -0.1397
  180SLPC   H9Y20636   2.606   4.860   9.596  0.7760  3.6151 -0.1146
  180SLPC  C31020637   2.694   4.720   9.470  0.6968  0.6295 -0.3065
  180SLPC  H10X20638   2.607   4.713   9.401  0.4665  1.7356 -0.1575
  180SLPC  H10Y20639   2.690   4.654   9.559  1.9237  1.2377  0.2245
  180SLPC  C31120640   2.811   4.665   9.381 -0.4750  0.0156 -0.8491
  180SLPC  H11X20641   2.811   4.554   9.378 -0.5354  0.0119 -0.7272
  180SLPC  H11Y20642   2.907   4.690   9.431 -1.5867  0.5291  1.1349
  180SLPC  C31220643   2.808   4.727   9.246  0.0687  0.1689  0.6360
  180SLPC  H12X20644   2.913   4.725   9.210 -0.1906 -0.3522 -0.1340
  180SLPC  H12Y20645   2.782   4.833   9.269  0.1367  0.1128  0.9606
  180SLPC  C31320646   2.703   4.662   9.149 -0.2269 -0.5785 -0.2869
  180SLPC  H13X20647   2.601   4.670   9.192 -0.2773  0.5401 -0.5818
  180SLPC  H13Y20648   2.722   4.555   9.123 -2.0835 -0.3928 -2.8026
  180SLPC  C31420649   2.698   4.730   9.011 -0.7788 -0.6038  0.2128
  180SLPC  H14X20650   2.799   4.769   8.985  0.5123 -2.3505  2.3032
  180SLPC  H14Y20651   2.646   4.828   9.021 -1.0599 -0.7400  0.1072
  180SLPC  C31520652   2.626   4.639   8.905 -0.8534 -0.7085 -0.9676
  180SLPC  H15X20653   2.516   4.653   8.909 -0.4217  3.3375  1.2721
  180SLPC  H15Y20654   2.654   4.533   8.926  0.6893  0.0058  0.8519
  180SLPC  C31620655   2.672   4.664   8.760  0.2796  0.2880 -0.8438
  180SLPC  H16X20656   2.782   4.654   8.755  0.2472  0.3293 -1.7038
  180SLPC  H16Y20657   2.652   4.771   8.735  2.1060  0.9759  0.4071
  180SLPC  C31720658   2.612   4.568   8.657 -0.5618 -0.1414  0.4061
  180SLPC  H17X20659   2.638   4.465   8.691  0.6140 -0.1365 -0.3847
  180SLPC  H17Y20660   2.663   4.587   8.560  0.3720  0.0799  0.9313
  180SLPC  C31820661   2.456   4.576   8.636 -0.1671  0.4938 -0.7159
  180SLPC  H18X20662   2.429   4.546   8.533  1.3260  4.3794 -2.4230
  180SLPC  H18Y20663   2.418   4.679   8.653  0.2721  0.2191  2.6412
  180SLPC  H18Z20664   2.413   4.515   8.719 -0.1874 -0.0326 -1.1142
  181SLPC     N20665   2.744   2.334  11.454 -0.2430 -0.2386  0.4013
  181SLPC   C1320666   2.756   2.426  11.570 -0.1099  0.0552  0.0081
  181SLPC  H13A20667   2.701   2.518  11.555  0.1868  0.1736 -0.3908
  181SLPC  H13B20668   2.721   2.377  11.659 -0.3828  1.4515  0.6968
  181SLPC  H13C20669   2.856   2.463  11.587 -1.3841  2.0997  4.2641
  181SLPC   C1420670   2.599   2.292  11.437  0.1630  0.1451 -0.6479
  181SLPC  H14A20671   2.542   2.378  11.402  0.2715  0.1839 -0.7291
  181SLPC  H14B20672   2.588   2.211  11.367  0.2071 -2.1251  1.8277
  181SLPC  H14C20673   2.557   2.258  11.530  1.8955 -0.5402 -0.0876
  181SLPC   C1520674   2.821   2.213  11.483 -0.5407  0.4130 -0.3886
  181SLPC  H15A20675   2.927   2.236  11.486 -0.5653  0.5574 -0.5843
  181SLPC  H15B20676   2.810   2.171  11.581 -0.9170  2.5665  0.5474
  181SLPC  H15C20677   2.824   2.139  11.404 -0.3850 -1.9093  1.6588
  181SLPC   C1220678   2.798   2.408  11.325  0.1809  0.0072  0.2122
  181SLPC  H12A20679   2.800   2.327  11.254 -0.6224 -1.1044  1.4141
  181SLPC  H12B20680   2.899   2.441  11.341  1.2362 -2.1742 -1.4599
  181SLPC   C1120681   2.711   2.525  11.269 -0.2776  0.3417  0.1637
  181SLPC  H11A20682   2.775   2.578  11.195  0.2646 -0.1851  0.2525
  181SLPC  H11B20683   2.677   2.591  11.352 -0.7046 -0.5024  0.6738
  181SLPC     P20684   2.594   2.431  11.057  0.4848 -0.1573  0.0508
  181SLPC   O1320685   2.736   2.392  11.024  0.0851 -0.2947 -0.1070
  181SLPC   O1420686   2.476   2.346  11.026 -0.0404  0.1713 -0.1920
  181SLPC   O1220687   2.590   2.465  11.211 -0.0414 -0.2296  0.1120
  181SLPC   O1120688   2.575   2.571  10.994  0.2306  0.6667  0.3385
  181SLPC    C120689   2.554   2.597  10.856 -0.3403 -0.3368  0.7183
  181SLPC    HA20690   2.585   2.513  10.789  0.0999  0.3721  0.0166
  181SLPC    HB20691   2.448   2.622  10.833 -0.9099  1.9229  4.8452
  181SLPC    C220692   2.646   2.708  10.806 -0.0755 -0.5199  0.3876
  181SLPC    HS20693   2.586   2.802  10.809 -0.5409 -0.7561 -0.8617
  181SLPC   O2120694   2.679   2.688  10.671 -0.2089 -0.0659  0.2063
  181SLPC   C2120695   2.581   2.697  10.579  0.9593  0.4396 -1.3570
  181SLPC   O2220696   2.464   2.726  10.599 -0.1085  0.5168  0.7181
  181SLPC   C2220697   2.638   2.684  10.444  0.2491 -0.2929 -0.4722
  181SLPC   H2R20698   2.632   2.578  10.411 -1.7184 -0.7701  1.2307
  181SLPC   H2S20699   2.583   2.739  10.365 -0.6989 -1.0128 -0.3333
  181SLPC    C320700   2.782   2.716  10.883  0.1737 -0.3829  0.3483
  181SLPC    HX20701   2.827   2.615  10.893  0.0510 -0.7135 -1.8328
  181SLPC    HY20702   2.758   2.751  10.985  1.8344  0.2080  0.5529
  181SLPC   O3120703   2.882   2.797  10.825 -0.9141  0.3481  0.0689
  181SLPC   C3120704   2.889   2.925  10.851 -0.9749 -0.7947 -0.7358
  181SLPC   O3220705   2.818   2.982  10.932 -0.4273 -0.0918  0.2213
  181SLPC   C3220706   3.021   2.990  10.800  0.4079  0.5837  0.2548
  181SLPC   H2X20707   3.048   3.078  10.863 -0.7302 -0.9934  3.1663
  181SLPC   H2Y20708   2.988   3.017  10.698 -1.6409 -1.4955  0.2851
  181SLPC   C2320709   2.780   2.740  10.438  0.7575  0.1475 -0.3253
  181SLPC   H3R20710   2.838   2.662  10.493  0.6224 -0.3201 -0.8378
  181SLPC   H3S20711   2.793   2.840  10.485  1.4045 -0.2081  0.2873
  181SLPC   C2420712   2.843   2.746  10.300  0.4284 -0.3702  0.5047
  181SLPC   H4R20713   2.953   2.757  10.309  0.9144 -2.0396 -2.1519
  181SLPC   H4S20714   2.798   2.830  10.243  0.0847 -0.3900  0.7435
  181SLPC   C2520715   2.819   2.614  10.226  0.1336  0.2824 -0.5353
  181SLPC   H5R20716   2.713   2.599  10.198  0.1649  0.1377 -0.5768
  181SLPC   H5S20717   2.872   2.535  10.283  1.1362  1.0220 -0.4112
  181SLPC   C2620718   2.881   2.612  10.083 -0.3138  0.0474 -0.5321
  181SLPC   H6R20719   2.911   2.511  10.048  2.5666 -0.1550  2.0638
  181SLPC   H6S20720   2.976   2.670  10.070 -1.1213  1.0602 -2.2767
  181SLPC   C2720721   2.784   2.682   9.982  0.5240 -0.0426  0.0168
  181SLPC   H7R20722   2.759   2.786  10.011  0.2150  0.2494 -1.2279
  181SLPC   H7S20723   2.689   2.625   9.974 -1.7950  2.8479  3.4935
  181SLPC   C2820724   2.832   2.696   9.830  0.1229  0.0542 -0.4624
  181SLPC   H8R20725   2.921   2.762   9.837  0.4287 -0.4348  0.3032
  181SLPC   H8S20726   2.754   2.744   9.767 -0.9646  0.8455  1.3948
  181SLPC   C2920727   2.880   2.562   9.771 -0.3510 -0.2591  0.2504
  181SLPC   H9R20728   2.916   2.484   9.839  1.0805 -0.3011 -0.5134
  181SLPC  C21020729   2.875   2.524   9.639  0.9313  0.0370  0.0471
  181SLPC  H10R20730   2.917   2.428   9.604  0.6999 -0.2181  0.4559
  181SLPC  C21120731   2.810   2.613   9.528 -0.4806 -0.2294 -0.8528
  181SLPC  H11R20732   2.715   2.642   9.577  0.2037 -0.6920  0.8244
  181SLPC  H11S20733   2.775   2.550   9.443 -1.4387 -0.4184 -0.3220
  181SLPC  C21220734   2.895   2.728   9.483 -0.3556  0.2717  0.1614
  181SLPC  H12R20735   2.888   2.817   9.546  1.3327  0.3990  0.2183
  181SLPC  C21320736   2.977   2.737   9.377  0.3287 -0.2680 -0.2337
  181SLPC  H13R20737   3.036   2.825   9.348  0.6002 -0.6113 -0.7335
  181SLPC  C21420738   2.996   2.626   9.281  0.0279 -0.0150  0.1927
  181SLPC  H14R20739   2.958   2.648   9.179  0.9312 -2.8397 -0.8473
  181SLPC  H14S20740   2.943   2.531   9.304  0.3495 -0.1175  0.5222
  181SLPC  C21520741   3.141   2.580   9.264  0.8931 -0.4770  0.0880
  181SLPC  H15R20742   3.145   2.471   9.241 -1.1654 -0.4524 -0.6465
  181SLPC  H15S20743   3.191   2.598   9.361  0.6663  1.4426 -0.1108
  181SLPC  C21620744   3.223   2.659   9.154 -0.3572 -0.0127 -0.1203
  181SLPC  H16R20745   3.326   2.618   9.156 -0.0256  0.7752 -0.5189
  181SLPC  H16S20746   3.227   2.768   9.176 -0.2890 -0.2990  1.3816
  181SLPC  C21720747   3.164   2.656   9.015  0.1067  0.3185  0.2340
  181SLPC  H17R20748   3.247   2.695   8.952 -1.6163  0.8207 -1.8478
  181SLPC  H17S20749   3.083   2.733   9.018  1.3479  1.7596 -1.5698
  181SLPC  C21820750   3.119   2.518   8.959 -0.4184  0.4928  0.0818
  181SLPC  H18R20751   3.050   2.467   9.030  2.3901 -1.3172  1.6695
  181SLPC  H18S20752   3.210   2.455   8.965 -1.4215 -0.9192  1.0250
  181SLPC  H18T20753   3.066   2.524   8.861 -0.5986 -0.3914  0.1215
  181SLPC   C3320754   3.140   2.890  10.786 -0.1103 -0.1486 -0.0309
  181SLPC   H3X20755   3.109   2.808  10.719  0.2704  0.3279 -0.8049
  181SLPC   H3Y20756   3.164   2.851  10.887  1.1705 -0.5765 -0.4853
  181SLPC   C3420757   3.260   2.960  10.729 -0.4571 -0.1284 -0.5661
  181SLPC   H4X20758   3.284   3.044  10.797  2.4767 -1.5151  0.2862
  181SLPC   H4Y20759   3.238   3.001  10.628  1.7185  1.1477 -0.5787
  181SLPC   C3520760   3.379   2.864  10.711  0.0881  1.0817  0.2619
  181SLPC   H5X20761   3.328   2.778  10.663 -0.1602  1.1041  0.4836
  181SLPC   H5Y20762   3.402   2.827  10.814 -2.5057  0.5181  0.7062
  181SLPC   C3620763   3.501   2.919  10.638 -0.5407 -0.3932 -0.1472
  181SLPC   H6X20764   3.589   2.851  10.634 -0.3226 -0.0997 -0.4560
  181SLPC   H6Y20765   3.528   3.014  10.689  0.3917 -0.6978 -0.0598
  181SLPC   C3720766   3.467   2.930  10.488  0.1248  0.0119  0.0896
  181SLPC   H7X20767   3.548   2.993  10.446 -1.7443  1.6240 -1.3047
  181SLPC   H7Y20768   3.367   2.972  10.462  1.1289  1.0194 -2.4141
  181SLPC   C3820769   3.445   2.792  10.418  0.6523  0.5501 -0.0536
  181SLPC   H8X20770   3.380   2.725  10.477  0.5965 -0.1172 -0.8487
  181SLPC   H8Y20771   3.547   2.753  10.401  1.3665  2.4836 -0.5409
  181SLPC   C3920772   3.388   2.813  10.270 -0.1587 -0.2015  0.5773
  181SLPC   H9X20773   3.301   2.882  10.273 -1.0182 -1.2007 -0.5060
  181SLPC   H9Y20774   3.357   2.712  10.235  0.7484 -0.0912 -0.5961
  181SLPC  C31020775   3.491   2.871  10.173 -0.5043 -0.0518 -0.5026
  181SLPC  H10X20776   3.578   2.801  10.177 -0.9529 -0.5510  0.7227
  181SLPC  H10Y20777   3.523   2.972  10.206 -0.6199  0.1045 -0.8661
  181SLPC  C31120778   3.426   2.878  10.027 -0.3667 -0.5414  0.2454
  181SLPC  H11X20779   3.502   2.901   9.949 -1.0471  2.0847  0.2523
  181SLPC  H11Y20780   3.354   2.962  10.037  1.7802  1.3433  0.9043
  181SLPC  C31220781   3.355   2.756   9.972 -0.5103 -0.0749 -0.1494
  181SLPC  H12X20782   3.268   2.745  10.040 -0.6658  0.9320 -0.1697
  181SLPC  H12Y20783   3.419   2.666   9.977 -1.1297 -0.4941  0.3017
  181SLPC  C31320784   3.284   2.767   9.832 -0.6846 -0.8002 -0.0839
  181SLPC  H13X20785   3.190   2.825   9.845  0.7777  1.6810  0.2643
  181SLPC  H13Y20786   3.269   2.667   9.787  0.6803 -0.9386 -0.2717
  181SLPC  C31420787   3.374   2.851   9.743  0.2999 -0.5997  0.0695
  181SLPC  H14X20788   3.480   2.820   9.751  0.7230  0.5275 -0.8731
  181SLPC  H14Y20789   3.381   2.951   9.792 -0.2578 -0.8694  0.7312
  181SLPC  C31520790   3.341   2.849   9.598 -0.0642 -0.5740 -0.4883
  181SLPC  H15X20791   3.234   2.879   9.593  0.4285  1.5666  0.5969
  181SLPC  H15Y20792   3.351   2.749   9.551  2.3309 -0.2050 -0.8964
  181SLPC  C31620793   3.427   2.941   9.516 -0.3789 -0.3049  1.0253
  181SLPC  H16X20794   3.536   2.923   9.518  0.0736  1.9653  0.1505
  181SLPC  H16Y20795   3.399   3.047   9.535 -4.1098 -0.9748  0.1300
  181SLPC  C31720796   3.392   2.916   9.369 -0.4524  0.6449  0.5411
  181SLPC  H17X20797   3.282   2.937   9.373 -0.1385  2.3748  2.9928
  181SLPC  H17Y20798   3.422   2.814   9.339 -0.8121  1.1509 -1.7110
  181SLPC  C31820799   3.461   3.023   9.272  0.1077  0.4463 -0.2346
  181SLPC  H18X20800   3.429   2.993   9.170  0.6570  0.6670 -0.4739
  181SLPC  H18Y20801   3.571   3.015   9.279 -0.0370 -0.9473  0.9081
  181SLPC  H18Z20802   3.426   3.128   9.289  2.3161  1.1338  0.3553
  182SLPC     N20803   2.246   1.943  10.923 -0.4712  0.2423  0.6205
  182SLPC   C1320804   2.306   2.030  11.027  0.1973  0.3737 -0.2636
  182SLPC  H13A20805   2.414   2.026  11.021  0.2658  1.4151  0.0197
  182SLPC  H13B20806   2.273   2.133  11.022  2.2254  1.0764 -0.1652
  182SLPC  H13C20807   2.277   1.989  11.123 -1.5366  2.7563  0.3282
  182SLPC   C1420808   2.264   2.026  10.796 -0.1162  0.1430  0.4687
  182SLPC  H14A20809   2.234   2.129  10.810 -0.6342  0.0215  0.2969
  182SLPC  H14B20810   2.360   2.018  10.748  1.3124 -3.3016  3.3779
  182SLPC  H14C20811   2.206   1.980  10.717  0.5930  0.3251 -0.1717
  182SLPC   C1520812   2.100   1.916  10.948 -0.0621  0.5233  0.1268
  182SLPC  H15A20813   2.086   1.852  11.034  0.3379  0.7385  0.3531
  182SLPC  H15B20814   2.041   2.004  10.968  1.2254  1.2404  0.8372
  182SLPC  H15C20815   2.060   1.859  10.865 -0.7610  0.0200  0.7899
  182SLPC   C1220816   2.320   1.806  10.902  0.0595  0.0494  0.0171
  182SLPC  H12A20817   2.270   1.738  10.836 -0.4663 -1.1602  1.5988
  182SLPC  H12B20818   2.317   1.746  10.992  0.5432 -3.7692 -2.2872
  182SLPC   C1120819   2.468   1.814  10.855  0.4029  0.5440  0.0415
  182SLPC  H11A20820   2.461   1.852  10.751 -1.5024  1.1455  0.3500
  182SLPC  H11B20821   2.505   1.712  10.830 -3.5524 -0.6792 -1.5247
  182SLPC     P20822   2.701   1.913  10.905  0.0611 -0.2012 -0.0146
  182SLPC   O1320823   2.769   1.967  11.026 -0.6453 -0.0905  0.9873
  182SLPC   O1420824   2.758   1.791  10.846 -0.0485 -0.3080 -0.4417
  182SLPC   O1220825   2.551   1.890  10.941  0.0727  0.2513 -0.3189
  182SLPC   O1120826   2.680   2.011  10.786  0.1191 -0.7627  0.9399
  182SLPC    C120827   2.660   2.152  10.795  0.6890 -0.7542 -0.1893
  182SLPC    HA20828   2.556   2.172  10.761  1.3522 -0.5612 -2.2695
  182SLPC    HB20829   2.677   2.184  10.900  1.8580 -1.5405 -0.1161
  182SLPC    C220830   2.752   2.234  10.701  0.5986 -0.0559 -0.4764
  182SLPC    HS20831   2.748   2.339  10.739 -3.0827 -0.3505  0.2648
  182SLPC   O2120832   2.701   2.223  10.564  0.4107 -0.6277  0.0996
  182SLPC   C2120833   2.606   2.303  10.527 -0.4582  0.3981 -0.3898
  182SLPC   O2220834   2.549   2.386  10.595  0.3582  0.7026 -0.3400
  182SLPC   C2220835   2.588   2.292  10.377  0.1450  0.4683  0.0031
  182SLPC   H2R20836   2.660   2.356  10.322 -1.3710  0.5322 -2.0017
  182SLPC   H2S20837   2.607   2.186  10.348 -1.1002 -0.1747  1.4042
  182SLPC    C320838   2.896   2.191  10.708 -0.6456  0.4587  0.5660
  182SLPC    HX20839   2.893   2.081  10.695 -0.2983  0.4701  0.3717
  182SLPC    HY20840   2.937   2.220  10.807 -1.0543  3.2926 -0.0006
  182SLPC   O3120841   2.973   2.258  10.607  0.0172 -0.4822  0.1935
  182SLPC   C3120842   3.036   2.371  10.643 -0.1417 -0.0002  0.3364
  182SLPC   O3220843   3.044   2.414  10.758 -0.1467  0.6133  0.1510
  182SLPC   C3220844   3.098   2.434  10.511  0.6320  0.0579  0.4475
  182SLPC   H2X20845   3.110   2.543  10.533 -1.2218  0.9700 -2.5318
  182SLPC   H2Y20846   3.018   2.438  10.434 -0.1861 -0.4027  1.2457
  182SLPC   C2320847   2.452   2.335  10.346  0.0238 -0.6670  0.3507
  182SLPC   H3R20848   2.437   2.443  10.364  2.3013 -0.2060 -0.1876
  182SLPC   H3S20849   2.371   2.283  10.402  1.8289 -2.8298  1.0964
  182SLPC   C2420850   2.426   2.301  10.202 -0.3491 -0.0170  0.0164
  182SLPC   H4R20851   2.317   2.312  10.180 -0.1453 -1.6211 -2.1768
  182SLPC   H4S20852   2.457   2.197  10.183  3.2235  1.2827 -2.2768
  182SLPC   C2520853   2.510   2.375  10.094  0.1898  0.4621 -0.0890
  182SLPC   H5R20854   2.614   2.345  10.121  0.0189  0.5254  0.6738
  182SLPC   H5S20855   2.496   2.485  10.099  0.4055  0.5269 -0.8801
  182SLPC   C2620856   2.479   2.323   9.955  0.3753  0.3622 -0.5061
  182SLPC   H6R20857   2.369   2.332   9.939  0.3561 -0.2007 -0.7248
  182SLPC   H6S20858   2.504   2.215   9.949  2.5704  0.8848 -2.3444
  182SLPC   C2720859   2.553   2.399   9.841  0.0247 -0.3580 -0.8126
  182SLPC   H7R20860   2.658   2.363   9.852 -0.3763 -0.8864  2.1118
  182SLPC   H7S20861   2.560   2.508   9.861 -1.2806 -0.2623 -0.7770
  182SLPC   C2820862   2.491   2.387   9.697  0.1104 -0.7266  0.2732
  182SLPC   H8R20863   2.555   2.462   9.646 -1.1196  1.5069  1.8284
  182SLPC   H8S20864   2.387   2.424   9.712  0.4386  0.3112  0.1020
  182SLPC   C2920865   2.495   2.241   9.641 -0.5620 -0.3765  0.9597
  182SLPC   H9R20866   2.464   2.161   9.710  0.2005 -0.9157  0.6889
  182SLPC  C21020867   2.533   2.221   9.514 -0.6474 -0.6455  0.2234
  182SLPC  H10R20868   2.544   2.117   9.480 -0.2516 -0.5631  0.0917
  182SLPC  C21120869   2.587   2.330   9.419  0.9789  0.3928  0.2306
  182SLPC  H11R20870   2.621   2.425   9.467 -4.3184  1.6781  2.1279
  182SLPC  H11S20871   2.499   2.381   9.375  0.5884 -0.3827  0.0918
  182SLPC  C21220872   2.695   2.293   9.321  0.0638  0.5885 -0.6737
  182SLPC  H12R20873   2.770   2.218   9.350  1.1961  2.4835  1.7214
  182SLPC  C21320874   2.726   2.364   9.209 -0.3404 -0.4133  0.3469
  182SLPC  H13R20875   2.811   2.329   9.149 -0.2900 -2.4447  1.5183
  182SLPC  C21420876   2.661   2.488   9.151  0.2820 -0.3828 -0.4470
  182SLPC  H14R20877   2.719   2.582   9.165  1.2871 -0.8427 -1.3647
  182SLPC  H14S20878   2.558   2.487   9.193  0.2419 -0.8321 -0.5502
  182SLPC  C21520879   2.641   2.476   8.999 -0.1912 -0.0919 -0.1840
  182SLPC  H15R20880   2.580   2.563   8.965  1.9926  1.3476 -0.6089
  182SLPC  H15S20881   2.603   2.376   8.969 -1.1767  0.5017 -0.9543
  182SLPC  C21620882   2.770   2.512   8.919  0.4925  0.8307 -0.5041
  182SLPC  H16R20883   2.860   2.456   8.951  0.2259 -1.7492 -3.6695
  182SLPC  H16S20884   2.798   2.618   8.931  1.3923  0.3209  2.8508
  182SLPC  C21720885   2.761   2.483   8.769 -0.0355  0.0026  0.1644
  182SLPC  H17R20886   2.851   2.516   8.713  0.8037 -0.2084  1.3611
  182SLPC  H17S20887   2.679   2.547   8.729  0.9951  0.2056 -1.7466
  182SLPC  C21820888   2.732   2.343   8.730  0.0953  0.4311 -0.2737
  182SLPC  H18R20889   2.625   2.316   8.743 -0.1444  1.8160  0.8272
  182SLPC  H18S20890   2.782   2.275   8.802 -0.0367 -0.3090 -0.8634
  182SLPC  H18T20891   2.768   2.323   8.626 -0.4300  0.4125 -0.4528
  182SLPC   C3320892   3.214   2.356  10.464 -0.0667  0.1750 -0.2705
  182SLPC   H3X20893   3.183   2.251  10.446 -2.1374  0.2109  2.3850
  182SLPC   H3Y20894   3.303   2.342  10.529 -1.2283 -0.7591  1.2076
  182SLPC   C3420895   3.269   2.416  10.331 -0.2941 -0.2514  0.0632
  182SLPC   H4X20896   3.282   2.526  10.335 -0.8807 -0.2191  2.1390
  182SLPC   H4Y20897   3.186   2.401  10.259 -0.9390 -1.2254  0.9859
  182SLPC   C3520898   3.398   2.342  10.280 -0.1366 -0.8821  0.1940
  182SLPC   H5X20899   3.380   2.233  10.289 -4.6573 -0.3531 -0.1763
  182SLPC   H5Y20900   3.471   2.373  10.358 -0.3623 -0.7801  0.3630
  182SLPC   C3620901   3.453   2.367  10.135  0.3876  0.2486 -0.3059
  182SLPC   H6X20902   3.540   2.298  10.126 -0.3721 -1.1005  1.8057
  182SLPC   H6Y20903   3.482   2.474  10.127  0.7243  0.2544  0.7885
  182SLPC   C3720904   3.354   2.338  10.019  0.4359 -0.0002 -0.0245
  182SLPC   H7X20905   3.270   2.406  10.043 -0.2953 -0.8485 -0.1437
  182SLPC   H7Y20906   3.317   2.233  10.028 -1.9055  0.8592  1.2945
  182SLPC   C3820907   3.417   2.363   9.885 -0.5079  0.2015  0.0968
  182SLPC   H8X20908   3.485   2.280   9.858  0.1358  0.1311  1.8367
  182SLPC   H8Y20909   3.464   2.463   9.894 -0.9599  0.2836  1.7174
  182SLPC   C3920910   3.308   2.380   9.776  0.5305  0.9577  0.2453
  182SLPC   H9X20911   3.238   2.455   9.820  0.9638  1.8178 -0.4919
  182SLPC   H9Y20912   3.247   2.287   9.779 -2.1095  2.5906  1.7880
  182SLPC  C31020913   3.351   2.426   9.638 -0.2417 -0.2020  0.4607
  182SLPC  H10X20914   3.380   2.533   9.653 -0.1210 -0.0954 -0.4875
  182SLPC  H10Y20915   3.274   2.427   9.558 -0.0791  1.2425  0.2796
  182SLPC  C31120916   3.475   2.349   9.589  0.5503  0.7277 -0.2532
  182SLPC  H11X20917   3.434   2.245   9.593  2.7571 -0.1562  1.4593
  182SLPC  H11Y20918   3.567   2.359   9.650  1.1727  1.6316 -1.3066
  182SLPC  C31220919   3.516   2.388   9.447  1.0529 -0.7022 -0.2139
  182SLPC  H12X20920   3.570   2.485   9.447 -0.0483 -0.0700 -0.0391
  182SLPC  H12Y20921   3.427   2.416   9.388  0.5760 -0.2198  0.7104
  182SLPC  C31320922   3.590   2.265   9.373  0.6221 -0.4976 -0.3186
  182SLPC  H13X20923   3.523   2.176   9.377 -1.0927  0.6139 -2.0517
  182SLPC  H13Y20924   3.689   2.258   9.421  0.3058  0.1177  0.4306
  182SLPC  C31420925   3.624   2.284   9.221  0.1129  0.0958 -0.1708
  182SLPC  H14X20926   3.704   2.361   9.220 -0.5305  0.7937  0.2992
  182SLPC  H14Y20927   3.538   2.322   9.161 -0.6032  0.8866  1.2941
  182SLPC  C31520928   3.686   2.162   9.155 -0.2863  0.0014 -0.0966
  182SLPC  H15X20929   3.721   2.090   9.231  0.0783  0.2370 -0.0403
  182SLPC  H15Y20930   3.768   2.184   9.083  1.2058  0.0515  1.5587
  182SLPC  C31620931   3.592   2.082   9.057 -0.0896 -0.4170 -0.3097
  182SLPC  H16X20932   3.542   2.154   8.990  1.3142  0.0779 -0.8457
  182SLPC  H16Y20933   3.525   2.040   9.136  0.3874  1.8631  1.4008
  182SLPC  C31720934   3.662   1.990   8.966 -0.2538  0.2875  0.4251
  182SLPC  H17X20935   3.728   1.927   9.029  0.6947  0.3268 -0.4927
  182SLPC  H17Y20936   3.741   2.051   8.915 -0.7829 -0.5153 -1.4477
  182SLPC  C31820937   3.598   1.896   8.866 -0.1631 -0.1068 -1.1848
  182SLPC  H18X20938   3.546   1.953   8.786 -1.9151 -0.0075 -0.0386
  182SLPC  H18Y20939   3.525   1.844   8.932  1.5822  1.1345  1.9628
  182SLPC  H18Z20940   3.663   1.820   8.818 -1.4249 -1.7573 -0.3674
  183SLPC     N20941   4.819   4.113  10.696  0.4785 -0.4912 -0.1407
  183SLPC   C1320942   4.962   4.077  10.728 -0.1678  0.6170  0.4830
  183SLPC  H13A20943   4.959   3.989  10.790 -0.8976  0.1658 -0.1634
  183SLPC  H13B20944   5.011   4.050  10.636 -0.1094 -0.2536  0.7596
  183SLPC  H13C20945   5.022   4.155  10.772 -2.0123  0.7294  2.9734
  183SLPC   C1420946   4.827   4.213  10.585  0.2582  0.0100 -0.2676
  183SLPC  H14A20947   4.875   4.302  10.622  0.0049  0.7298 -1.6201
  183SLPC  H14B20948   4.868   4.166  10.497  1.0679  1.0744 -0.4741
  183SLPC  H14C20949   4.733   4.241  10.541 -0.2756 -1.6828 -0.2917
  183SLPC   C1520950   4.757   4.175  10.817 -0.0051 -0.0195 -0.2805
  183SLPC  H15A20951   4.768   4.123  10.911  1.1330 -0.5228 -0.6730
  183SLPC  H15B20952   4.820   4.261  10.831  0.6106 -0.7179  1.6514
  183SLPC  H15C20953   4.651   4.194  10.810 -0.1919 -0.9459 -0.1071
  183SLPC   C1220954   4.741   3.986  10.646  0.6993  0.3076  0.6467
  183SLPC  H12A20955   4.668   4.017  10.574  1.2198  4.1781  1.5830
  183SLPC  H12B20956   4.684   3.933  10.721 -1.4993 -1.0416 -1.8087
  183SLPC   C1120957   4.823   3.866  10.587  0.9565  0.2286 -0.4687
  183SLPC  H11A20958   4.891   3.907  10.510  1.4283 -0.3860 -0.3786
  183SLPC  H11B20959   4.742   3.809  10.538 -1.0075  1.8460  0.6791
  183SLPC     P20960   4.822   3.698  10.792 -0.6794  0.0325 -0.5322
  183SLPC   O1320961   4.892   3.716  10.924 -0.0289  0.0358  0.4957
  183SLPC   O1420962   4.675   3.711  10.790  0.0090 -0.2790 -0.2850
  183SLPC   O1220963   4.886   3.810  10.701  0.7392  0.0186 -0.2967
  183SLPC   O1120964   4.856   3.560  10.726 -0.0745  0.1982 -0.4559
  183SLPC    C120965   4.989   3.541  10.673 -0.1533 -0.1953 -0.4031
  183SLPC    HA20966   5.071   3.603  10.715 -0.2255 -0.5413  0.2490
  183SLPC    HB20967   5.026   3.438  10.692  1.2890  0.4614  0.6125
  183SLPC    C220968   4.993   3.559  10.521 -1.2608 -1.0245  0.4296
  183SLPC    HS20969   5.007   3.667  10.500  3.6483 -1.1956  1.5945
  183SLPC   O2120970   4.879   3.492  10.459 -0.7556 -0.1162 -0.2573
  183SLPC   C2120971   4.834   3.556  10.356 -0.0478 -0.3272 -0.6949
  183SLPC   O2220972   4.869   3.665  10.303 -0.0944  0.4522  0.0848
  183SLPC   C2220973   4.710   3.484  10.307  0.3011 -0.5986  0.3025
  183SLPC   H2R20974   4.701   3.379  10.342  0.8957 -0.6814  0.2183
  183SLPC   H2S20975   4.616   3.532  10.344  0.4294  0.5082 -0.7176
  183SLPC    C320976   5.126   3.502  10.454 -0.0438  0.0301  0.2612
  183SLPC    HX20977   5.139   3.397  10.485 -0.3258  0.0095  0.3170
  183SLPC    HY20978   5.216   3.553  10.495 -1.0362  2.9250 -0.8575
  183SLPC   O3120979   5.122   3.502  10.305 -0.2480 -0.0425  0.0702
  183SLPC   C3120980   5.171   3.614  10.250 -0.5370 -0.4209  0.2254
  183SLPC   O3220981   5.219   3.708  10.313 -0.2096 -0.0409 -0.1318
  183SLPC   C3220982   5.150   3.603  10.099 -0.2568 -0.4412 -0.2564
  183SLPC   H2X20983   5.048   3.565  10.076 -0.3694 -0.5774  0.4464
  183SLPC   H2Y20984   5.210   3.521  10.055  1.4420  0.4637  0.3019
  183SLPC   C2320985   4.710   3.494  10.151  0.4906  0.0590 -0.6917
  183SLPC   H3R20986   4.802   3.448  10.108  1.0153  2.0617 -1.8400
  183SLPC   H3S20987   4.706   3.597  10.110  0.1518  0.6622  0.8166
  183SLPC   C2420988   4.581   3.421  10.099 -0.1799  0.2096  0.2681
  183SLPC   H4R20989   4.495   3.482  10.132 -0.3714 -1.1134  2.3471
  183SLPC   H4S20990   4.578   3.320  10.144 -0.1622  0.6154  1.2064
  183SLPC   C2520991   4.582   3.404   9.945  0.2115  0.0809 -0.3044
  183SLPC   H5R20992   4.574   3.297   9.917  2.3298 -0.1355 -0.2092
  183SLPC   H5S20993   4.679   3.437   9.903 -0.4611  0.5720 -1.5124
  183SLPC   C2620994   4.455   3.473   9.887  0.2940  0.1620 -0.2315
  183SLPC   H6R20995   4.441   3.579   9.920 -0.1720 -0.1628  0.6298
  183SLPC   H6S20996   4.371   3.424   9.940  0.1274  1.4481  0.7735
  183SLPC   C2720997   4.430   3.444   9.741  0.1112 -0.5821  0.2321
  183SLPC   H7R20998   4.408   3.337   9.725 -0.0503 -0.1850 -2.8947
  183SLPC   H7S20999   4.529   3.465   9.694 -1.2311  1.9477 -1.6976
  183SLPC   C2821000   4.324   3.547   9.688 -0.5030 -0.3748 -0.1246
  183SLPC   H8R21001   4.316   3.543   9.577  1.2798 -0.9682 -0.2539
  183SLPC   H8S21002   4.375   3.643   9.713  2.0882 -1.4429 -1.0375
  183SLPC   C2921003   4.187   3.524   9.747 -0.2785  0.0166 -0.8825
  183SLPC   H9R21004   4.175   3.536   9.856 -0.1358 -0.7934 -0.7722
  183SLPC  C21021005   4.088   3.449   9.694 -0.0837  0.4965 -0.4045
  183SLPC  H10R21006   3.999   3.420   9.751  0.3703  0.9599  0.5662
  183SLPC  C21121007   4.082   3.388   9.557 -0.9573 -0.0580 -0.1536
  183SLPC  H11R21008   3.992   3.322   9.560 -1.2337  0.3197  2.2092
  183SLPC  H11S21009   4.178   3.334   9.541 -0.6716  0.6459 -0.8521
  183SLPC  C21221010   4.065   3.491   9.446 -0.1387  0.2015  0.8120
  183SLPC  H12R21011   4.079   3.599   9.461 -1.7635  0.8224 -1.5949
  183SLPC  C21321012   4.049   3.461   9.313 -0.1645 -0.5924 -0.1873
  183SLPC  H13R21013   4.027   3.528   9.229 -1.9967 -2.2310 -1.0731
  183SLPC  C21421014   4.070   3.317   9.265 -0.3929 -0.7399  0.5668
  183SLPC  H14R21015   3.971   3.277   9.235 -1.1035  1.8381 -0.9394
  183SLPC  H14S21016   4.112   3.255   9.346 -0.3616 -0.6645  0.6089
  183SLPC  C21521017   4.157   3.297   9.138 -0.1475 -0.3119  0.4086
  183SLPC  H15R21018   4.260   3.324   9.170 -0.4901 -0.3071  1.5301
  183SLPC  H15S21019   4.121   3.371   9.062  0.2453  0.6238  1.1159
  183SLPC  C21621020   4.156   3.155   9.076  0.3927 -0.4884  0.3845
  183SLPC  H16R21021   4.189   3.076   9.147  0.7927  0.8587  1.7655
  183SLPC  H16S21022   4.240   3.143   9.005 -1.1475  0.5864 -1.7128
  183SLPC  C21721023   4.028   3.123   9.004  0.0821 -0.0026  0.1960
  183SLPC  H17R21024   3.997   3.210   8.942  0.4076  0.4590  0.6758
  183SLPC  H17S21025   3.955   3.111   9.087 -0.3355  0.9120 -0.0283
  183SLPC  C21821026   4.032   2.987   8.935 -0.0489  0.3184 -0.0484
  183SLPC  H18R21027   4.100   2.988   8.846  0.6159  0.1764  0.4493
  183SLPC  H18S21028   3.934   2.945   8.906  1.0652 -1.0910 -2.0757
  183SLPC  H18T21029   4.079   2.920   9.010 -0.7395 -2.0635 -1.6112
  183SLPC   C3321030   5.171   3.744  10.031  0.3381  0.1316  0.4323
  183SLPC   H3X21031   5.258   3.794  10.078  0.7632 -0.7322  0.5811
  183SLPC   H3Y21032   5.087   3.817  10.037  0.7056  0.9873 -2.7813
  183SLPC   C3421033   5.202   3.726   9.878  0.4184  0.7640 -0.2676
  183SLPC   H4X21034   5.103   3.710   9.832 -0.3690  2.0789  0.8981
  183SLPC   H4Y21035   5.272   3.640   9.870  1.4382  1.6185 -0.7763
  183SLPC   C3521036   5.266   3.848   9.812 -0.4264 -0.1897 -0.3205
  183SLPC   H5X21037   5.354   3.888   9.866 -0.3856  2.2325 -2.0071
  183SLPC   H5Y21038   5.189   3.929   9.808 -0.4835 -0.1410  1.2923
  183SLPC   C3621039   5.319   3.832   9.664  0.4351  0.8567 -0.5519
  183SLPC   H6X21040   5.409   3.766   9.659  0.6245  1.1549 -1.0783
  183SLPC   H6Y21041   5.359   3.930   9.632  1.9273  0.7594  0.8821
  183SLPC   C3721042   5.209   3.794   9.565 -0.0074 -0.2553 -0.1234
  183SLPC   H7X21043   5.148   3.884   9.540  2.1252  0.7623 -2.0200
  183SLPC   H7Y21044   5.133   3.719   9.598  0.6692 -1.2807 -0.8494
  183SLPC   C3821045   5.278   3.759   9.436  0.0023 -0.5348  0.1278
  183SLPC   H8X21046   5.343   3.671   9.451  1.2752  0.0497 -1.6368
  183SLPC   H8Y21047   5.351   3.839   9.411 -0.0160  0.0028  1.6686
  183SLPC   C3921048   5.195   3.753   9.307  0.1680  0.3223  0.0661
  183SLPC   H9X21049   5.110   3.825   9.309  0.3138  0.4950  0.1041
  183SLPC   H9Y21050   5.137   3.659   9.293 -2.5964  1.9442 -0.1840
  183SLPC  C31021051   5.283   3.764   9.180  0.0182  0.4262  1.4563
  183SLPC  H10X21052   5.219   3.733   9.094  0.9907  2.6061 -0.1286
  183SLPC  H10Y21053   5.346   3.672   9.179 -0.8044 -0.1480  1.2775
  183SLPC  C31121054   5.345   3.893   9.144  0.1886  0.1192 -0.8324
  183SLPC  H11X21055   5.430   3.915   9.213  1.0726 -0.7182 -1.6173
  183SLPC  H11Y21056   5.268   3.969   9.168 -0.8616 -1.3388  0.6951
  183SLPC  C31221057   5.396   3.889   9.003 -0.6547  0.2397 -0.0549
  183SLPC  H12X21058   5.416   3.995   8.979  0.5134 -0.1814 -1.0133
  183SLPC  H12Y21059   5.315   3.862   8.931 -0.7319 -2.7189  1.0004
  183SLPC  C31321060   5.524   3.806   8.971  0.3682  0.0527 -0.0372
  183SLPC  H13X21061   5.522   3.695   8.977  0.2630  0.0659  0.1846
  183SLPC  H13Y21062   5.603   3.839   9.041  2.6091 -1.0128 -1.9420
  183SLPC  C31421063   5.571   3.841   8.832 -0.6955  0.7634 -0.0831
  183SLPC  H14X21064   5.589   3.951   8.836 -0.4409  0.6969  0.5427
  183SLPC  H14Y21065   5.488   3.820   8.761 -2.2021 -0.4750  1.9258
  183SLPC  C31521066   5.694   3.766   8.773  0.0581 -0.1414  0.1131
  183SLPC  H15X21067   5.671   3.658   8.757 -1.7517  0.3098 -0.5888
  183SLPC  H15Y21068   5.766   3.778   8.857 -0.2888 -1.2043  0.5828
  183SLPC  C31621069   5.740   3.830   8.643 -0.2970  0.0266 -0.7391
  183SLPC  H16X21070   5.773   3.931   8.675 -0.6300 -0.4662  1.2341
  183SLPC  H16Y21071   5.657   3.842   8.570 -0.2573 -2.9721 -1.3958
  183SLPC  C31721072   5.866   3.771   8.581 -0.6250  0.7923  0.3481
  183SLPC  H17X21073   5.920   3.696   8.643  0.9755  0.4131 -1.4170
  183SLPC  H17Y21074   5.939   3.850   8.553 -1.0132  1.1685  0.3801
  183SLPC  C31821075   5.829   3.696   8.451 -0.2853  0.1482  0.3334
  183SLPC  H18X21076   5.771   3.764   8.385 -2.1498  0.1071  1.8735
  183SLPC  H18Y21077   5.761   3.612   8.476 -0.3417 -1.1520 -3.4364
  183SLPC  H18Z21078   5.921   3.670   8.393 -1.1861 -2.0149 -0.2324
  184SLPC     N21079   1.184   0.055  11.199  0.3192  0.6895  0.2792
  184SLPC   C1321080   1.249  -0.002  11.313 -0.7036  0.5379  0.3773
  184SLPC  H13A21081   1.290  -0.099  11.291  1.7759  1.6357 -0.1662
  184SLPC  H13B21082   1.337   0.049  11.349  1.4215 -2.3123 -0.4009
  184SLPC  H13C21083   1.181  -0.007  11.398  0.2974  1.9844  1.3100
  184SLPC   C1421084   1.284   0.078  11.093 -0.2492  0.0886 -0.4948
  184SLPC  H14A21085   1.356   0.151  11.124  2.4040 -2.8258  0.7305
  184SLPC  H14B21086   1.340  -0.013  11.079 -2.4369 -1.8187  2.1893
  184SLPC  H14C21087   1.233   0.123  11.008 -0.8280  3.1568  1.3256
  184SLPC   C1521088   1.136   0.189  11.234  0.5120  0.2370  0.1879
  184SLPC  H15A21089   1.076   0.174  11.323 -0.7238 -0.4037 -0.7346
  184SLPC  H15B21090   1.223   0.251  11.243  1.0645 -0.2604 -1.4536
  184SLPC  H15C21091   1.086   0.228  11.147 -1.5628  1.6908  1.9297
  184SLPC   C1221092   1.064  -0.033  11.153  0.1105  0.2887  0.2215
  184SLPC  H12A21093   1.014  -0.068  11.241  0.4588  0.8864  0.6615
  184SLPC  H12B21094   1.108  -0.123  11.113  0.5070 -0.5181  2.3323
  184SLPC   C1121095   0.957   0.037  11.067 -0.1762 -0.6419  0.0261
  184SLPC  H11A21096   0.922   0.130  11.117  0.5295  1.1398 -2.5620
  184SLPC  H11B21097   0.864  -0.023  11.055 -1.5788  1.5754 -0.8126
  184SLPC     P21098   1.051  -0.035  10.836 -0.3600 -0.1642 -0.2434
  184SLPC   O1321099   1.200  -0.028  10.823  0.3754  0.4295 -0.3935
  184SLPC   O1421100   0.998  -0.165  10.877  0.1441 -0.0547  0.2966
  184SLPC   O1221101   1.006   0.075  10.937 -0.6347  0.2224  0.0381
  184SLPC   O1121102   0.992   0.019  10.704  0.6774  0.0341  0.1589
  184SLPC    C121103   0.964   0.161  10.691  0.1355 -0.0575 -0.4673
  184SLPC    HA21104   0.897   0.191  10.774  2.5874 -0.6175  1.8670
  184SLPC    HB21105   1.057   0.221  10.706  0.9161 -1.0477 -1.2331
  184SLPC    C221106   0.900   0.202  10.554  0.2324  0.4149 -1.0601
  184SLPC    HS21107   0.887   0.312  10.547  0.5571  0.4884 -0.5355
  184SLPC   O2121108   0.776   0.130  10.534  0.1282  0.0844 -0.1598
  184SLPC   C2121109   0.682   0.199  10.467  0.0793  0.0137 -0.5105
  184SLPC   O2221110   0.701   0.292  10.394  0.1572 -0.4571  0.1674
  184SLPC   C2221111   0.546   0.135  10.489 -0.7271  0.1019 -0.3455
  184SLPC   H2R21112   0.556   0.031  10.526 -3.4676 -1.2812 -3.0538
  184SLPC   H2S21113   0.505   0.194  10.574 -1.2090 -0.3429 -0.2647
  184SLPC    C321114   0.994   0.162  10.438  0.3317  0.9297  0.8880
  184SLPC    HX21115   0.984   0.052  10.433 -0.0291  0.9459  1.1573
  184SLPC    HY21116   1.097   0.188  10.469  0.6977  1.5041 -0.6917
  184SLPC   O3121117   0.960   0.227  10.312 -0.5308  0.3523 -0.1995
  184SLPC   C3121118   0.898   0.154  10.220 -0.4300  0.1555 -0.2582
  184SLPC   O3221119   0.869   0.034  10.230 -0.2994  0.0014  0.6745
  184SLPC   C3221120   0.870   0.236  10.101 -0.0302 -0.3377 -0.3682
  184SLPC   H2X21121   0.959   0.296  10.071  0.1835  0.2058  1.2704
  184SLPC   H2Y21122   0.776   0.296  10.103  0.4882  0.5066 -0.6273
  184SLPC   C2321123   0.453   0.139  10.370 -0.0464  0.3717  0.8665
  184SLPC   H3R21124   0.439   0.243  10.333 -0.0390 -0.4009 -1.4267
  184SLPC   H3S21125   0.353   0.103  10.402  0.8616 -2.2515  0.9369
  184SLPC   C2421126   0.496   0.053  10.252 -0.3346 -0.3543 -0.2426
  184SLPC   H4R21127   0.520  -0.044  10.302  0.6864  0.6133  1.2368
  184SLPC   H4S21128   0.586   0.095  10.201 -1.8829  1.5334 -1.5387
  184SLPC   C2521129   0.379   0.050  10.152  0.6767  0.3928 -0.0230
  184SLPC   H5R21130   0.287   0.064  10.213  0.3079  1.1046 -0.7456
  184SLPC   H5S21131   0.383  -0.055  10.114 -0.8654  0.5336 -0.6373
  184SLPC   C2621132   0.398   0.154  10.036  0.1133 -0.3828 -0.0429
  184SLPC   H6R21133   0.317   0.151   9.960  0.7373  0.3746 -0.7496
  184SLPC   H6S21134   0.484   0.101   9.990 -0.6208 -2.3956  0.8107
  184SLPC   C2721135   0.426   0.301  10.071 -0.0314  0.4161 -0.5324
  184SLPC   H7R21136   0.524   0.305  10.124  0.7710  2.5743 -2.0465
  184SLPC   H7S21137   0.349   0.347  10.136  0.2224 -0.4139  0.3812
  184SLPC   C2821138   0.454   0.398   9.954 -0.0158  0.7835  0.4656
  184SLPC   H8R21139   0.537   0.352   9.896 -2.0306  0.8936 -2.7964
  184SLPC   H8S21140   0.487   0.500   9.985 -3.9679  1.8636  1.6634
  184SLPC   C2921141   0.333   0.422   9.867  0.2347  0.4912  0.0889
  184SLPC   H9R21142   0.237   0.441   9.917 -0.5915 -0.0680 -1.2220
  184SLPC  C21021143   0.330   0.387   9.735  0.5384  0.3391 -0.0131
  184SLPC  H10R21144   0.241   0.409   9.673  0.0904  0.1503  0.5491
  184SLPC  C21121145   0.444   0.342   9.644  0.4417 -0.6084 -0.6490
  184SLPC  H11R21146   0.546   0.333   9.686  0.0032  0.7551  0.8108
  184SLPC  H11S21147   0.454   0.421   9.566 -1.1774  0.8435  0.5298
  184SLPC  C21221148   0.408   0.210   9.584 -0.5731  0.2403  0.1494
  184SLPC  H12R21149   0.378   0.134   9.658  1.1642  0.3810  1.0574
  184SLPC  C21321150   0.421   0.164   9.457 -0.3436 -0.1124 -0.0499
  184SLPC  H13R21151   0.373   0.071   9.423 -0.6674  1.1954 -3.7001
  184SLPC  C21421152   0.471   0.245   9.335 -0.2919 -0.6443 -0.3413
  184SLPC  H14R21153   0.562   0.196   9.295  1.4843  1.6647  0.6113
  184SLPC  H14S21154   0.487   0.353   9.356 -0.4430  0.0181 -3.2485
  184SLPC  C21521155   0.355   0.259   9.226  0.2849  0.1237 -1.1847
  184SLPC  H15R21156   0.259   0.295   9.269  1.0388 -0.3851  1.0628
  184SLPC  H15S21157   0.330   0.163   9.175 -4.1910  1.3296 -1.6414
  184SLPC  C21621158   0.378   0.355   9.107  0.3387 -0.2217  0.5779
  184SLPC  H16R21159   0.473   0.326   9.057  1.2289  0.8298  1.6071
  184SLPC  H16S21160   0.384   0.462   9.137 -0.8090 -0.0601  0.3006
  184SLPC  C21721161   0.266   0.346   8.998 -0.0095 -0.2649 -0.4199
  184SLPC  H17R21162   0.169   0.352   9.052 -0.2758 -0.8762 -0.8197
  184SLPC  H17S21163   0.267   0.244   8.953  1.2296 -0.1577 -0.6797
  184SLPC  C21821164   0.278   0.448   8.886 -0.5202  0.2292  0.5776
  184SLPC  H18R21165   0.314   0.548   8.918  0.6697  0.0749 -0.2105
  184SLPC  H18S21166   0.180   0.461   8.835 -1.2248  0.5647  1.9682
  184SLPC  H18T21167   0.344   0.399   8.812 -0.8864 -1.8990  1.5900
  184SLPC   C3321168   0.847   0.140   9.980  0.0642  0.5393 -0.4130
  184SLPC   H3X21169   0.750   0.088   9.995 -0.5616  1.6475 -0.5314
  184SLPC   H3Y21170   0.927   0.064   9.976  1.0731  1.3447  2.1315
  184SLPC   C3421171   0.850   0.232   9.860 -0.4131  0.0664  0.2178
  184SLPC   H4X21172   0.905   0.328   9.863 -0.5987  0.1717  0.3024
  184SLPC   H4Y21173   0.746   0.264   9.836  0.1652  0.0950 -2.5879
  184SLPC   C3521174   0.913   0.156   9.737  0.3365 -0.0094 -0.1460
  184SLPC   H5X21175   0.889   0.048   9.739 -0.2043 -0.0472 -3.3831
  184SLPC   H5Y21176   1.023   0.170   9.742  0.2165  1.4454 -0.8757
  184SLPC   C3621177   0.873   0.187   9.597 -0.4505 -0.6975  0.2092
  184SLPC   H6X21178   0.763   0.172   9.591 -0.3595 -0.8537 -1.4508
  184SLPC   H6Y21179   0.921   0.115   9.528  0.9778  1.6755 -1.4550
  184SLPC   C3721180   0.909   0.330   9.550  0.8867  0.4110 -0.3637
  184SLPC   H7X21181   1.004   0.362   9.598  2.1768 -0.8868 -1.9018
  184SLPC   H7Y21182   0.834   0.395   9.599  0.5173  0.5310 -1.0669
  184SLPC   C3821183   0.914   0.347   9.396 -0.7866 -0.3618 -0.4973
  184SLPC   H8X21184   0.994   0.289   9.346 -0.7091  0.2377 -1.0809
  184SLPC   H8Y21185   0.949   0.451   9.380 -2.3578  0.6824  2.1862
  184SLPC   C3921186   0.786   0.327   9.319 -0.0656  0.7090  0.1251
  184SLPC   H9X21187   0.712   0.407   9.342 -0.9052  0.7973 -2.6001
  184SLPC   H9Y21188   0.744   0.233   9.361 -2.5237  1.6931  0.0487
  184SLPC  C31021189   0.801   0.316   9.169  0.1533  0.1302 -0.0164
  184SLPC  H10X21190   0.853   0.409   9.138 -1.3696  0.6243 -1.2253
  184SLPC  H10Y21191   0.705   0.314   9.112  1.0410 -0.7134 -1.5288
  184SLPC  C31121192   0.885   0.203   9.102 -0.3853 -0.3420  0.3059
  184SLPC  H11X21193   0.839   0.108   9.134  0.5056 -0.5149  1.1067
  184SLPC  H11Y21194   0.990   0.201   9.137 -0.5087  3.1526  1.3074
  184SLPC  C31221195   0.856   0.201   8.951  0.6867 -0.0903  0.0144
  184SLPC  H12X21196   0.902   0.292   8.907  0.5102 -0.6800 -1.4484
  184SLPC  H12Y21197   0.745   0.205   8.945  0.5657 -2.7471 -1.0018
  184SLPC  C31321198   0.904   0.076   8.881  0.3996 -0.1089  1.0069
  184SLPC  H13X21199   0.860  -0.013   8.932 -1.7839 -0.1162 -0.7303
  184SLPC  H13Y21200   1.015   0.072   8.885  0.7007  2.2303 -1.9887
  184SLPC  C31421201   0.872   0.064   8.732 -1.0838  0.2125  0.3688
  184SLPC  H14X21202   0.908   0.153   8.676  1.8035 -0.9648  0.1878
  184SLPC  H14Y21203   0.761   0.059   8.725 -1.1169  0.5587  0.6126
  184SLPC  C31521204   0.930  -0.069   8.667  0.1830 -0.5700 -0.1259
  184SLPC  H15X21205   0.896  -0.161   8.720  1.0505  0.5227  2.4468
  184SLPC  H15Y21206   1.041  -0.073   8.675  0.3665  1.9016 -0.7710
  184SLPC  C31621207   0.894  -0.090   8.518  0.0768 -0.0412 -0.5216
  184SLPC  H16X21208   0.967  -0.039   8.451 -1.0424  0.4264 -1.4105
  184SLPC  H16Y21209   0.793  -0.052   8.493  0.0049  0.5976  0.6965
  184SLPC  C31721210   0.909  -0.238   8.495  0.3078  0.0551 -0.0416
  184SLPC  H17X21211   0.822  -0.290   8.541  0.2848 -0.3805 -0.5719
  184SLPC  H17Y21212   0.997  -0.270   8.555  0.9405  0.6081 -0.6625
  184SLPC  C31821213   0.926  -0.277   8.348 -0.8476 -0.4502 -0.2677
  184SLPC  H18X21214   1.013  -0.223   8.306 -1.3336  0.6755  0.1409
  184SLPC  H18Y21215   0.839  -0.254   8.282 -0.6526  0.8097 -0.1110
  184SLPC  H18Z21216   0.941  -0.387   8.339  1.7171 -0.0527 -1.9884
  185SLPC     N21217   5.328   3.939   6.514 -0.0215  0.5780 -0.6240
  185SLPC   C1321218   5.381   3.920   6.652 -0.1985 -0.2684  0.4271
  185SLPC  H13A21219   5.302   3.897   6.722 -1.9825 -2.5486 -2.1264
  185SLPC  H13B21220   5.435   3.827   6.655 -0.5674 -0.4711  0.8217
  185SLPC  H13C21221   5.440   4.007   6.678 -0.4430 -0.0966  0.4166
  185SLPC   C1421222   5.437   3.981   6.416 -0.2610 -0.0078 -0.6915
  185SLPC  H14A21223   5.525   3.919   6.423  0.5377  0.9696 -1.7471
  185SLPC  H14B21224   5.404   3.975   6.314  0.8617  1.4124 -1.1697
  185SLPC  H14C21225   5.470   4.083   6.433  2.2556 -0.6909 -1.0384
  185SLPC   C1521226   5.231   4.050   6.510 -0.0865 -0.0885 -0.2095
  185SLPC  H15A21227   5.147   4.035   6.577  0.6166  0.6193  0.8650
  185SLPC  H15B21228   5.287   4.140   6.530  0.4103 -0.7168  1.3801
  185SLPC  H15C21229   5.194   4.063   6.409  2.0532  0.0589 -1.0113
  185SLPC   C1221230   5.257   3.818   6.461 -0.0141  0.4097 -0.2441
  185SLPC  H12A21231   5.250   3.815   6.353  0.6646 -0.3102 -0.2773
  185SLPC  H12B21232   5.155   3.820   6.497  0.3261  1.5366  0.7075
  185SLPC   C1121233   5.318   3.683   6.498 -0.0868 -0.2623  0.1759
  185SLPC  H11A21234   5.346   3.675   6.605 -1.8161 -3.6584  0.5115
  185SLPC  H11B21235   5.416   3.678   6.446  1.2137  0.7228  2.3703
  185SLPC     P21236   5.105   3.546   6.546  0.2705  0.0010 -0.0067
  185SLPC   O1321237   4.997   3.627   6.483  0.2949  0.0548  0.2526
  185SLPC   O1421238   5.099   3.397   6.545 -0.2357 -0.2590  0.0871
  185SLPC   O1221239   5.225   3.588   6.453 -0.5557 -0.2371 -0.1602
  185SLPC   O1121240   5.139   3.607   6.690 -0.0103 -0.9817 -0.4773
  185SLPC    C121241   5.049   3.567   6.795 -0.4851 -0.4599 -0.3239
  185SLPC    HA21242   4.940   3.558   6.776 -0.6983 -2.4479  1.4511
  185SLPC    HB21243   5.084   3.466   6.828  1.0971 -0.1059 -0.8115
  185SLPC    C221244   5.055   3.665   6.914  0.9104 -1.0591 -0.6256
  185SLPC    HS21245   5.159   3.683   6.948  0.1633  2.0219  0.3421
  185SLPC   O2121246   4.960   3.622   7.012  0.0957 -0.2706  0.8125
  185SLPC   C2121247   5.004   3.591   7.134  0.8655  0.3879 -0.0043
  185SLPC   O2221248   5.109   3.623   7.180 -0.0362 -0.2233 -0.0766
  185SLPC   C2221249   4.908   3.499   7.214 -0.2118 -0.8050 -0.2023
  185SLPC   H2R21250   4.831   3.468   7.140 -2.6780  1.8056  1.0670
  185SLPC   H2S21251   4.960   3.408   7.249 -1.4794 -1.1197  0.9526
  185SLPC    C321252   5.021   3.821   6.867 -0.2613  0.6421  0.2502
  185SLPC    HX21253   4.915   3.817   6.836  0.1138  1.4097 -1.2280
  185SLPC    HY21254   5.071   3.843   6.770  0.2250 -0.3414  0.2646
  185SLPC   O3121255   5.046   3.918   6.972  0.2011 -0.0571  0.1844
  185SLPC   C3121256   5.146   4.002   6.975  0.7913 -0.4298 -0.3249
  185SLPC   O3221257   5.236   4.002   6.890  0.0111  0.0040 -0.1888
  185SLPC   C3221258   5.137   4.102   7.092  0.5448  0.7197 -0.1902
  185SLPC   H2X21259   5.029   4.117   7.114  0.4743  2.1347 -1.3341
  185SLPC   H2Y21260   5.181   4.184   7.032  0.4996  0.7293 -0.2105
  185SLPC   C2321261   4.845   3.573   7.335  0.2623  0.0643  0.4671
  185SLPC   H3R21262   4.758   3.509   7.360  0.4254 -0.1338  0.5338
  185SLPC   H3S21263   4.813   3.674   7.302  3.0029  0.5122 -1.1598
  185SLPC   C2421264   4.928   3.579   7.463 -0.0272 -0.1010  0.2072
  185SLPC   H4R21265   5.027   3.625   7.443  0.5070 -1.9751 -1.9328
  185SLPC   H4S21266   4.953   3.477   7.500  0.7107 -0.8332 -2.1403
  185SLPC   C2521267   4.859   3.652   7.577  0.0538 -0.4350  0.8397
  185SLPC   H5R21268   4.815   3.747   7.540 -0.7547 -0.7350  1.0179
  185SLPC   H5S21269   4.933   3.684   7.654 -0.5016 -1.8555  2.0093
  185SLPC   C2621270   4.752   3.573   7.647  0.4602  0.2296  0.5133
  185SLPC   H6R21271   4.804   3.507   7.719  0.2033  0.1194  0.6008
  185SLPC   H6S21272   4.715   3.504   7.568  0.2346  0.1070  0.7264
  185SLPC   C2721273   4.637   3.648   7.717 -0.0263  0.0747 -0.4750
  185SLPC   H7R21274   4.546   3.584   7.717  0.1254 -0.2001  1.1729
  185SLPC   H7S21275   4.622   3.742   7.659  1.2021 -0.8248 -2.3338
  185SLPC   C2821276   4.678   3.690   7.861 -0.0301  0.9537  0.0435
  185SLPC   H8R21277   4.768   3.756   7.864 -0.2496  1.2762 -0.2423
  185SLPC   H8S21278   4.697   3.604   7.927 -1.4525  0.0367 -0.6760
  185SLPC   C2921279   4.578   3.793   7.924 -0.2166  0.2890  0.2791
  185SLPC   H9R21280   4.587   3.894   7.881  0.9826  0.1298  0.1203
  185SLPC  C21021281   4.480   3.772   8.016  0.4257  0.2534  0.2032
  185SLPC  H10R21282   4.421   3.858   8.053  2.4103  1.2906  1.1087
  185SLPC  C21121283   4.446   3.639   8.084  0.0143 -0.1446 -0.0736
  185SLPC  H11R21284   4.538   3.579   8.066  0.7065  0.8768 -0.0195
  185SLPC  H11S21285   4.358   3.591   8.036  1.9647 -2.5655 -1.4956
  185SLPC  C21221286   4.439   3.643   8.235 -0.4431  0.5146 -0.5602
  185SLPC  H12R21287   4.459   3.743   8.276 -2.3519  1.7478 -2.4335
  185SLPC  C21321288   4.393   3.552   8.322 -0.2250  0.4109 -0.4323
  185SLPC  H13R21289   4.405   3.570   8.430 -1.5083 -1.7962  0.1251
  185SLPC  C21421290   4.336   3.419   8.290 -0.8110 -0.1416 -0.3673
  185SLPC  H14R21291   4.366   3.346   8.368  0.3649 -0.2162 -0.8654
  185SLPC  H14S21292   4.386   3.385   8.197  1.0227  0.9903  0.1621
  185SLPC  C21521293   4.182   3.405   8.283 -0.1712  0.1276 -0.7581
  185SLPC  H15R21294   4.151   3.305   8.244  0.4025 -0.2126 -0.3454
  185SLPC  H15S21295   4.147   3.478   8.206 -0.9704  1.0443  0.4308
  185SLPC  C21621296   4.113   3.445   8.426  0.0585  0.0629 -0.0666
  185SLPC  H16R21297   4.157   3.544   8.449 -0.0480  0.6924 -2.4190
  185SLPC  H16S21298   4.139   3.362   8.496 -0.9730  0.9432  1.4083
  185SLPC  C21721299   3.962   3.447   8.417  0.4558 -0.7411  0.0015
  185SLPC  H17R21300   3.916   3.417   8.513 -4.5531 -1.0481 -2.1848
  185SLPC  H17S21301   3.925   3.374   8.341  0.4937 -0.7294 -0.0272
  185SLPC  C21821302   3.914   3.585   8.355 -0.4668  0.4106 -0.5922
  185SLPC  H18R21303   3.961   3.673   8.405 -3.5435  1.6066  0.3979
  185SLPC  H18S21304   3.805   3.586   8.374 -0.2360  0.3401  0.8463
  185SLPC  H18T21305   3.940   3.599   8.248 -1.2172  1.0886 -0.6980
  185SLPC   C3321306   5.228   4.083   7.219  0.5947  0.2778  0.0618
  185SLPC   H3X21307   5.223   4.176   7.280 -1.1435  0.8603 -0.8801
  185SLPC   H3Y21308   5.335   4.064   7.199  0.5128 -0.8495  0.5699
  185SLPC   C3421309   5.174   3.977   7.322 -0.1317  0.3199  1.2533
  185SLPC   H4X21310   5.209   3.884   7.272  1.4213  1.9918 -1.0244
  185SLPC   H4Y21311   5.063   3.974   7.321 -0.2563  2.0067 -0.9617
  185SLPC   C3521312   5.242   3.987   7.458  0.5220 -0.0929 -0.5920
  185SLPC   H5X21313   5.232   4.089   7.501  1.4633 -0.8700  1.6444
  185SLPC   H5Y21314   5.352   3.977   7.456  0.6840  1.4658 -0.5252
  185SLPC   C3621315   5.184   3.873   7.559  0.2695  1.4933 -0.2131
  185SLPC   H6X21316   5.201   3.773   7.514  1.4706  1.5615  0.0635
  185SLPC   H6Y21317   5.074   3.890   7.559 -0.0896 -0.4443  1.4871
  185SLPC   C3721318   5.239   3.886   7.708  0.3852  0.5050  1.0688
  185SLPC   H7X21319   5.251   3.992   7.740 -1.3586  1.3640 -0.8469
  185SLPC   H7Y21320   5.342   3.846   7.696 -0.3885 -1.4685  0.5627
  185SLPC   C3821321   5.149   3.807   7.811 -0.3460 -0.3523 -0.6664
  185SLPC   H8X21322   5.125   3.700   7.794  0.2144 -0.8389  1.3084
  185SLPC   H8Y21323   5.047   3.852   7.811 -0.3816 -0.3185  1.4820
  185SLPC   C3921324   5.201   3.821   7.959  0.2535  0.1234 -0.3745
  185SLPC   H9X21325   5.209   3.926   7.993  1.4330 -0.2181  0.4970
  185SLPC   H9Y21326   5.303   3.777   7.954 -0.4913 -1.9349  1.1721
  185SLPC  C31021327   5.123   3.728   8.061  0.6841 -0.2975  0.0480
  185SLPC  H10X21328   5.181   3.687   8.146 -0.4681 -3.5284 -0.5683
  185SLPC  H10Y21329   5.090   3.638   8.004 -1.0036  1.4637 -1.9171
  185SLPC  C31121330   4.992   3.788   8.107 -0.7136  0.2876  0.2893
  185SLPC  H11X21331   4.935   3.796   8.012  0.6735  0.4364 -0.5557
  185SLPC  H11Y21332   5.013   3.890   8.147 -1.5548  0.2656  0.8307
  185SLPC  C31221333   4.921   3.695   8.211 -0.3427 -0.1665  0.2542
  185SLPC  H12X21334   4.836   3.754   8.252 -0.4336  0.1255 -0.3521
  185SLPC  H12Y21335   4.988   3.675   8.298  0.1129 -0.1199 -0.0853
  185SLPC  C31321336   4.879   3.553   8.165 -0.3780  0.7175 -0.1160
  185SLPC  H13X21337   4.964   3.485   8.145  1.4161  2.2750  1.7219
  185SLPC  H13Y21338   4.826   3.571   8.069  2.0661  2.7013 -1.2221
  185SLPC  C31421339   4.811   3.474   8.279  0.4362 -0.4401 -0.4112
  185SLPC  H14X21340   4.749   3.390   8.241 -0.1043  0.8307 -2.4967
  185SLPC  H14Y21341   4.733   3.549   8.306  0.7956  0.2011 -1.1215
  185SLPC  C31521342   4.888   3.435   8.398  0.2379  0.4891 -0.0341
  185SLPC  H15X21343   4.947   3.517   8.444  1.4609 -0.8233  0.8292
  185SLPC  H15Y21344   4.973   3.374   8.363 -0.1031 -0.6067  0.9695
  185SLPC  C31621345   4.815   3.365   8.513 -0.8374 -0.1693 -0.3041
  185SLPC  H16X21346   4.855   3.262   8.511 -1.2652 -0.3769  0.8323
  185SLPC  H16Y21347   4.709   3.354   8.483 -0.9980 -0.5823  0.3880
  185SLPC  C31721348   4.842   3.426   8.655 -0.4244  0.0720  0.4752
  185SLPC  H17X21349   4.806   3.531   8.643  0.1900  0.2944  0.5194
  185SLPC  H17Y21350   4.951   3.438   8.672 -0.3760  1.9471 -0.7429
  185SLPC  C31821351   4.766   3.356   8.766  0.3218 -0.4979 -0.0572
  185SLPC  H18X21352   4.768   3.248   8.740  3.2683 -0.0113 -2.2541
  185SLPC  H18Y21353   4.657   3.377   8.761  0.4955  0.8234  0.9856
  185SLPC  H18Z21354   4.798   3.377   8.870 -2.9797 -1.2757  1.2525
  186SLPC     N21355   6.535   4.781   6.203 -0.2468  0.1189  0.5163
  186SLPC   C1321356   6.408   4.864   6.172 -0.7188  0.0709 -0.0278
  186SLPC  H13A21357   6.425   4.971   6.174 -0.7956  0.0743  0.7399
  186SLPC  H13B21358   6.376   4.839   6.072 -1.0969  0.4936 -0.0167
  186SLPC  H13C21359   6.328   4.846   6.242 -0.0448  0.1827  0.7794
  186SLPC   C1421360   6.621   4.781   6.085 -0.1301 -0.4592  0.5800
  186SLPC  H14A21361   6.701   4.709   6.096  1.4972  1.1364 -0.2062
  186SLPC  H14B21362   6.561   4.741   6.004  0.5880 -0.8140  0.2093
  186SLPC  H14C21363   6.666   4.874   6.053 -1.1845 -0.6755 -1.7634
  186SLPC   C1521364   6.493   4.635   6.218  0.5204 -0.1349 -0.0057
  186SLPC  H15A21365   6.446   4.592   6.131 -0.4366  0.0920  0.3844
  186SLPC  H15B21366   6.583   4.580   6.245  1.2658  2.1309  2.6036
  186SLPC  H15C21367   6.423   4.632   6.300 -0.1546 -0.5054 -0.5941
  186SLPC   C1221368   6.593   4.826   6.337 -0.5674 -0.2434  0.6688
  186SLPC  H12A21369   6.667   4.753   6.365 -0.4414 -0.5255 -0.3559
  186SLPC  H12B21370   6.515   4.827   6.411 -1.6124  0.6095 -0.4017
  186SLPC   C1121371   6.664   4.963   6.334 -0.6634 -0.3761 -0.5050
  186SLPC  H11A21372   6.677   5.006   6.436 -0.6068 -1.5758  0.0085
  186SLPC  H11B21373   6.605   5.038   6.277  1.5031  3.2945  1.6922
  186SLPC     P21374   6.912   4.864   6.304 -0.1711  0.0183 -0.1205
  186SLPC   O1321375   6.866   4.729   6.285  0.6876  0.1177 -0.0284
  186SLPC   O1421376   7.032   4.897   6.230 -0.8082 -0.4701  0.1221
  186SLPC   O1221377   6.793   4.962   6.271  0.4362  0.3563  0.1316
  186SLPC   O1121378   6.933   4.899   6.456  0.3049  0.2604 -0.0699
  186SLPC    C121379   7.037   4.992   6.500  0.6027  0.9099  0.6682
  186SLPC    HA21380   7.133   4.936   6.494 -0.8163 -1.5513 -0.3014
  186SLPC    HB21381   7.035   5.072   6.423 -1.8907  0.2337 -0.0723
  186SLPC    C221382   7.017   5.044   6.646 -0.3623  0.4007  0.4603
  186SLPC    HS21383   7.105   5.103   6.678 -1.5617  1.9595  0.9854
  186SLPC   O2121384   7.002   4.942   6.741  0.2436  0.2761  0.2263
  186SLPC   C2121385   7.098   4.849   6.762  0.1344  0.5101 -0.0484
  186SLPC   O2221386   7.209   4.854   6.704 -0.4811  0.4145 -0.7566
  186SLPC   C2221387   7.058   4.744   6.872  0.6353 -0.0492  0.7425
  186SLPC   H2R21388   6.999   4.668   6.816  1.1344 -1.2328  1.7639
  186SLPC   H2S21389   7.151   4.687   6.898  1.5315 -0.2338 -2.4709
  186SLPC    C321390   6.889   5.134   6.648  0.1332 -0.1463 -0.6018
  186SLPC    HX21391   6.807   5.068   6.613 -1.0344  0.0166  1.6367
  186SLPC    HY21392   6.896   5.226   6.586  0.0426  0.4301  0.2334
  186SLPC   O3121393   6.856   5.172   6.786 -0.0389  0.5963 -0.1143
  186SLPC   C3121394   6.951   5.251   6.838  0.6641  0.3668  0.1205
  186SLPC   O3221395   7.026   5.321   6.772 -0.3826  0.5519 -0.0647
  186SLPC   C3221396   6.927   5.253   6.995 -0.1761  0.6292  0.7825
  186SLPC   H2X21397   6.922   5.148   7.030 -1.4278  1.2932  2.7514
  186SLPC   H2Y21398   6.824   5.294   7.000 -0.3211  0.1544  1.9338
  186SLPC   C2321399   6.973   4.796   6.985  0.2304  0.1740 -0.3086
  186SLPC   H3R21400   6.923   4.713   7.039  0.6838  0.4519  0.5502
  186SLPC   H3S21401   6.891   4.863   6.950  1.4898  1.3056 -1.1735
  186SLPC   C2421402   7.051   4.881   7.086 -0.1687 -0.1266 -0.0510
  186SLPC   H4R21403   7.079   4.973   7.030  1.4731 -1.0815 -0.8883
  186SLPC   H4S21404   7.141   4.823   7.115 -0.4027 -0.6046 -0.2742
  186SLPC   C2521405   6.986   4.892   7.220 -0.1383 -0.2797 -0.0369
  186SLPC   H5R21406   6.960   4.790   7.257  1.1724 -0.5553  0.1846
  186SLPC   H5S21407   6.899   4.959   7.209 -0.2741 -0.5519 -0.6301
  186SLPC   C2621408   7.075   4.966   7.327  0.4889  0.0771  0.0502
  186SLPC   H6R21409   7.116   5.057   7.278 -0.0469  0.1039 -0.3628
  186SLPC   H6S21410   7.161   4.905   7.360  0.3663  0.4081  1.0223
  186SLPC   C2721411   6.984   5.005   7.446  1.0112 -0.5771  0.2508
  186SLPC   H7R21412   6.933   4.914   7.486  1.4400 -0.4967  1.0025
  186SLPC   H7S21413   6.911   5.079   7.407  1.0866 -0.7157 -0.1585
  186SLPC   C2821414   7.054   5.082   7.559  0.5984  1.2740  0.4061
  186SLPC   H8R21415   6.983   5.128   7.631 -1.6056 -0.4448 -0.5217
  186SLPC   H8S21416   7.105   5.163   7.503 -1.1838  1.7872 -0.5770
  186SLPC   C2921417   7.150   4.991   7.640 -0.2306 -0.2582  0.2750
  186SLPC   H9R21418   7.225   4.946   7.574 -0.1133 -0.9364  0.8608
  186SLPC  C21021419   7.168   4.980   7.773  0.2350 -0.3406 -0.1564
  186SLPC  H10R21420   7.252   4.916   7.806  0.0404 -0.5750 -0.1125
  186SLPC  C21121421   7.088   5.047   7.891  0.3544  0.1570 -0.5185
  186SLPC  H11R21422   7.073   4.974   7.973 -0.8692  1.7298  0.7326
  186SLPC  H11S21423   6.985   5.070   7.857 -0.0781 -1.7421 -0.5781
  186SLPC  C21221424   7.133   5.177   7.946 -1.0036  0.0635 -0.8141
  186SLPC  H12R21425   7.147   5.254   7.869 -0.0739 -0.4612 -1.1952
  186SLPC  C21321426   7.190   5.195   8.069 -0.3940 -0.1368 -0.1289
  186SLPC  H13R21427   7.223   5.296   8.097 -0.9645 -0.8147  3.4166
  186SLPC  C21421428   7.217   5.086   8.171  0.4516  0.1933 -0.0521
  186SLPC  H14R21429   7.325   5.056   8.174  0.3551 -0.1215  0.7763
  186SLPC  H14S21430   7.146   5.001   8.160 -0.4067  0.4753  2.5962
  186SLPC  C21521431   7.184   5.145   8.307 -0.4234 -0.4355  0.3284
  186SLPC  H15R21432   7.163   5.068   8.385  1.9767 -0.3334  1.1608
  186SLPC  H15S21433   7.093   5.207   8.294 -1.4859 -1.9673  0.2428
  186SLPC  C21621434   7.297   5.229   8.369  0.6648  0.3531 -0.2488
  186SLPC  H16R21435   7.341   5.283   8.282  1.3764 -0.3951 -0.3547
  186SLPC  H16S21436   7.376   5.169   8.418  0.9237 -0.9398 -2.1499
  186SLPC  C21721437   7.242   5.340   8.451 -0.0653  0.2147 -0.3059
  186SLPC  H17R21438   7.192   5.307   8.544  1.0853  1.1125  0.6769
  186SLPC  H17S21439   7.173   5.406   8.395 -1.8335 -0.2521  1.2226
  186SLPC  C21821440   7.363   5.426   8.503  0.1316 -0.8075  0.3559
  186SLPC  H18R21441   7.333   5.524   8.545 -0.9708  0.3893 -2.8998
  186SLPC  H18S21442   7.416   5.468   8.415 -0.2632 -1.3422 -0.1465
  186SLPC  H18T21443   7.436   5.359   8.555  0.8879 -0.0170  0.3267
  186SLPC   C3321444   7.012   5.340   7.080 -0.4322 -0.4963 -0.0534
  186SLPC   H3X21445   7.030   5.442   7.039 -1.0885  0.1232  1.1695
  186SLPC   H3Y21446   7.112   5.293   7.089 -1.2682 -2.2386  0.6042
  186SLPC   C3421447   6.951   5.358   7.221  0.0054  0.2704 -0.1641
  186SLPC   H4X21448   6.897   5.263   7.244  0.6876 -0.4151 -1.2649
  186SLPC   H4Y21449   6.876   5.439   7.221  0.4552  0.6897  0.1334
  186SLPC   C3521450   7.052   5.395   7.335 -0.4183  0.0802 -0.1979
  186SLPC   H5X21451   7.106   5.488   7.309  0.2907  0.3212  1.9689
  186SLPC   H5Y21452   7.124   5.316   7.362  1.9738  2.9277  2.4451
  186SLPC   C3621453   6.965   5.433   7.457  0.1277 -0.7847  0.2056
  186SLPC   H6X21454   6.908   5.341   7.482 -0.0896 -0.6868  0.0709
  186SLPC   H6Y21455   6.890   5.512   7.437 -0.3774 -1.4016 -0.4220
  186SLPC   C3721456   7.067   5.469   7.569  0.0054  0.3198 -0.2398
  186SLPC   H7X21457   7.134   5.554   7.540  1.1906 -1.0277 -1.6394
  186SLPC   H7Y21458   7.138   5.388   7.595 -0.7365 -1.0538 -2.2787
  186SLPC   C3821459   6.998   5.514   7.701 -0.0452  0.3433 -1.5909
  186SLPC   H8X21460   6.930   5.429   7.725  0.7062 -0.6355 -2.8183
  186SLPC   H8Y21461   6.921   5.594   7.695 -3.3726 -2.5551 -0.8684
  186SLPC   C3921462   7.089   5.551   7.822  0.0214 -0.2680 -0.0786
  186SLPC   H9X21463   7.135   5.652   7.814  0.9233 -0.7399 -1.0436
  186SLPC   H9Y21464   7.170   5.474   7.823 -0.3737 -0.7079  1.1762
  186SLPC  C31021465   7.012   5.545   7.959  0.5405 -0.0250  0.0924
  186SLPC  H10X21466   6.991   5.438   7.978 -0.2579 -0.3005 -2.0542
  186SLPC  H10Y21467   6.916   5.600   7.946 -0.3292 -0.4868  3.5838
  186SLPC  C31121468   7.095   5.611   8.062  0.0196  0.5914 -0.1231
  186SLPC  H11X21469   7.079   5.720   8.048 -0.5640  0.7866  1.7239
  186SLPC  H11Y21470   7.204   5.590   8.057  0.0399  0.2399  1.3185
  186SLPC  C31221471   7.036   5.579   8.205 -0.0940 -0.2344 -0.3905
  186SLPC  H12X21472   7.086   5.632   8.289 -0.0376 -1.2739  0.2446
  186SLPC  H12Y21473   7.052   5.472   8.229  0.4884 -0.2466 -0.8098
  186SLPC  C31321474   6.890   5.609   8.219  0.4095  0.0691  0.1079
  186SLPC  H13X21475   6.835   5.516   8.194 -0.5923  0.7242 -0.1986
  186SLPC  H13Y21476   6.879   5.692   8.146  1.4867 -0.8270 -1.1216
  186SLPC  C31421477   6.836   5.659   8.354 -0.5246 -0.0269  0.4625
  186SLPC  H14X21478   6.726   5.677   8.349 -0.3131  1.1035 -1.8185
  186SLPC  H14Y21479   6.891   5.754   8.373  0.5653 -0.7587  1.0193
  186SLPC  C31521480   6.862   5.549   8.458  0.2917 -0.5651  0.0535
  186SLPC  H15X21481   6.972   5.552   8.470  0.2188 -0.0769  0.6464
  186SLPC  H15Y21482   6.839   5.451   8.411  2.4350 -1.2648  0.3437
  186SLPC  C31621483   6.785   5.569   8.589 -0.2647 -0.3068  0.4685
  186SLPC  H16X21484   6.680   5.536   8.576 -0.7816  1.0418  0.9858
  186SLPC  H16Y21485   6.786   5.676   8.619  1.3927 -0.4553  1.0586
  186SLPC  C31721486   6.855   5.510   8.716  0.0545 -0.5849  0.6799
  186SLPC  H17X21487   6.805   5.547   8.808  1.1138 -1.7740  1.7774
  186SLPC  H17Y21488   6.960   5.544   8.725 -0.1823 -0.3432  3.4741
  186SLPC  C31821489   6.841   5.357   8.716 -0.1533  0.1557 -0.4994
  186SLPC  H18X21490   6.734   5.326   8.718 -0.8409  2.2229 -1.9125
  186SLPC  H18Y21491   6.909   5.311   8.792  1.5366  1.8113 -0.9257
  186SLPC  H18Z21492   6.883   5.325   8.618 -2.0004 -1.0307 -0.9506
  187SLPC     N21493   6.129   3.137   6.270  0.1301 -0.3810  0.7311
  187SLPC   C1321494   6.099   3.272   6.221 -0.0857 -0.1125  0.6869
  187SLPC  H13A21495   6.092   3.275   6.113 -3.4855 -2.3258  0.7059
  187SLPC  H13B21496   6.006   3.308   6.262  0.8477  3.3006  0.1550
  187SLPC  H13C21497   6.166   3.348   6.258 -1.3805  1.4047  0.0688
  187SLPC   C1421498   6.266   3.097   6.223  0.3022 -0.2829 -0.2493
  187SLPC  H14A21499   6.285   2.997   6.256 -1.3182 -0.9343 -1.1712
  187SLPC  H14B21500   6.273   3.088   6.115  1.3674 -0.0890 -0.2114
  187SLPC  H14C21501   6.343   3.157   6.271 -0.1264 -1.3643  1.8852
  187SLPC   C1521502   6.033   3.041   6.221  0.2817 -1.2992  0.9580
  187SLPC  H15A21503   6.050   2.936   6.240  0.9672 -1.4121 -0.2069
  187SLPC  H15B21504   5.946   3.070   6.277  0.8858  1.2950  0.6467
  187SLPC  H15C21505   6.014   3.044   6.115 -2.4810 -1.6539  1.3811
  187SLPC   C1221506   6.139   3.125   6.426 -0.4347  0.1949  0.1690
  187SLPC  H12A21507   6.184   3.211   6.473 -0.8320  1.5950 -1.8779
  187SLPC  H12B21508   6.198   3.039   6.453 -1.7645 -1.5134 -1.9983
  187SLPC   C1121509   6.006   3.097   6.505 -0.6234 -0.1648  0.5574
  187SLPC  H11A21510   6.033   3.090   6.612  2.2668 -0.1027 -0.0923
  187SLPC  H11B21511   5.976   3.000   6.458  1.6444 -0.0248 -1.3967
  187SLPC     P21512   5.903   3.341   6.541 -0.3674 -0.0762 -0.2560
  187SLPC   O1321513   5.978   3.425   6.441  0.4094 -0.2130  0.1270
  187SLPC   O1421514   5.759   3.382   6.559 -0.0516 -0.0196  0.0577
  187SLPC   O1221515   5.910   3.196   6.478  0.2797 -0.0551  0.1365
  187SLPC   O1121516   5.973   3.326   6.684 -0.6675 -0.5649  0.5123
  187SLPC    C121517   6.064   3.444   6.709  0.4649 -0.0388  0.2027
  187SLPC    HA21518   6.154   3.394   6.751 -0.2964  0.0922  2.0957
  187SLPC    HB21519   6.100   3.497   6.618  0.4652 -2.3764 -1.2426
  187SLPC    C221520   6.004   3.530   6.831  0.3294 -0.8193  0.5883
  187SLPC    HS21521   6.077   3.610   6.855  0.7873 -1.6076  1.9178
  187SLPC   O2121522   5.979   3.444   6.946  0.4573  0.4885 -0.1989
  187SLPC   C2121523   6.085   3.425   7.019  0.7568 -0.2004  0.2373
  187SLPC   O2221524   6.196   3.472   7.007  0.2007  0.5269  0.5042
  187SLPC   C2221525   6.042   3.340   7.133  0.0828  0.0404 -0.3058
  187SLPC   H2R21526   5.971   3.258   7.105 -0.0017  0.6521 -2.0350
  187SLPC   H2S21527   6.139   3.310   7.176 -0.0036  1.6978  1.1473
  187SLPC    C321528   5.871   3.604   6.791 -0.3017  0.1217 -0.3948
  187SLPC    HX21529   5.799   3.522   6.769 -2.2997  1.5676  0.5692
  187SLPC    HY21530   5.901   3.666   6.704 -0.0088  1.5103  0.6694
  187SLPC   O3121531   5.818   3.683   6.898  0.2317  0.2501  0.4252
  187SLPC   C3121532   5.689   3.711   6.885  0.2502  0.2592  0.0546
  187SLPC   O3221533   5.623   3.685   6.787  0.2763 -0.1287  0.4135
  187SLPC   C3221534   5.641   3.799   6.999  0.3928 -0.1779 -0.0481
  187SLPC   H2X21535   5.530   3.795   7.004  0.4022  0.0428  0.5523
  187SLPC   H2Y21536   5.690   3.898   6.983  2.4031 -1.2480 -0.8764
  187SLPC   C2321537   5.977   3.423   7.249 -0.6691 -0.4456  0.8775
  187SLPC   H3R21538   5.886   3.477   7.214 -0.0008  0.2606  0.1668
  187SLPC   H3S21539   6.051   3.494   7.292  1.6095 -2.1335 -0.0392
  187SLPC   C2421540   5.936   3.326   7.355 -0.4573 -0.1204 -0.2894
  187SLPC   H4R21541   6.020   3.262   7.392 -0.4671 -1.1052 -1.8685
  187SLPC   H4S21542   5.869   3.247   7.315  2.1297 -1.2320 -2.7633
  187SLPC   C2521543   5.873   3.385   7.483  0.3522 -0.3543  0.6750
  187SLPC   H5R21544   5.764   3.390   7.462  0.6613  2.2050 -0.8130
  187SLPC   H5S21545   5.906   3.489   7.505 -2.3986  0.2040  2.6960
  187SLPC   C2621546   5.920   3.308   7.599  0.7936 -0.2275 -0.5022
  187SLPC   H6R21547   6.029   3.289   7.611  0.3589 -2.1301  1.0556
  187SLPC   H6S21548   5.874   3.206   7.603 -0.7548  0.4730  0.6635
  187SLPC   C2721549   5.875   3.382   7.729 -0.6848 -0.2100  0.0146
  187SLPC   H7R21550   5.859   3.304   7.806 -2.3116  0.8499  0.8077
  187SLPC   H7S21551   5.779   3.437   7.715 -0.8712 -0.0461  1.6990
  187SLPC   C2821552   5.970   3.485   7.785 -0.1560 -0.1147  0.0107
  187SLPC   H8R21553   5.917   3.558   7.850 -0.1539 -1.3755  1.4890
  187SLPC   H8S21554   6.011   3.550   7.705  1.4576 -0.1327  0.7802
  187SLPC   C2921555   6.081   3.409   7.855 -0.1055 -0.9068  0.6814
  187SLPC   H9R21556   6.161   3.376   7.787 -1.8229 -1.8346 -0.9679
  187SLPC  C21021557   6.071   3.364   7.979  0.5816 -0.4166 -0.7279
  187SLPC  H10R21558   6.146   3.295   8.022 -0.5841 -2.8505 -2.3656
  187SLPC  C21121559   5.954   3.394   8.076  0.2147  0.7320 -0.6215
  187SLPC  H11R21560   5.921   3.298   8.122  1.9744  0.4339  0.1022
  187SLPC  H11S21561   5.873   3.453   8.028  0.0985  0.4385 -0.7815
  187SLPC  C21221562   6.001   3.492   8.180  0.3093  0.2284  0.8446
  187SLPC  H12R21563   6.008   3.598   8.153 -0.4452  0.2752  0.8201
  187SLPC  C21321564   6.052   3.455   8.297 -0.2196  0.0792 -0.1468
  187SLPC  H13R21565   6.105   3.526   8.363 -1.8446 -0.4027  1.7587
  187SLPC  C21421566   6.059   3.315   8.352 -0.8449 -0.8687  0.0811
  187SLPC  H14R21567   6.123   3.249   8.289  0.7802  1.7252 -1.1604
  187SLPC  H14S21568   5.963   3.260   8.355 -0.3420 -1.7471  0.3201
  187SLPC  C21521569   6.116   3.306   8.492  0.5260 -0.1576 -0.3266
  187SLPC  H15R21570   6.035   3.336   8.562 -0.4684 -1.7372 -0.7674
  187SLPC  H15S21571   6.207   3.368   8.510  2.2771 -3.1181  2.1125
  187SLPC  C21621572   6.150   3.161   8.528  0.4827  0.4607  0.5297
  187SLPC  H16R21573   6.219   3.123   8.450 -0.9542  0.2636 -0.7148
  187SLPC  H16S21574   6.060   3.096   8.536  1.9830 -1.8435 -0.4583
  187SLPC  C21721575   6.211   3.159   8.672 -0.7434 -0.1144  0.7324
  187SLPC  H17R21576   6.134   3.209   8.735 -0.1015  0.9351  0.6990
  187SLPC  H17S21577   6.302   3.222   8.678 -0.1244 -0.8997 -0.1999
  187SLPC  C21821578   6.242   3.025   8.726 -0.5667 -0.5520  0.2839
  187SLPC  H18R21579   6.156   2.956   8.734 -1.9052  1.2377  2.2535
  187SLPC  H18S21580   6.305   3.021   8.817  0.3657 -1.3799 -0.3623
  187SLPC  H18T21581   6.320   2.979   8.660  1.3292  1.2691  1.1286
  187SLPC   C3321582   5.690   3.767   7.138 -0.6714  0.3810  0.4602
  187SLPC   H3X21583   5.801   3.760   7.140 -0.7728 -1.8448  0.9899
  187SLPC   H3Y21584   5.664   3.666   7.177  1.1455  0.5418  2.2822
  187SLPC   C3421585   5.653   3.874   7.234 -1.1705  0.3129 -0.0593
  187SLPC   H4X21586   5.543   3.879   7.248 -1.4869 -2.6158 -0.9677
  187SLPC   H4Y21587   5.701   3.970   7.206  0.4972 -0.6080 -0.5089
  187SLPC   C3521588   5.724   3.840   7.366  0.0042 -0.0781  0.0831
  187SLPC   H5X21589   5.833   3.860   7.360 -0.2047  0.6267 -2.4014
  187SLPC   H5Y21590   5.709   3.733   7.391  1.5549 -0.3818 -0.2205
  187SLPC   C3621591   5.661   3.920   7.486  0.5862 -0.2348 -0.2487
  187SLPC   H6X21592   5.552   3.912   7.506  0.5833  1.2253  0.5254
  187SLPC   H6Y21593   5.687   4.027   7.471  1.2727 -0.4423 -0.5510
  187SLPC   C3721594   5.728   3.883   7.622 -0.7859 -0.2082 -1.1308
  187SLPC   H7X21595   5.715   3.775   7.646 -0.9212 -0.3913 -1.9727
  187SLPC   H7Y21596   5.836   3.904   7.608 -0.3737 -1.1478  0.3907
  187SLPC   C3821597   5.660   3.954   7.750 -0.6774 -0.1628 -0.4179
  187SLPC   H8X21598   5.562   4.000   7.726 -1.1156 -0.4933  0.6497
  187SLPC   H8Y21599   5.733   4.028   7.790 -0.7252 -0.6786  0.6817
  187SLPC   C3921600   5.649   3.873   7.884  0.0030  0.3466 -0.4450
  187SLPC   H9X21601   5.749   3.876   7.932 -0.0676 -0.1393 -0.2624
  187SLPC   H9Y21602   5.628   3.767   7.860  0.9900  0.2186 -0.7874
  187SLPC  C31021603   5.552   3.940   7.986 -0.1003 -0.1600  0.2577
  187SLPC  H10X21604   5.449   3.927   7.946  0.7584  0.3063 -2.3430
  187SLPC  H10Y21605   5.571   4.049   7.994 -1.4867  0.0062  1.5616
  187SLPC  C31121606   5.554   3.866   8.124 -0.2630 -0.6492 -0.3943
  187SLPC  H11X21607   5.651   3.889   8.173 -0.5517  1.9423 -0.8770
  187SLPC  H11Y21608   5.561   3.757   8.108  0.1548 -0.8801  1.1765
  187SLPC  C31221609   5.442   3.905   8.229  0.1822  0.2862  0.5484
  187SLPC  H12X21610   5.343   3.894   8.180  0.8803  0.4767 -0.9497
  187SLPC  H12Y21611   5.448   4.010   8.263  0.6990  1.3395 -2.5048
  187SLPC  C31321612   5.454   3.802   8.350  0.5682  0.2871 -0.1181
  187SLPC  H13X21613   5.557   3.814   8.390 -0.1687  3.6751  1.0535
  187SLPC  H13Y21614   5.439   3.698   8.314  1.0202 -0.2186  1.1175
  187SLPC  C31421615   5.360   3.841   8.465  0.0628 -0.2599 -0.3489
  187SLPC  H14X21616   5.335   3.949   8.462 -0.2621 -0.3482 -0.9335
  187SLPC  H14Y21617   5.403   3.821   8.566 -1.3874  0.1024  0.3683
  187SLPC  C31521618   5.215   3.778   8.446 -0.4209 -0.3311  0.1350
  187SLPC  H15X21619   5.233   3.670   8.466 -0.2851 -0.0311  1.8170
  187SLPC  H15Y21620   5.172   3.799   8.346 -0.7733 -1.0510  0.1258
  187SLPC  C31621621   5.112   3.831   8.549 -1.0401  0.4785  0.0040
  187SLPC  H16X21622   5.009   3.799   8.521 -1.5446 -0.5330  2.7009
  187SLPC  H16Y21623   5.131   3.939   8.562  1.7184  0.1503 -0.6077
  187SLPC  C31721624   5.135   3.760   8.686 -0.0347 -0.0649  0.2934
  187SLPC  H17X21625   5.244   3.758   8.708 -0.3056  2.2535  2.2235
  187SLPC  H17Y21626   5.107   3.653   8.675  1.2929 -0.3189 -0.8102
  187SLPC  C31821627   5.061   3.827   8.806 -0.7169  0.9660  0.9509
  187SLPC  H18X21628   5.076   3.773   8.902 -0.4543  2.0011  1.5123
  187SLPC  H18Y21629   4.955   3.833   8.773 -0.7117 -1.5034  0.2702
  187SLPC  H18Z21630   5.097   3.932   8.813 -3.0999  2.0342 -1.4173
  188SLPC     N21631   0.559   4.198   6.252  0.9825 -0.1258  0.1862
  188SLPC   C1321632   0.460   4.280   6.178  0.0208  0.2300  0.0257
  188SLPC  H13A21633   0.511   4.325   6.094  3.1436 -0.7236  1.2808
  188SLPC  H13B21634   0.375   4.228   6.137 -0.2933  0.2959  0.5789
  188SLPC  H13C21635   0.422   4.368   6.229  0.1519  0.0325  0.4640
  188SLPC   C1421636   0.678   4.281   6.288 -0.0344  0.2003 -0.8397
  188SLPC  H14A21637   0.745   4.219   6.346  0.5696  0.9036 -0.7744
  188SLPC  H14B21638   0.730   4.326   6.205  1.8399  0.3296  0.3441
  188SLPC  H14C21639   0.650   4.361   6.355  0.6572  0.4047 -0.7926
  188SLPC   C1521640   0.600   4.081   6.165 -0.1322 -0.5028  0.4844
  188SLPC  H15A21641   0.510   4.037   6.124  0.0608 -1.8713  1.4557
  188SLPC  H15B21642   0.669   4.107   6.086 -0.0651  0.2958  0.7970
  188SLPC  H15C21643   0.650   3.998   6.214  0.7351  0.0058  0.4883
  188SLPC   C1221644   0.502   4.150   6.378 -0.2051  0.4528  0.2096
  188SLPC  H12A21645   0.411   4.099   6.348  0.3855 -1.4536  1.4454
  188SLPC  H12B21646   0.476   4.226   6.450 -1.9843  0.6982 -0.6253
  188SLPC   C1121647   0.579   4.045   6.460  0.0989 -0.0899  0.8486
  188SLPC  H11A21648   0.605   3.959   6.395  1.1841  0.5034  0.4732
  188SLPC  H11B21649   0.509   4.003   6.536 -1.4830  2.8182  1.1629
  188SLPC     P21650   0.807   4.040   6.596  0.0318 -0.1552 -0.0578
  188SLPC   O1321651   0.749   3.956   6.707 -0.2224  0.2416 -0.2734
  188SLPC   O1421652   0.902   3.968   6.505  0.2207 -0.5077 -0.1148
  188SLPC   O1221653   0.692   4.108   6.515 -0.4665  0.1112  0.2057
  188SLPC   O1121654   0.883   4.153   6.663  0.0907 -0.6951  0.3767
  188SLPC    C121655   0.822   4.279   6.701  0.1621 -0.2459  1.3800
  188SLPC    HA21656   0.792   4.330   6.607  0.6315 -0.4092  1.1374
  188SLPC    HB21657   0.727   4.269   6.758 -1.6666  2.2593 -0.9762
  188SLPC    C221658   0.917   4.358   6.791 -0.5416  0.3529  0.6304
  188SLPC    HS21659   0.987   4.411   6.724 -2.7393  4.0942  1.0306
  188SLPC   O2121660   0.977   4.271   6.891  0.1693  0.3312  0.0256
  188SLPC   C2121661   1.094   4.230   6.855  0.5701 -0.0902  0.0644
  188SLPC   O2221662   1.154   4.257   6.753 -0.0931  0.6694  0.2101
  188SLPC   C2221663   1.153   4.133   6.965 -0.0738 -0.4696  0.1701
  188SLPC   H2R21664   1.072   4.062   6.993  2.1292 -2.1281  2.9309
  188SLPC   H2S21665   1.232   4.066   6.924 -0.7619 -0.6274 -0.9394
  188SLPC    C321666   0.839   4.462   6.866  0.1065 -0.1349  0.7866
  188SLPC    HX21667   0.803   4.418   6.961  1.2110  0.3589  1.4550
  188SLPC    HY21668   0.756   4.495   6.799 -1.2452  0.2748  2.5777
  188SLPC   O3121669   0.924   4.569   6.907 -0.1865  0.4133 -0.2144
  188SLPC   C3121670   0.907   4.690   6.846  0.3992 -0.0319 -0.4497
  188SLPC   O3221671   0.815   4.719   6.771  0.2379 -0.1159  0.2657
  188SLPC   C3221672   1.009   4.790   6.908  0.5134  0.3657 -0.2936
  188SLPC   H2X21673   0.961   4.889   6.912  2.1271  1.2501 -1.4377
  188SLPC   H2Y21674   1.098   4.812   6.844  0.1082 -0.2677 -1.1078
  188SLPC   C2321675   1.200   4.216   7.085 -0.0506 -0.9639  0.2538
  188SLPC   H3R21676   1.112   4.273   7.123  0.6359  0.4144 -0.1415
  188SLPC   H3S21677   1.280   4.286   7.051  0.1266 -1.6163 -0.7050
  188SLPC   C2421678   1.264   4.128   7.201 -0.0565  0.1476 -0.3638
  188SLPC   H4R21679   1.361   4.080   7.176  0.4824 -1.6276  4.2190
  188SLPC   H4S21680   1.187   4.054   7.234  1.5258 -1.9115 -1.0730
  188SLPC   C2521681   1.285   4.218   7.328 -0.0734 -0.3011 -0.1984
  188SLPC   H5R21682   1.191   4.268   7.361  1.0843  0.2759  2.5866
  188SLPC   H5S21683   1.362   4.296   7.310 -0.3093 -0.4035 -1.7822
  188SLPC   C2621684   1.335   4.124   7.440  0.1560  0.6164 -0.0218
  188SLPC   H6R21685   1.261   4.042   7.454  0.4868  0.4541  0.8588
  188SLPC   H6S21686   1.344   4.191   7.529  0.1848  0.7832 -0.1508
  188SLPC   C2721687   1.472   4.049   7.418 -0.1736 -0.3790 -0.9298
  188SLPC   H7R21688   1.447   3.962   7.353  1.6182 -1.5583 -0.1093
  188SLPC   H7S21689   1.506   4.014   7.518  0.3050  0.5569 -0.7576
  188SLPC   C2821690   1.578   4.139   7.342 -1.1735 -0.1979 -0.6067
  188SLPC   H8R21691   1.594   4.228   7.406  2.4723 -1.3977  0.4074
  188SLPC   H8S21692   1.535   4.157   7.241 -0.9627  0.0316 -0.6562
  188SLPC   C2921693   1.711   4.065   7.320 -0.1330  0.4850 -1.1791
  188SLPC   H9R21694   1.745   3.998   7.400  2.8338  1.8539 -1.1936
  188SLPC  C21021695   1.793   4.093   7.221 -0.1193  0.4642  0.2204
  188SLPC  H10R21696   1.873   4.022   7.196 -0.4850 -0.3872  1.3813
  188SLPC  C21121697   1.776   4.193   7.110 -0.0725  0.1969 -0.1983
  188SLPC  H11R21698   1.857   4.173   7.037  0.1626 -4.7557  1.0903
  188SLPC  H11S21699   1.797   4.296   7.147  1.4932 -0.1089 -0.2080
  188SLPC  C21221700   1.657   4.195   7.017  0.2898  0.3416 -0.1703
  188SLPC  H12R21701   1.638   4.294   6.974 -2.2193  1.3470  2.8842
  188SLPC  C21321702   1.575   4.091   6.977 -0.2366  0.3649 -1.0805
  188SLPC  H13R21703   1.497   4.113   6.903 -2.9197 -0.1111  1.4459
  188SLPC  C21421704   1.576   3.942   7.019  0.2039 -0.6876  0.1565
  188SLPC  H14R21705   1.512   3.927   7.108  1.5741 -2.2955  0.9302
  188SLPC  H14S21706   1.677   3.907   7.050  0.3651 -1.0498 -0.7402
  188SLPC  C21521707   1.542   3.852   6.897 -0.0303  0.5129  0.4784
  188SLPC  H15R21708   1.612   3.877   6.815  0.8653 -3.8108 -0.3240
  188SLPC  H15S21709   1.441   3.874   6.857  0.4966  0.3365 -0.9846
  188SLPC  C21621710   1.554   3.704   6.916  0.4273  0.0384 -0.2288
  188SLPC  H16R21711   1.652   3.688   6.965 -0.4180  2.5730  2.6135
  188SLPC  H16S21712   1.559   3.659   6.815  0.7671 -0.9667  0.2206
  188SLPC  C21721713   1.449   3.642   7.001  0.2288 -0.0879 -0.4249
  188SLPC  H17R21714   1.365   3.712   7.020 -0.0495 -0.8468  1.4056
  188SLPC  H17S21715   1.491   3.617   7.101  0.1952 -1.3268 -0.6983
  188SLPC  C21821716   1.379   3.521   6.937  0.2479 -0.0829 -0.0665
  188SLPC  H18R21717   1.445   3.433   6.919 -0.2110 -0.4124 -0.1638
  188SLPC  H18S21718   1.328   3.556   6.844  0.8565 -0.5660 -0.5947
  188SLPC  H18T21719   1.296   3.472   6.992  1.5756 -2.5520 -0.0863
  188SLPC   C3321720   1.036   4.767   7.058 -0.2219  0.5606  0.6366
  188SLPC   H3X21721   1.097   4.676   7.072 -0.5258  0.1357 -0.6967
  188SLPC   H3Y21722   0.940   4.732   7.101 -0.0088  0.1181  0.7523
  188SLPC   C3421723   1.072   4.887   7.141  0.1133  0.0869 -0.0439
  188SLPC   H4X21724   1.016   4.981   7.126  2.2119  1.4514  0.2974
  188SLPC   H4Y21725   1.176   4.904   7.103  1.5806 -5.3230  0.5902
  188SLPC   C3521726   1.090   4.849   7.287 -0.3025  0.2723 -0.4243
  188SLPC   H5X21727   1.178   4.904   7.326 -0.3552  0.7273 -0.9283
  188SLPC   H5Y21728   1.116   4.743   7.306 -0.8188  0.3304  0.7444
  188SLPC   C3621729   0.964   4.884   7.369  0.3609 -0.3469  0.1006
  188SLPC   H6X21730   0.883   4.828   7.316  0.7316 -0.7829 -0.0054
  188SLPC   H6Y21731   0.941   4.993   7.357 -0.8081 -0.6964 -1.2123
  188SLPC   C3721732   0.979   4.848   7.518 -0.2239 -0.6517 -0.8587
  188SLPC   H7X21733   1.011   4.932   7.583 -3.0268 -0.2126  0.0969
  188SLPC   H7Y21734   1.051   4.764   7.525 -1.3571 -1.6111 -0.3267
  188SLPC   C3821735   0.850   4.794   7.582  0.3925  0.3472  0.2944
  188SLPC   H8X21736   0.815   4.699   7.537 -0.8254  0.3558  1.1965
  188SLPC   H8Y21737   0.761   4.860   7.571 -1.4396 -2.1233 -0.4665
  188SLPC   C3921738   0.878   4.773   7.732 -0.3754  0.1903  0.1982
  188SLPC   H9X21739   0.916   4.869   7.773 -1.0002 -0.3288  2.1207
  188SLPC   H9Y21740   0.950   4.692   7.755 -0.4282 -0.3192 -1.3384
  188SLPC  C31021741   0.743   4.749   7.806 -0.4775  0.1312  0.1518
  188SLPC  H10X21742   0.717   4.641   7.796  0.2761 -0.0984  0.5677
  188SLPC  H10Y21743   0.665   4.811   7.758  0.6889  1.0793 -0.5718
  188SLPC  C31121744   0.741   4.771   7.960 -0.8883 -0.0440  0.1612
  188SLPC  H11X21745   0.635   4.779   7.995 -0.9190  1.8206 -0.2915
  188SLPC  H11Y21746   0.796   4.867   7.969  4.4812 -2.7360 -0.2663
  188SLPC  C31221747   0.822   4.665   8.034 -0.1422  0.3327 -0.8268
  188SLPC  H12X21748   0.930   4.668   8.011  0.3622 -0.9824  1.0882
  188SLPC  H12Y21749   0.787   4.565   7.999 -0.4280 -0.3426  1.2586
  188SLPC  C31321750   0.795   4.686   8.188 -0.3459  0.1558  0.1094
  188SLPC  H13X21751   0.687   4.703   8.208 -0.2175  1.2061 -0.0356
  188SLPC  H13Y21752   0.842   4.784   8.214 -0.0389  1.4882 -4.5410
  188SLPC  C31421753   0.848   4.570   8.276 -0.2938 -0.6557  0.0679
  188SLPC  H14X21754   0.821   4.603   8.378  2.7030  3.3370 -0.1945
  188SLPC  H14Y21755   0.959   4.563   8.271 -0.4079 -1.7974 -1.8588
  188SLPC  C31521756   0.775   4.437   8.244  0.2205  0.2156 -0.3214
  188SLPC  H15X21757   0.794   4.392   8.144 -1.0172 -0.1477 -0.4112
  188SLPC  H15Y21758   0.664   4.445   8.246 -0.0056 -2.2354  0.2959
  188SLPC  C31621759   0.809   4.336   8.358  0.1384  0.6539 -0.7767
  188SLPC  H16X21760   0.856   4.385   8.446 -0.3091 -1.0939  0.4715
  188SLPC  H16Y21761   0.888   4.273   8.312 -0.8169  0.0703 -1.6618
  188SLPC  C31721762   0.691   4.249   8.401 -0.1830 -1.3726  0.8040
  188SLPC  H17X21763   0.649   4.206   8.308  2.2900 -0.2972 -0.9232
  188SLPC  H17Y21764   0.615   4.320   8.440  0.4661 -0.1721 -0.0640
  188SLPC  C31821765   0.721   4.138   8.494 -0.1186 -0.3686  0.2053
  188SLPC  H18X21766   0.801   4.070   8.456 -1.2492 -1.0787 -1.0004
  188SLPC  H18Y21767   0.639   4.069   8.523  0.7869 -1.7456 -0.3629
  188SLPC  H18Z21768   0.762   4.176   8.590  0.5683  3.3081 -1.3662
  189SLPC     N21769   3.251   5.725   6.165 -0.5535 -0.5629  0.4564
  189SLPC   C1321770   3.395   5.752   6.188  0.0665  0.1309  0.4681
  189SLPC  H13A21771   3.433   5.654   6.212  1.1440 -0.4914 -3.1252
  189SLPC  H13B21772   3.454   5.772   6.100  0.2601  0.4336  0.6628
  189SLPC  H13C21773   3.405   5.826   6.267 -1.0052  0.3912  0.3790
  189SLPC   C1421774   3.252   5.593   6.089  0.0505 -0.4444  0.1979
  189SLPC  H14A21775   3.315   5.624   6.007 -0.7054  1.9979  0.4599
  189SLPC  H14B21776   3.300   5.515   6.145  1.4756  0.7605  0.7098
  189SLPC  H14C21777   3.151   5.574   6.057 -0.2668  0.3938  0.6607
  189SLPC   C1521778   3.196   5.835   6.078  0.0174 -0.4143  0.1515
  189SLPC  H15A21779   3.249   5.843   5.984  1.5888 -3.1389  0.7035
  189SLPC  H15B21780   3.096   5.817   6.041 -0.1086  1.0542 -0.2810
  189SLPC  H15C21781   3.201   5.927   6.134  1.2362 -0.7322  0.5854
  189SLPC   C1221782   3.172   5.717   6.293  0.9205 -0.0164 -0.1804
  189SLPC  H12A21783   3.211   5.634   6.351  0.6645 -0.4642 -0.6397
  189SLPC  H12B21784   3.072   5.680   6.278  1.0160 -1.1718  1.7518
  189SLPC   C1121785   3.163   5.837   6.386 -0.4934 -0.2100 -0.2279
  189SLPC  H11A21786   3.130   5.806   6.487  0.7893 -1.3613 -0.1426
  189SLPC  H11B21787   3.092   5.909   6.340  1.0557  1.5519  0.0352
  189SLPC     P21788   3.302   6.062   6.442  0.1986  0.1138  0.1138
  189SLPC   O1321789   3.417   6.078   6.531  0.4133  0.2701 -1.0023
  189SLPC   O1421790   3.299   6.145   6.318  0.2184  0.6282  0.1177
  189SLPC   O1221791   3.285   5.908   6.403 -0.6392 -0.2089  0.6667
  189SLPC   O1121792   3.170   6.092   6.515  0.0307 -0.0422  0.3060
  189SLPC    C121793   3.128   6.031   6.643  0.0710  0.5016 -0.2046
  189SLPC    HA21794   3.035   5.970   6.639  2.2314 -3.1291 -0.0816
  189SLPC    HB21795   3.204   5.958   6.678 -0.7434 -0.5601 -0.5859
  189SLPC    C221796   3.129   6.132   6.756  0.6475  0.0234  0.0849
  189SLPC    HS21797   3.090   6.089   6.850  0.6876 -1.2717 -0.4810
  189SLPC   O2121798   3.041   6.234   6.703 -0.2513  0.9410 -0.7531
  189SLPC   C2121799   2.980   6.309   6.794  0.2210  0.2842 -0.4774
  189SLPC   O2221800   2.994   6.295   6.918  0.1633 -0.3107  0.0538
  189SLPC   C2221801   2.899   6.408   6.721  0.6444 -0.0308  0.9292
  189SLPC   H2R21802   2.922   6.513   6.751  1.2498  1.0702 -2.8191
  189SLPC   H2S21803   2.913   6.406   6.611 -4.0155 -0.4120  0.1552
  189SLPC    C321804   3.267   6.184   6.805 -0.3153  0.2466 -0.5592
  189SLPC    HX21805   3.301   6.241   6.716  1.1843 -1.0593 -0.8715
  189SLPC    HY21806   3.337   6.101   6.830  0.4078  1.5354  1.9406
  189SLPC   O3121807   3.264   6.279   6.921 -0.0941 -0.6784  0.1428
  189SLPC   C3121808   3.247   6.219   7.033  0.0647 -0.9114  0.3259
  189SLPC   O3221809   3.245   6.100   7.054 -0.1014 -0.0208 -0.1874
  189SLPC   C3221810   3.247   6.322   7.146 -0.9270  0.3591 -0.4590
  189SLPC   H2X21811   3.153   6.380   7.138  0.5091  3.2419  1.3486
  189SLPC   H2Y21812   3.337   6.385   7.128  0.7509 -0.6873  3.2133
  189SLPC   C2321813   2.750   6.381   6.750 -0.5263 -0.0765 -0.2196
  189SLPC   H3R21814   2.683   6.452   6.700 -0.3253 -0.6642 -1.3484
  189SLPC   H3S21815   2.737   6.385   6.861 -1.8455 -0.2587 -0.3504
  189SLPC   C2421816   2.718   6.242   6.702 -0.0014  0.2159  0.1207
  189SLPC   H4R21817   2.769   6.162   6.759  0.4108  1.0401  0.9390
  189SLPC   H4S21818   2.762   6.237   6.601 -0.8812  0.1359 -0.2732
  189SLPC   C2521819   2.568   6.224   6.690  0.2742 -0.8794 -0.6489
  189SLPC   H5R21820   2.544   6.166   6.599  1.8690 -1.4445 -0.7518
  189SLPC   H5S21821   2.513   6.317   6.666 -2.0366 -1.9892  0.0593
  189SLPC   C2621822   2.501   6.160   6.817  0.1222  0.2718 -0.3933
  189SLPC   H6R21823   2.546   6.060   6.831  2.0023  1.2028  0.4326
  189SLPC   H6S21824   2.397   6.154   6.777  0.3223 -2.3210 -0.6655
  189SLPC   C2721825   2.488   6.248   6.935 -0.1344 -0.7825  0.3917
  189SLPC   H7R21826   2.460   6.350   6.902 -2.1377 -1.2213  0.6253
  189SLPC   H7S21827   2.589   6.245   6.982 -0.5821 -1.2776  1.3339
  189SLPC   C2821828   2.391   6.185   7.041 -0.1052  0.1549 -0.1401
  189SLPC   H8R21829   2.429   6.227   7.137  1.4140  2.7589 -1.7377
  189SLPC   H8S21830   2.418   6.078   7.056  2.3816  0.8992  1.4546
  189SLPC   C2921831   2.244   6.205   7.013 -0.4696  0.1673 -0.3352
  189SLPC   H9R21832   2.211   6.229   6.911 -1.3931  0.8108  0.1024
  189SLPC  C21021833   2.150   6.187   7.103  0.2025 -0.6330 -0.3514
  189SLPC  H10R21834   2.049   6.177   7.062 -0.2563 -1.4206  0.9053
  189SLPC  C21121835   2.177   6.165   7.252 -0.3626  0.6772  0.0014
  189SLPC  H11R21836   2.255   6.232   7.293  0.5632 -1.9267  2.9126
  189SLPC  H11S21837   2.217   6.061   7.262  0.5262  0.5974 -3.1166
  189SLPC  C21221838   2.051   6.170   7.339 -0.7053  0.0784 -0.0753
  189SLPC  H12R21839   1.956   6.127   7.301 -1.5987  1.8222  0.0884
  189SLPC  C21321840   2.058   6.190   7.475 -0.2052 -0.3273 -0.5729
  189SLPC  H13R21841   1.970   6.194   7.540 -0.4020 -2.6152 -0.6252
  189SLPC  C21421842   2.193   6.223   7.540  0.8146  0.3473  0.3219
  189SLPC  H14R21843   2.214   6.321   7.494 -0.9835 -0.1897 -1.8049
  189SLPC  H14S21844   2.274   6.152   7.513  0.5189 -0.2967  1.0668
  189SLPC  C21521845   2.184   6.241   7.692  0.9153  0.0148  0.4411
  189SLPC  H15R21846   2.105   6.318   7.705  0.0567 -0.8461  0.4426
  189SLPC  H15S21847   2.277   6.288   7.731  1.0282 -1.0955  1.5489
  189SLPC  C21621848   2.148   6.113   7.767 -0.0819 -0.0337 -0.4047
  189SLPC  H16R21849   2.039   6.092   7.761 -0.1484 -0.1703  0.9593
  189SLPC  H16S21850   2.166   6.137   7.874 -0.2866 -1.3476 -0.0514
  189SLPC  C21721851   2.223   5.992   7.725 -0.9629 -0.0926  0.6171
  189SLPC  H17R21852   2.332   6.011   7.719 -1.0351 -0.0955 -1.7729
  189SLPC  H17S21853   2.186   5.984   7.620  0.8606  0.2481 -0.1007
  189SLPC  C21821854   2.188   5.868   7.809 -0.3830 -1.2337 -0.0911
  189SLPC  H18R21855   2.234   5.770   7.786  0.8410 -0.8567  0.6216
  189SLPC  H18S21856   2.079   5.851   7.791 -0.4956  0.8168 -1.7051
  189SLPC  H18T21857   2.205   5.880   7.919 -1.8256 -0.2203  0.0523
  189SLPC   C3321858   3.262   6.248   7.281 -0.1735  0.2882  0.1377
  189SLPC   H3X21859   3.355   6.187   7.287 -0.0785  0.0516 -2.3436
  189SLPC   H3Y21860   3.175   6.183   7.303  1.4653 -1.4701  1.8491
  189SLPC   C3421861   3.254   6.350   7.400  0.0540  0.5318 -0.4906
  189SLPC   H4X21862   3.149   6.387   7.391  0.2610  1.3230  0.2152
  189SLPC   H4Y21863   3.321   6.436   7.382  2.3203 -0.4985  2.2254
  189SLPC   C3521864   3.266   6.287   7.539 -0.1198  0.3527 -0.4533
  189SLPC   H5X21865   3.373   6.257   7.543  0.0404  0.8965 -0.5532
  189SLPC   H5Y21866   3.206   6.194   7.554 -1.2284  0.6917 -2.4033
  189SLPC   C3621867   3.245   6.387   7.660 -0.0802 -0.3564 -0.3353
  189SLPC   H6X21868   3.143   6.431   7.659  0.3987  0.8969  1.1211
  189SLPC   H6Y21869   3.318   6.469   7.642  1.3474 -1.5793 -0.3097
  189SLPC   C3721870   3.259   6.319   7.799 -0.2225 -0.0680  0.0615
  189SLPC   H7X21871   3.366   6.298   7.821 -0.4298  0.3604  1.5946
  189SLPC   H7Y21872   3.203   6.223   7.799  1.2317 -1.0008  2.5295
  189SLPC   C3821873   3.211   6.419   7.907 -0.2648 -0.6318 -0.4839
  189SLPC   H8X21874   3.105   6.451   7.907  0.2049  1.0134  0.0137
  189SLPC   H8Y21875   3.265   6.514   7.889 -0.3531 -0.4210  0.3413
  189SLPC   C3921876   3.250   6.378   8.045 -0.4471  0.5433 -0.1938
  189SLPC   H9X21877   3.348   6.324   8.047  0.9383  2.9359  1.6286
  189SLPC   H9Y21878   3.182   6.298   8.082 -1.0635  1.4113  0.5711
  189SLPC  C31021879   3.236   6.493   8.144 -0.7101 -0.1050 -0.0477
  189SLPC  H10X21880   3.133   6.533   8.138 -0.9079 -0.7408 -1.0574
  189SLPC  H10Y21881   3.308   6.578   8.135 -0.1773 -0.2716  1.9547
  189SLPC  C31121882   3.253   6.452   8.293  0.1685  0.7592 -0.5298
  189SLPC  H11X21883   3.357   6.416   8.310 -0.0256  0.8637  0.9650
  189SLPC  H11Y21884   3.175   6.375   8.308 -0.0555  1.4304  2.3562
  189SLPC  C31221885   3.213   6.559   8.394  0.1072 -0.0672 -0.2433
  189SLPC  H12X21886   3.115   6.608   8.378  0.3042 -0.2925 -2.5621
  189SLPC  H12Y21887   3.284   6.645   8.396 -0.7207  0.6292 -0.4064
  189SLPC  C31321888   3.192   6.483   8.530 -0.4764  0.2360 -0.3982
  189SLPC  H13X21889   3.291   6.443   8.560 -0.1986  1.4959  0.4684
  189SLPC  H13Y21890   3.132   6.392   8.509  0.9513 -0.9380  0.4453
  189SLPC  C31421891   3.129   6.552   8.642  0.6898  0.7743 -0.6367
  189SLPC  H14X21892   3.023   6.567   8.612  1.1976 -1.2196 -3.9061
  189SLPC  H14Y21893   3.186   6.645   8.666  0.0789  1.1316 -0.5600
  189SLPC  C31521894   3.133   6.473   8.775 -0.0935 -0.0040 -0.0113
  189SLPC  H15X21895   3.068   6.383   8.761  0.7629 -0.6061 -0.1800
  189SLPC  H15Y21896   3.090   6.528   8.861  1.8754  2.0274 -0.2453
  189SLPC  C31621897   3.270   6.423   8.828  0.6077  0.1377 -0.1066
  189SLPC  H16X21898   3.338   6.509   8.846  0.2139 -0.0108  2.4240
  189SLPC  H16Y21899   3.320   6.351   8.758 -2.1545 -2.0186 -0.0241
  189SLPC  C31721900   3.254   6.361   8.970 -0.0622  0.2791  0.2091
  189SLPC  H17X21901   3.197   6.432   9.034 -0.9906 -0.5331  0.3003
  189SLPC  H17Y21902   3.348   6.345   9.027 -1.2229 -0.2699  2.0748
  189SLPC  C31821903   3.174   6.232   8.973  0.4418  1.0145  0.3146
  189SLPC  H18X21904   3.173   6.186   9.074 -0.4945  1.9948  0.7621
  189SLPC  H18Y21905   3.208   6.155   8.900 -1.6534 -0.1552  0.5075
  189SLPC  H18Z21906   3.071   6.256   8.942  0.2607  0.5698  0.5667
  190SLPC     N21907   1.687   5.310   6.291  0.0646  0.6286  0.1622
  190SLPC   C1321908   1.730   5.198   6.199 -0.5294 -0.4999 -0.1280
  190SLPC  H13A21909   1.679   5.114   6.244 -1.6882 -0.3260 -1.0728
  190SLPC  H13B21910   1.689   5.209   6.100 -0.4153 -0.4767 -0.1730
  190SLPC  H13C21911   1.838   5.193   6.193 -0.4424 -1.3749  1.5770
  190SLPC   C1421912   1.538   5.315   6.292 -0.1744 -0.7567 -0.0405
  190SLPC  H14A21913   1.502   5.213   6.298  0.9903 -1.1204  1.2944
  190SLPC  H14B21914   1.501   5.386   6.365  1.0249 -0.0683 -0.0736
  190SLPC  H14C21915   1.501   5.343   6.194  2.0657  2.8210 -0.0556
  190SLPC   C1521916   1.734   5.440   6.227 -0.6033 -0.0517 -0.1015
  190SLPC  H15A21917   1.686   5.466   6.134 -2.0651  0.0746  0.6607
  190SLPC  H15B21918   1.722   5.524   6.294 -1.6794  0.8419 -1.3700
  190SLPC  H15C21919   1.841   5.445   6.216 -0.4589 -0.3784  1.0342
  190SLPC   C1221920   1.740   5.284   6.427 -0.4747  0.8685 -0.4028
  190SLPC  H12A21921   1.732   5.374   6.487 -0.8440 -0.2947  1.3608
  190SLPC  H12B21922   1.847   5.266   6.419 -0.4721 -0.4245  1.6459
  190SLPC   C1121923   1.683   5.173   6.511  0.5832 -0.1272 -0.1375
  190SLPC  H11A21924   1.577   5.203   6.530  0.6981  0.7930 -0.8719
  190SLPC  H11B21925   1.731   5.162   6.610  2.4479  1.5751 -0.7808
  190SLPC     P21926   1.556   4.954   6.416  0.2428 -0.4230  0.2072
  190SLPC   O1321927   1.454   5.036   6.350  0.2272 -0.0307  0.3189
  190SLPC   O1421928   1.601   4.842   6.336  0.0779 -0.0201  0.0870
  190SLPC   O1221929   1.690   5.042   6.447 -0.0719 -0.1282  0.0474
  190SLPC   O1121930   1.514   4.896   6.551 -0.4392  0.1357 -0.2065
  190SLPC    C121931   1.615   4.855   6.645 -0.1496 -0.9082  0.1585
  190SLPC    HA21932   1.716   4.897   6.625 -0.3801 -0.6932 -0.5744
  190SLPC    HB21933   1.585   4.882   6.749 -0.1759 -1.3928  0.2791
  190SLPC    C221934   1.634   4.699   6.656 -0.2341  0.2569  0.1275
  190SLPC    HS21935   1.631   4.661   6.551 -0.2913 -0.0909  0.2541
  190SLPC   O2121936   1.519   4.651   6.733 -0.2021  0.4599  0.3844
  190SLPC   C2121937   1.500   4.517   6.745 -0.8705 -0.5832  0.0345
  190SLPC   O2221938   1.576   4.434   6.695 -0.5192 -0.3089  0.1211
  190SLPC   C2221939   1.370   4.489   6.824  0.2950 -0.3513  0.6318
  190SLPC   H2R21940   1.290   4.514   6.751  1.8346 -1.2439 -1.4502
  190SLPC   H2S21941   1.351   4.381   6.843 -2.2992  0.1936  1.5765
  190SLPC    C321942   1.773   4.656   6.708  0.0717  0.4896  0.8244
  190SLPC    HX21943   1.855   4.705   6.651  0.1813 -0.3386  0.2498
  190SLPC    HY21944   1.784   4.548   6.683 -0.3986  0.5059  0.5387
  190SLPC   O3121945   1.782   4.679   6.849 -0.5179 -0.6455  0.0489
  190SLPC   C3121946   1.883   4.741   6.898 -0.0131  0.3461  0.0999
  190SLPC   O3221947   1.980   4.787   6.835  0.6726  0.2669 -0.3235
  190SLPC   C3221948   1.871   4.746   7.046  0.0163  0.5654  0.3067
  190SLPC   H2X21949   1.847   4.646   7.087 -0.5303  0.3175 -0.6080
  190SLPC   H2Y21950   1.792   4.822   7.065  0.4594  1.8498 -2.5338
  190SLPC   C2321951   1.342   4.589   6.939 -0.0445 -0.1214  0.0091
  190SLPC   H3R21952   1.244   4.572   6.989 -0.6953 -0.0834 -1.2056
  190SLPC   H3S21953   1.353   4.697   6.918 -1.7255  0.6756  2.6541
  190SLPC   C2421954   1.436   4.568   7.063 -0.3120  0.1496 -0.1241
  190SLPC   H4R21955   1.542   4.573   7.030  0.2497  1.1856  1.7190
  190SLPC   H4S21956   1.418   4.464   7.095 -0.4306 -0.6238 -2.5096
  190SLPC   C2521957   1.396   4.658   7.185  0.4717 -0.0664  0.0091
  190SLPC   H5R21958   1.292   4.634   7.216  1.2932 -1.5656  1.8382
  190SLPC   H5S21959   1.402   4.764   7.153 -1.8487  0.0213 -0.3236
  190SLPC   C2621960   1.489   4.628   7.302  0.1561 -0.7579  0.3367
  190SLPC   H6R21961   1.593   4.647   7.270  0.2612  0.3776  1.2658
  190SLPC   H6S21962   1.491   4.521   7.333 -2.1289 -1.4796 -1.6975
  190SLPC   C2721963   1.475   4.719   7.424 -0.1058 -0.0060  1.1217
  190SLPC   H7R21964   1.380   4.705   7.480  0.8037  1.7538  3.2674
  190SLPC   H7S21965   1.461   4.824   7.389 -1.0127 -0.5986 -0.3881
  190SLPC   C2821966   1.591   4.726   7.516 -0.2124  0.2054  0.4241
  190SLPC   H8R21967   1.564   4.774   7.612  2.0794 -1.6523  2.1204
  190SLPC   H8S21968   1.673   4.791   7.478 -0.7701  0.4971 -0.2956
  190SLPC   C2921969   1.661   4.589   7.530 -0.0018  0.4793 -0.1730
  190SLPC   H9R21970   1.739   4.562   7.457 -0.8309 -0.7099 -0.6404
  190SLPC  C21021971   1.634   4.493   7.624  0.2725 -0.3909 -0.0795
  190SLPC  H10R21972   1.689   4.397   7.620 -0.1717 -0.6984  0.9652
  190SLPC  C21121973   1.528   4.506   7.732  0.6418  0.0929 -0.7050
  190SLPC  H11R21974   1.433   4.528   7.680  0.9029 -1.6504 -2.0224
  190SLPC  H11S21975   1.553   4.599   7.787  1.5745 -1.2101  1.1821
  190SLPC  C21221976   1.521   4.394   7.830 -0.2265 -0.0143 -0.8372
  190SLPC  H12R21977   1.597   4.315   7.821 -0.3083 -0.2479  0.3992
  190SLPC  C21321978   1.428   4.371   7.925  1.3112  0.1584 -0.0474
  190SLPC  H13R21979   1.432   4.281   7.987 -0.5578  0.6865  0.8941
  190SLPC  C21421980   1.312   4.456   7.956 -0.7670 -0.3201 -0.1266
  190SLPC  H14R21981   1.220   4.393   7.953  0.0712 -1.5579 -1.2149
  190SLPC  H14S21982   1.312   4.533   7.876 -0.4218 -1.7136 -1.5197
  190SLPC  C21521983   1.313   4.529   8.093 -0.9352  0.1626  0.0968
  190SLPC  H15R21984   1.254   4.622   8.081  0.6773  1.1066 -0.7815
  190SLPC  H15S21985   1.409   4.577   8.123  0.4074 -1.3539 -1.5230
  190SLPC  C21621986   1.253   4.449   8.209  1.3600  0.5192 -0.5884
  190SLPC  H16R21987   1.315   4.357   8.217 -1.1704 -1.1975  0.8218
  190SLPC  H16S21988   1.152   4.409   8.184  0.2947  1.4401  1.9907
  190SLPC  C21721989   1.246   4.523   8.340 -0.6517  0.4847 -0.2956
  190SLPC  H17R21990   1.171   4.472   8.404 -1.8612 -1.4746 -3.0782
  190SLPC  H17S21991   1.226   4.630   8.316  0.5608  0.4778 -1.4428
  190SLPC  C21821992   1.372   4.505   8.417 -0.1027  0.1035 -0.1113
  190SLPC  H18R21993   1.402   4.398   8.419  1.2196  0.4564  2.1674
  190SLPC  H18S21994   1.372   4.554   8.517  2.2219  0.6293 -0.3260
  190SLPC  H18T21995   1.451   4.562   8.364 -2.2283  1.2135 -2.2824
  190SLPC   C3321996   2.000   4.793   7.117 -0.4948 -0.1914 -0.7596
  190SLPC   H3X21997   2.028   4.899   7.096 -0.7960  0.5743  2.1623
  190SLPC   H3Y21998   2.080   4.731   7.072 -1.7086 -1.5311 -1.1370
  190SLPC   C3421999   2.004   4.780   7.276 -0.7072  0.3165 -0.6184
  190SLPC   H4X22000   1.924   4.841   7.325 -1.5081 -1.2440  0.0672
  190SLPC   H4Y22001   2.107   4.814   7.300 -0.6738 -0.6823  0.7569
  190SLPC   C3522002   1.989   4.640   7.336 -0.2746  0.4264  0.2420
  190SLPC   H5X22003   2.035   4.561   7.272 -1.1887  1.2659 -1.5487
  190SLPC   H5Y22004   1.880   4.617   7.337 -0.1722 -0.2625 -1.2046
  190SLPC   C3622005   2.053   4.619   7.467 -0.3620  0.0970 -0.5844
  190SLPC   H6X22006   2.160   4.592   7.454 -0.8229 -1.9720 -0.5725
  190SLPC   H6Y22007   2.009   4.529   7.516  2.2280 -0.6108  0.6055
  190SLPC   C3722008   2.031   4.731   7.567 -0.1435  0.7591  0.6211
  190SLPC   H7X22009   1.923   4.750   7.588 -0.5390  2.0397 -2.0846
  190SLPC   H7Y22010   2.071   4.825   7.522  2.4521 -1.4066 -1.9944
  190SLPC   C3822011   2.109   4.703   7.697  0.3887  0.0047 -0.7016
  190SLPC   H8X22012   2.220   4.700   7.686  0.6431  0.0798  1.3246
  190SLPC   H8Y22013   2.085   4.603   7.738  2.0758  0.5915  2.0399
  190SLPC   C3922014   2.085   4.808   7.812 -0.4711 -0.1417 -0.3250
  190SLPC   H9X22015   2.130   4.757   7.900  1.7317 -0.8741 -1.7861
  190SLPC   H9Y22016   1.976   4.826   7.820 -0.6417 -0.6722 -1.2126
  190SLPC  C31022017   2.168   4.934   7.782 -0.8838  0.6516 -0.3093
  190SLPC  H10X22018   2.137   4.969   7.681 -2.1057 -0.3703 -0.3106
  190SLPC  H10Y22019   2.272   4.898   7.778 -1.5286 -1.7556  2.1951
  190SLPC  C31122020   2.166   5.043   7.894 -0.0271 -0.1455  0.4111
  190SLPC  H11X22021   2.057   5.063   7.909 -0.4388 -2.6997  1.3347
  190SLPC  H11Y22022   2.204   5.141   7.858 -2.1093  0.8341  0.7402
  190SLPC  C31222023   2.210   4.997   8.031  0.0314 -0.0084  0.0486
  190SLPC  H12X22024   2.306   4.945   8.009 -0.6761 -1.0794 -0.6025
  190SLPC  H12Y22025   2.131   4.930   8.073 -1.3886  1.2028 -0.6169
  190SLPC  C31322026   2.222   5.115   8.120  0.5355  0.0418  0.2945
  190SLPC  H13X22027   2.130   5.176   8.108  0.4121 -0.3437 -0.7340
  190SLPC  H13Y22028   2.313   5.172   8.093 -0.2828  0.7407 -1.0850
  190SLPC  C31422029   2.237   5.087   8.277  0.0716  0.3445  0.4466
  190SLPC  H14X22030   2.252   5.181   8.333  2.8626  0.1018  0.2442
  190SLPC  H14Y22031   2.328   5.024   8.287  1.6700  2.4087 -0.3394
  190SLPC  C31522032   2.117   5.013   8.343 -0.4066 -0.8665 -0.3075
  190SLPC  H15X22033   2.108   4.914   8.294 -3.9750 -0.4857 -0.6789
  190SLPC  H15Y22034   2.029   5.080   8.341  3.0847  4.3935  0.0354
  190SLPC  C31622035   2.142   4.993   8.498 -0.3719 -0.7034 -0.2356
  190SLPC  H16X22036   2.139   5.093   8.546 -1.8198 -0.5668 -0.5613
  190SLPC  H16Y22037   2.248   4.966   8.517 -0.4735 -1.3949 -0.6121
  190SLPC  C31722038   2.048   4.895   8.570  0.2939 -0.4692 -0.8735
  190SLPC  H17X22039   2.063   4.919   8.678  1.7616  1.7113 -1.5020
  190SLPC  H17Y22040   2.065   4.787   8.549 -0.1754 -0.2225 -2.5998
  190SLPC  C31822041   1.905   4.926   8.543 -0.0820  0.6872  0.0626
  190SLPC  H18X22042   1.867   4.876   8.452  0.0454 -2.5325  1.6197
  190SLPC  H18Y22043   1.886   5.035   8.535  0.5012  0.6617 -2.5807
  190SLPC  H18Z22044   1.840   4.889   8.625 -0.9937 -0.8164 -1.2886
  191SLPC     N22045   1.289   1.569   5.793  0.3940 -0.3244  0.0409
  191SLPC   C1322046   1.406   1.665   5.774  0.1078 -0.2856 -0.5255
  191SLPC  H13A22047   1.498   1.612   5.753  0.5751  0.7409 -1.1291
  191SLPC  H13B22048   1.394   1.737   5.694 -0.6462 -0.1030 -0.2512
  191SLPC  H13C22049   1.419   1.720   5.866  1.2514 -1.5704  0.1122
  191SLPC   C1422050   1.292   1.473   5.685 -0.1932 -0.4101  0.7684
  191SLPC  H14A22051   1.205   1.408   5.693 -1.6519  1.1883 -1.0684
  191SLPC  H14B22052   1.287   1.524   5.590  1.0985  0.0673  0.9408
  191SLPC  H14C22053   1.375   1.405   5.695  0.7636  0.7684  1.0477
  191SLPC   C1522054   1.162   1.650   5.806 -0.1881  0.3063  0.2803
  191SLPC  H15A22055   1.077   1.583   5.801  1.8249 -2.4711  0.8143
  191SLPC  H15B22056   1.168   1.714   5.893  2.2133  0.9713 -0.3174
  191SLPC  H15C22057   1.154   1.723   5.727 -1.1242  0.4795  0.5236
  191SLPC   C1222058   1.309   1.483   5.919  0.3742 -0.0188  0.0600
  191SLPC  H12A22059   1.378   1.405   5.891 -2.5147 -2.5168 -0.4784
  191SLPC  H12B22060   1.214   1.433   5.931 -1.2156  2.1662 -2.3404
  191SLPC   C1122061   1.336   1.542   6.063  0.3398 -0.4106  0.2370
  191SLPC  H11A22062   1.338   1.455   6.133 -0.2751 -0.0994  0.6484
  191SLPC  H11B22063   1.238   1.584   6.095  0.7708 -0.4718  1.7568
  191SLPC     P22064   1.561   1.631   6.167 -0.5376  0.2016 -0.1654
  191SLPC   O1322065   1.571   1.490   6.226  0.2985 -0.3551  0.5040
  191SLPC   O1422066   1.678   1.681   6.094 -0.0047  0.1564 -0.7190
  191SLPC   O1222067   1.432   1.644   6.070 -0.2417 -0.3246  0.0246
  191SLPC   O1122068   1.528   1.735   6.283  0.4609 -0.4268  0.9270
  191SLPC    C122069   1.514   1.687   6.418 -0.5612  0.1066  0.0463
  191SLPC    HA22070   1.463   1.766   6.477 -0.3239  1.3303 -1.3479
  191SLPC    HB22071   1.438   1.606   6.414 -0.6305  0.2153 -2.2164
  191SLPC    C222072   1.648   1.669   6.489 -0.2604  0.0886 -0.3270
  191SLPC    HS22073   1.710   1.591   6.440  1.8679  0.3259  1.7573
  191SLPC   O2122074   1.636   1.643   6.634  0.1785  0.1800 -0.9915
  191SLPC   C2122075   1.572   1.531   6.664 -0.1666  0.0812  0.5951
  191SLPC   O2222076   1.543   1.438   6.592  0.5188  0.1016  0.1423
  191SLPC   C2222077   1.542   1.539   6.819 -0.3575 -0.6086  0.4780
  191SLPC   H2R22078   1.623   1.490   6.878  0.7153  1.3344  0.7133
  191SLPC   H2S22079   1.540   1.646   6.849 -0.4241 -0.5530  0.2778
  191SLPC    C322080   1.737   1.801   6.475  0.1376  0.5899  0.4951
  191SLPC    HX22081   1.739   1.824   6.366  0.6676  1.8281  0.7532
  191SLPC    HY22082   1.843   1.782   6.501  1.2004  1.5279 -2.6603
  191SLPC   O3122083   1.681   1.915   6.542 -0.1122  0.0530 -0.4174
  191SLPC   C3122084   1.753   2.020   6.524  0.2521  0.2089 -0.6376
  191SLPC   O3222085   1.857   2.033   6.462  0.4062 -0.1237  0.1399
  191SLPC   C3222086   1.704   2.137   6.624  0.0548 -0.0145 -0.0154
  191SLPC   H2X22087   1.599   2.161   6.598 -0.1074  0.8686  1.4014
  191SLPC   H2Y22088   1.768   2.224   6.599  0.1329  0.4853  1.8486
  191SLPC   C2322089   1.417   1.474   6.872 -0.3333 -0.0722  0.0174
  191SLPC   H3R22090   1.442   1.366   6.882  0.5673 -0.4560 -4.5803
  191SLPC   H3S22091   1.322   1.465   6.815  0.7749 -3.0393 -1.5426
  191SLPC   C2422092   1.380   1.537   7.011  0.4937  0.0497  0.0390
  191SLPC   H4R22093   1.345   1.641   6.999 -1.6003 -0.5779  0.3279
  191SLPC   H4S22094   1.475   1.530   7.069 -0.7679 -1.6624  2.0595
  191SLPC   C2522095   1.273   1.449   7.081  0.5023  0.1332  0.4174
  191SLPC   H5R22096   1.295   1.342   7.099 -0.8822 -0.0663  1.0583
  191SLPC   H5S22097   1.175   1.455   7.028  0.4280 -2.9481  0.0382
  191SLPC   C2622098   1.263   1.488   7.231 -0.1201  0.0583  0.2504
  191SLPC   H6R22099   1.202   1.580   7.219  0.1833  0.3094  0.6341
  191SLPC   H6S22100   1.365   1.516   7.264  0.1219  0.7873 -1.0222
  191SLPC   C2722101   1.187   1.405   7.334  0.8957  0.6254 -0.4227
  191SLPC   H7R22102   1.186   1.464   7.428 -0.3772  1.9330 -1.2173
  191SLPC   H7S22103   1.251   1.315   7.346 -0.0214 -0.2500 -1.9143
  191SLPC   C2822104   1.041   1.373   7.308  0.4008  0.5295  0.4256
  191SLPC   H8R22105   0.976   1.463   7.304  0.4253  0.5193 -0.5693
  191SLPC   H8S22106   1.011   1.323   7.403 -0.0725  0.2801  0.1476
  191SLPC   C2922107   0.998   1.290   7.189 -0.7071  0.2463 -0.4781
  191SLPC   H9R22108   0.959   1.352   7.106 -1.7322  0.9016  0.4575
  191SLPC  C21022109   1.001   1.156   7.175 -0.6974 -0.1721 -0.0970
  191SLPC  H10R22110   0.972   1.118   7.076  3.6528 -0.5091 -1.4645
  191SLPC  C21122111   1.041   1.058   7.280 -0.2112 -0.7323  0.8820
  191SLPC  H11R22112   1.151   1.068   7.290 -0.2142 -0.1662  0.4137
  191SLPC  H11S22113   1.018   0.954   7.249  0.0987 -0.7149  0.5809
  191SLPC  C21222114   0.974   1.061   7.414  0.1236  0.5691 -0.1401
  191SLPC  H12R22115   0.890   1.128   7.439 -2.2354 -2.3764  0.4534
  191SLPC  C21322116   1.015   0.977   7.513 -0.8498  0.2482 -0.7570
  191SLPC  H13R22117   0.967   0.984   7.611 -1.4723  2.0735 -1.1549
  191SLPC  C21422118   1.119   0.865   7.498  0.6300  0.0164  0.5627
  191SLPC  H14R22119   1.197   0.880   7.421  1.8651 -2.9907  1.0606
  191SLPC  H14S22120   1.058   0.773   7.483 -1.9563  1.6687  0.2979
  191SLPC  C21522121   1.206   0.854   7.626 -0.0914  0.3000  0.7922
  191SLPC  H15R22122   1.261   0.951   7.633  1.3469 -0.1677 -2.2614
  191SLPC  H15S22123   1.284   0.779   7.603  0.8124  1.4439 -0.0514
  191SLPC  C21622124   1.134   0.823   7.754  0.8512 -0.5564  0.1469
  191SLPC  H16R22125   1.075   0.912   7.785 -2.2604 -2.2329 -0.5368
  191SLPC  H16S22126   1.203   0.807   7.840  0.8890 -0.3737  0.1516
  191SLPC  C21722127   1.033   0.705   7.738 -0.6696  0.8518  0.4334
  191SLPC  H17R22128   1.089   0.612   7.714  0.4222  1.1155  1.8268
  191SLPC  H17S22129   0.954   0.736   7.666 -1.6448 -0.2588  0.9878
  191SLPC  C21822130   0.977   0.668   7.877  0.3284 -0.2542 -0.5337
  191SLPC  H18R22131   0.908   0.749   7.909 -0.2174 -1.5128  1.6267
  191SLPC  H18S22132   1.064   0.653   7.944  0.1461  1.4647  0.1390
  191SLPC  H18T22133   0.921   0.573   7.866  2.4354 -1.6528  0.2273
  191SLPC   C3322134   1.724   2.095   6.769  0.0371 -0.4224 -0.5315
  191SLPC   H3X22135   1.652   2.014   6.794  0.2597  0.1716  2.3009
  191SLPC   H3Y22136   1.678   2.169   6.838 -0.4933 -2.3334  1.2651
  191SLPC   C3422137   1.868   2.062   6.812 -0.1032 -0.4938  0.4322
  191SLPC   H4X22138   1.931   2.154   6.804 -1.7404  0.6844  0.5226
  191SLPC   H4Y22139   1.913   1.992   6.738  0.8522  1.3259 -0.8146
  191SLPC   C3522140   1.878   2.008   6.959  0.3745  0.2968 -0.3139
  191SLPC   H5X22141   1.987   1.990   6.970  0.1049 -0.6336  1.1418
  191SLPC   H5Y22142   1.822   1.912   6.969  0.5697  0.3141  1.1019
  191SLPC   C3622143   1.842   2.109   7.063  0.4531  0.1114  0.1813
  191SLPC   H6X22144   1.732   2.127   7.063  0.8767  3.2793  1.7330
  191SLPC   H6Y22145   1.881   2.209   7.035 -1.5533  0.9739  0.3028
  191SLPC   C3722146   1.884   2.081   7.208  0.4936 -0.1278 -1.3530
  191SLPC   H7X22147   1.994   2.089   7.219  0.3987  1.5609 -1.3721
  191SLPC   H7Y22148   1.854   1.982   7.250 -2.2419  0.6403 -1.2559
  191SLPC   C3822149   1.831   2.194   7.301 -0.2664 -0.0286 -0.2654
  191SLPC   H8X22150   1.720   2.196   7.305 -0.2473  2.7767  0.7630
  191SLPC   H8Y22151   1.864   2.297   7.279  1.6485 -0.8678 -1.6671
  191SLPC   C3922152   1.879   2.160   7.445  0.6242 -0.2174 -0.1278
  191SLPC   H9X22153   1.987   2.157   7.469  0.3853 -2.0338  0.9965
  191SLPC   H9Y22154   1.851   2.054   7.465  1.9202 -0.2720  1.6442
  191SLPC  C31022155   1.822   2.246   7.557 -0.3868  0.3777 -0.4784
  191SLPC  H10X22156   1.711   2.249   7.560 -0.4357  0.7352  3.5532
  191SLPC  H10Y22157   1.852   2.353   7.555 -1.1975  0.5994 -1.9114
  191SLPC  C31122158   1.862   2.191   7.696 -0.2680  0.5476 -0.1768
  191SLPC  H11X22159   1.972   2.191   7.683 -0.0139 -2.5512  1.1322
  191SLPC  H11Y22160   1.821   2.088   7.697 -0.9036  0.7981  0.0736
  191SLPC  C31222161   1.824   2.282   7.810  0.1333 -0.4268  0.1352
  191SLPC  H12X22162   1.737   2.345   7.780  1.1734  0.2229 -1.7065
  191SLPC  H12Y22163   1.900   2.360   7.832  1.6174 -0.8583 -2.9331
  191SLPC  C31322164   1.796   2.193   7.936 -0.2348 -0.0483 -1.0561
  191SLPC  H13X22165   1.873   2.113   7.935 -1.1859 -1.0854  1.4384
  191SLPC  H13Y22166   1.703   2.135   7.916  0.6638 -1.1100 -2.3465
  191SLPC  C31422167   1.798   2.270   8.069 -0.6822 -0.0821 -0.2202
  191SLPC  H14X22168   1.899   2.315   8.082 -1.0703  0.6765  0.2621
  191SLPC  H14Y22169   1.790   2.185   8.141 -0.8912 -0.3431 -0.5481
  191SLPC  C31522170   1.689   2.373   8.089  0.0315  0.1955 -0.0868
  191SLPC  H15X22171   1.665   2.406   7.985  3.1371 -1.6559 -1.5470
  191SLPC  H15Y22172   1.723   2.469   8.133  1.2187  0.8766 -2.3395
  191SLPC  C31622173   1.569   2.322   8.171 -0.9569  0.1666 -0.3434
  191SLPC  H16X22174   1.528   2.228   8.129 -1.7969 -0.6648  2.1785
  191SLPC  H16Y22175   1.508   2.413   8.152 -0.8871  0.1358 -0.7376
  191SLPC  C31722176   1.594   2.290   8.317 -0.7083  0.5572  1.0065
  191SLPC  H17X22177   1.646   2.378   8.360 -1.3191  0.5075  1.8691
  191SLPC  H17Y22178   1.663   2.203   8.314 -1.0537  0.2772 -2.2308
  191SLPC  C31822179   1.467   2.250   8.391  0.5954 -0.5269  0.0476
  191SLPC  H18X22180   1.487   2.185   8.478 -0.0933  0.5038  1.0136
  191SLPC  H18Y22181   1.406   2.195   8.316  1.1803  1.0521 -1.6542
  191SLPC  H18Z22182   1.419   2.347   8.418  0.0861 -0.3737 -1.3456
  192SLPC     N22183   3.866   2.331   6.332  0.0812  0.9430 -0.6920
  192SLPC   C1322184   3.742   2.314   6.412 -0.0872 -0.0710  0.4839
  192SLPC  H13A22185   3.753   2.373   6.502 -0.9702 -0.1096  0.6204
  192SLPC  H13B22186   3.659   2.344   6.350  0.1632  0.5543  0.4431
  192SLPC  H13C22187   3.732   2.208   6.428  2.9909 -0.5979 -0.4370
  192SLPC   C1422188   3.869   2.459   6.262 -0.2198 -0.9999 -0.1268
  192SLPC  H14A22189   3.788   2.462   6.191 -0.8666  2.8232  0.5640
  192SLPC  H14B22190   3.852   2.543   6.327 -1.3711  0.5286 -2.2612
  192SLPC  H14C22191   3.964   2.459   6.209  0.0526 -3.6710  0.2280
  192SLPC   C1522192   3.860   2.219   6.229 -0.6543 -0.0820  0.2388
  192SLPC  H15A22193   3.865   2.122   6.276 -0.1469 -0.3894 -0.4140
  192SLPC  H15B22194   3.757   2.212   6.197 -0.7637  0.9399  0.3290
  192SLPC  H15C22195   3.937   2.226   6.153 -0.5437 -0.0005  0.3584
  192SLPC   C1222196   3.982   2.306   6.419 -0.4053 -0.4914  0.0710
  192SLPC  H12A22197   4.066   2.294   6.353 -0.8656  2.2556 -1.1583
  192SLPC  H12B22198   3.947   2.216   6.466 -2.2842 -0.4732 -1.1560
  192SLPC   C1122199   4.004   2.416   6.522 -0.4239 -0.5571  0.1752
  192SLPC  H11A22200   3.992   2.520   6.486 -1.6317 -0.3799  1.0279
  192SLPC  H11B22201   4.108   2.422   6.561 -0.0619  0.6547 -0.9375
  192SLPC     P22202   3.964   2.278   6.728 -0.0023 -0.3436 -0.2101
  192SLPC   O1322203   3.950   2.153   6.653 -1.0798  0.2780 -0.1846
  192SLPC   O1422204   4.097   2.319   6.780  0.5228  0.0558 -0.6821
  192SLPC   O1222205   3.915   2.393   6.640  0.0485 -0.3461 -0.0458
  192SLPC   O1122206   3.853   2.287   6.848 -0.6488 -0.5188  0.4996
  192SLPC    C122207   3.718   2.288   6.811  0.7005 -0.2196  0.3839
  192SLPC    HA22208   3.688   2.394   6.794  1.0988 -0.4049 -1.7635
  192SLPC    HB22209   3.701   2.229   6.718  4.1077 -0.7315 -0.0239
  192SLPC    C222210   3.632   2.229   6.925  0.6871 -0.5420 -0.2000
  192SLPC    HS22211   3.525   2.237   6.898  0.3041 -0.0024  1.3792
  192SLPC   O2122212   3.649   2.304   7.055 -0.9245 -0.0973  0.0451
  192SLPC   C2122213   3.588   2.423   7.055  0.3098 -0.1677 -0.0294
  192SLPC   O2222214   3.518   2.468   6.967 -0.5796 -0.4502  0.5472
  192SLPC   C2222215   3.630   2.497   7.183  0.0873 -0.3659 -0.1763
  192SLPC   H2R22216   3.557   2.465   7.260 -0.4210 -0.2116 -0.5878
  192SLPC   H2S22217   3.724   2.457   7.228 -0.4478  1.4245  2.7974
  192SLPC    C322218   3.679   2.083   6.950  0.5380  0.4383 -0.3438
  192SLPC    HX22219   3.787   2.075   6.972  0.0335 -0.8415  2.0030
  192SLPC    HY22220   3.660   2.019   6.862  0.7987 -0.2570  0.0939
  192SLPC   O3122221   3.608   2.039   7.070 -0.3681  0.7895  0.1248
  192SLPC   C3122222   3.630   1.911   7.090 -0.3257 -0.3181 -0.1172
  192SLPC   O3222223   3.700   1.843   7.017 -0.0712  0.5707  0.3025
  192SLPC   C3222224   3.532   1.860   7.195  0.4646  0.1128 -0.1958
  192SLPC   H2X22225   3.462   1.791   7.144 -0.3939  0.5110  0.4181
  192SLPC   H2Y22226   3.462   1.943   7.221  0.5715  0.7840 -1.8988
  192SLPC   C2322227   3.636   2.649   7.170  0.8924  0.2074  0.5870
  192SLPC   H3R22228   3.568   2.683   7.089 -0.7277 -0.9394  1.3982
  192SLPC   H3S22229   3.734   2.685   7.131  0.3166  2.6205  1.2253
  192SLPC   C2422230   3.607   2.734   7.297 -0.4568  0.4999 -0.5927
  192SLPC   H4R22231   3.505   2.707   7.331 -0.3048  1.0323  0.2880
  192SLPC   H4S22232   3.616   2.842   7.276 -1.4563  1.3874  3.0003
  192SLPC   C2522233   3.687   2.697   7.423 -0.2542  0.3861 -0.1816
  192SLPC   H5R22234   3.792   2.724   7.399 -1.1454  5.8169  0.7011
  192SLPC   H5S22235   3.692   2.589   7.449  0.2818  0.4537  0.0123
  192SLPC   C2622236   3.650   2.783   7.543  0.2648  0.1598  0.8120
  192SLPC   H6R22237   3.577   2.731   7.608 -0.5486  1.8961  1.3468
  192SLPC   H6S22238   3.597   2.871   7.500  0.0331 -0.7674 -0.8842
  192SLPC   C2722239   3.772   2.825   7.629  0.3777 -0.1825  0.2645
  192SLPC   H7R22240   3.846   2.885   7.571 -0.5196  1.6230  0.8863
  192SLPC   H7S22241   3.822   2.729   7.652 -0.3070 -0.2024  1.8468
  192SLPC   C2822242   3.731   2.883   7.766  0.1047  0.0623 -1.0048
  192SLPC   H8R22243   3.814   2.903   7.837 -0.8488 -0.5445  0.3234
  192SLPC   H8S22244   3.682   2.802   7.824  3.0699 -0.6765  0.6967
  192SLPC   C2922245   3.643   3.006   7.765  0.3768  0.8235  0.5373
  192SLPC   H9R22246   3.610   3.037   7.665 -2.8179  1.1555  1.5823
  192SLPC  C21022247   3.591   3.079   7.868  0.1429 -0.6243  0.3302
  192SLPC  H10R22248   3.538   3.174   7.854  0.1500 -0.9252 -2.0593
  192SLPC  C21122249   3.614   3.047   8.017 -0.5018  0.4285  0.1837
  192SLPC  H11R22250   3.695   3.112   8.056  0.1862  0.0804 -0.6207
  192SLPC  H11S22251   3.656   2.945   8.033  2.4079  1.9140  3.2232
  192SLPC  C21222252   3.490   3.056   8.095 -0.2224  0.1956 -0.1552
  192SLPC  H12R22253   3.408   3.005   8.043  1.5238 -0.8185 -2.0395
  192SLPC  C21322254   3.461   3.114   8.215  0.2210 -0.7230  0.2936
  192SLPC  H13R22255   3.362   3.113   8.262 -0.5639 -3.6776 -1.1494
  192SLPC  C21422256   3.576   3.184   8.289  0.1781  0.6065  0.4781
  192SLPC  H14R22257   3.555   3.293   8.282  1.4733  0.8650  0.2851
  192SLPC  H14S22258   3.674   3.152   8.246 -0.5172 -2.9583  1.2176
  192SLPC  C21522259   3.577   3.141   8.433 -0.0149  0.5285  0.0046
  192SLPC  H15R22260   3.603   3.033   8.433 -1.3881  0.0710 -3.8773
  192SLPC  H15S22261   3.480   3.152   8.487 -0.7155 -2.4222 -0.5114
  192SLPC  C21622262   3.668   3.226   8.527 -0.4682  0.5625  0.6889
  192SLPC  H16R22263   3.639   3.333   8.521  0.6944  0.7981 -1.6178
  192SLPC  H16S22264   3.771   3.213   8.488 -1.0278  1.1794 -1.1125
  192SLPC  C21722265   3.650   3.187   8.678  1.2220  0.2277  0.6220
  192SLPC  H17R22266   3.679   3.081   8.694  0.0170 -0.3318 -0.6814
  192SLPC  H17S22267   3.722   3.250   8.733  1.8369 -0.2863  0.4122
  192SLPC  C21822268   3.514   3.208   8.742 -0.2070  0.8524  0.4555
  192SLPC  H18R22269   3.475   3.310   8.722 -1.4257  0.1978 -0.6740
  192SLPC  H18S22270   3.524   3.198   8.852  0.5445 -0.6329  0.2668
  192SLPC  H18T22271   3.435   3.141   8.702 -0.3095  0.0883  1.8996
  192SLPC   C3322272   3.598   1.802   7.317  0.0682 -0.0268  0.0680
  192SLPC   H3X22273   3.647   1.707   7.286 -2.9807 -1.7238  0.0236
  192SLPC   H3Y22274   3.525   1.758   7.389  0.2080 -0.7403 -0.2175
  192SLPC   C3422275   3.690   1.896   7.394  0.5267  0.0805  0.1030
  192SLPC   H4X22276   3.749   1.963   7.328  2.0835 -3.8818 -2.8962
  192SLPC   H4Y22277   3.756   1.822   7.444 -0.0847 -0.8542 -0.4526
  192SLPC   C3522278   3.619   1.997   7.482 -0.2392 -0.7035  0.7588
  192SLPC   H5X22279   3.582   1.938   7.568 -1.7051 -0.8466  0.0552
  192SLPC   H5Y22280   3.532   2.048   7.436 -1.5093 -2.8943  0.5807
  192SLPC   C3622281   3.706   2.111   7.531  0.2483 -0.2583 -0.0863
  192SLPC   H6X22282   3.753   2.166   7.447  0.6927 -0.5962 -0.0586
  192SLPC   H6Y22283   3.786   2.073   7.598 -3.0866 -3.1223  2.6848
  192SLPC   C3722284   3.624   2.225   7.603 -0.5283 -0.5795 -0.9602
  192SLPC   H7X22285   3.580   2.191   7.700 -1.7728 -0.5114 -1.4799
  192SLPC   H7Y22286   3.545   2.270   7.539 -1.3524 -0.1226  0.3370
  192SLPC   C3822287   3.712   2.353   7.623 -0.7441 -0.5530 -0.0741
  192SLPC   H8X22288   3.644   2.438   7.604 -0.1494  0.0059  0.2703
  192SLPC   H8Y22289   3.790   2.336   7.546  0.8441 -1.5167  1.6694
  192SLPC   C3922290   3.782   2.374   7.764  0.5206  0.3999  0.2717
  192SLPC   H9X22291   3.862   2.448   7.743  1.6126 -0.5000  1.1064
  192SLPC   H9Y22292   3.829   2.278   7.796  3.0564  1.7665  0.9036
  192SLPC  C31022293   3.678   2.415   7.864 -0.0215 -0.7703 -0.2379
  192SLPC  H10X22294   3.589   2.348   7.863  0.2143 -1.1001  0.3899
  192SLPC  H10Y22295   3.643   2.515   7.832 -0.2362 -1.4173 -2.1118
  192SLPC  C31122296   3.731   2.431   8.004  0.7821  0.1479  0.2589
  192SLPC  H11X22297   3.809   2.510   8.012  1.3959 -0.6736  4.6146
  192SLPC  H11Y22298   3.781   2.333   8.021 -1.4321 -1.0207  0.3857
  192SLPC  C31222299   3.630   2.438   8.123 -0.2677  0.2225  0.0938
  192SLPC  H12X22300   3.662   2.387   8.216 -1.4137  1.9862  1.5357
  192SLPC  H12Y22301   3.535   2.390   8.091 -0.5266  0.6854  0.1593
  192SLPC  C31322302   3.604   2.585   8.158  0.3153 -0.4998 -0.3897
  192SLPC  H13X22303   3.595   2.648   8.068  1.5539 -0.8950 -0.8174
  192SLPC  H13Y22304   3.688   2.636   8.210  0.3932 -0.1951 -0.8161
  192SLPC  C31422305   3.480   2.601   8.241 -0.4304 -0.2938 -0.5467
  192SLPC  H14X22306   3.499   2.518   8.312 -0.8989 -0.8375 -1.0412
  192SLPC  H14Y22307   3.396   2.579   8.171  1.3062 -2.0741 -2.2216
  192SLPC  C31522308   3.473   2.732   8.329  0.6038 -0.5942 -0.1114
  192SLPC  H15X22309   3.438   2.817   8.266  1.3447  0.0680  0.3395
  192SLPC  H15Y22310   3.574   2.755   8.370  0.9629 -1.8783 -0.2496
  192SLPC  C31622311   3.380   2.721   8.448 -0.7772 -0.1252  0.2704
  192SLPC  H16X22312   3.383   2.616   8.482 -2.4001 -0.2992 -0.0179
  192SLPC  H16Y22313   3.274   2.738   8.420 -0.4368 -0.5281 -1.3758
  192SLPC  C31722314   3.401   2.818   8.571  0.5697 -0.5036  0.3251
  192SLPC  H17X22315   3.395   2.923   8.533 -0.1686 -0.3558  0.8145
  192SLPC  H17Y22316   3.506   2.804   8.604  0.8803  1.1650  0.1294
  192SLPC  C31822317   3.287   2.799   8.671 -0.4016 -0.1596  0.4281
  192SLPC  H18X22318   3.300   2.876   8.750  1.6982  1.8664 -1.6993
  192SLPC  H18Y22319   3.300   2.703   8.725  1.2566  0.5842  1.4286
  192SLPC  H18Z22320   3.185   2.804   8.626  1.1304  0.9713 -3.3130
  193SOD    SOD22321   4.251   3.141  16.149  0.2331  0.4068 -0.1549
  194SOD    SOD22322   0.753   3.446   4.871 -0.0270 -0.3105  0.2453
  195SOD    SOD22323   3.379   0.142  16.806 -0.1257  0.4039  0.3229
  196SOD    SOD22324   1.822   3.000  12.681  0.1188  0.6221  0.1814
  197SOD    SOD22325   2.289   1.589   5.744 -0.0546  0.1066 -0.1624
  198SOD    SOD22326   2.084   4.319  12.981 -0.2541 -0.3552  0.5994
  199SOD    SOD22327   6.273   0.315  14.149 -0.4368 -0.1210  0.3672
  200SOD    SOD22328   3.384   5.168   5.898 -0.0514 -0.5520  0.6650
  201SOD    SOD22329   0.912   6.418  10.932  0.1064  0.3359  0.4264
  202SOD    SOD22330   4.317   5.083   1.406  0.0893 -0.2788  0.8076
  203SOD    SOD22331   5.359   0.183   4.028  0.3415  0.1300  0.3785
  204SOD    SOD22332   1.588   5.593  13.146 -0.4170 -0.0991  0.9371
  205SOD    SOD22333   1.029   6.525   1.187 -0.3439  0.2947 -0.6270
  206SOD    SOD22334   4.803   1.874  13.788 -0.4809 -0.4990  0.0796
  207SOD    SOD22335   5.712   2.990  15.995 -0.1509 -0.4706  0.3515
  208SOD    SOD22336   3.026   4.699   4.182  0.0342  0.1999 -0.5662
  209SOD    SOD22337   1.525   1.907   1.384  0.2971  0.3675  0.3544
  210SOD    SOD22338   4.361   1.165  11.256  0.2473 -0.0764 -0.0649
  211SOD    SOD22339   4.171   2.957  13.558  0.2597  0.2657 -0.0464
  212SOD    SOD22340   0.243   4.588   6.156  0.1383  0.1140  0.0625
  213SOD    SOD22341   5.200   5.633   2.744 -0.0976  0.4785 -0.0726
  214SOD    SOD22342   5.211   3.087   6.267  0.0285  0.2314  0.0882
  215SOD    SOD22343   1.565   5.123  11.527 -0.4587 -0.1660  0.3666
  216SOD    SOD22344   1.377   0.040   4.180 -0.2250  0.0369  0.0943
  217SOD    SOD22345   1.635   4.360  16.951 -0.3162  0.1674  0.4741
  218SOD    SOD22346   3.723   6.133  11.209 -0.2100  0.1502  0.0224
  219SOD    SOD22347   2.851   6.393  14.012  0.2052 -0.2457  0.0973
  220SOD    SOD22348   5.125   2.127  11.297 -0.1087 -0.6738 -0.4727
  221SOD    SOD22349   2.702   1.300  11.821  0.2769  0.0289 -0.3702
  222SOD    SOD22350   4.432   2.792   2.519  0.2587  0.6152  0.4084
  223SOD    SOD22351   2.476   0.261  12.822  0.0894  0.3647  0.7756
  224SOD    SOD22352   3.231   6.562  10.443 -0.2230  0.1699 -0.0564
  225SOD    SOD22353   2.397   1.467   3.862 -0.1346  0.4919  0.1431
  226SOD    SOD22354   1.299   1.205   1.816  0.3860  0.2794 -0.2167
  227SOD    SOD22355   6.410   6.216  17.124 -0.2001 -0.7703 -0.2504
  228SOD    SOD22356   6.537   3.977   1.129 -0.1074 -0.3421  0.0098
  229SOD    SOD22357   4.061   5.416  17.201  0.2570 -0.1721 -0.3815
  230SOD    SOD22358   5.857   6.136  11.459  0.3957 -0.4788 -0.2106
  231SOD    SOD22359   0.833   1.070  16.892  0.1606 -0.3908 -0.3839
  232SOD    SOD22360   0.382   0.004   2.726  0.3454 -0.0561 -0.2946
  233SOD    SOD22361   4.177   6.360   4.705 -0.3269  0.2548 -0.0474
  234SOD    SOD22362   1.774   0.121  15.766  0.2306 -0.2505  0.1192
  235SOD    SOD22363   1.875   0.064   5.862  0.0283 -0.2292 -0.4730
  236SOD    SOD22364   1.516   4.251   4.573  0.1476  0.0110  0.2058
  237SOD    SOD22365   1.006   0.883   6.000 -0.0361 -0.0075  0.0558
  238SOD    SOD22366   6.141   2.305  16.300 -0.1702 -0.3505  0.2556
  239SOD    SOD22367   2.583   1.145   5.384 -0.3250  0.0968 -0.1488
  240SOD    SOD22368   3.730   2.625   3.810 -0.3675 -0.0853 -0.5806
  241SOD    SOD22369   5.124   1.732  15.812 -0.4602 -0.2296  0.2819
  242SOD    SOD22370   3.381   0.879   6.466  0.0253 -0.4630 -0.1088
  243SOD    SOD22371   1.846   0.853  12.871 -0.1596  0.0051 -0.0013
  244SOD    SOD22372   5.412   6.453  17.127  0.1810  0.0035 -0.4305
  245SOD    SOD22373   3.731   2.623  15.929 -0.1218  0.2044 -0.3077
  246SOD    SOD22374   1.907   1.116  15.313  0.0866 -0.3170 -0.1309
  247SOD    SOD22375   2.787   0.579   3.791  0.0046  0.3869 -0.0505
  248SOD    SOD22376   6.111   2.782  14.200 -0.2306  0.2774 -0.4036
  249SOD    SOD22377   6.608   2.978  11.472 -0.1754 -0.1303 -0.0507
  250SOD    SOD22378   0.778   1.850  14.212 -0.3801 -0.5315 -0.2972
  251SOD    SOD22379   5.496   3.965   5.738  0.0542 -0.3923 -0.2646
  252SOD    SOD22380   2.975   5.373  11.572  0.4473 -0.0586 -0.3022
  253SOD    SOD22381   5.624   0.505  14.186  0.2725 -0.1496  0.1342
  254SOD    SOD22382   5.778   2.630  17.022  0.0161  0.4178 -0.2066
  255SOD    SOD22383   2.326   3.528   3.085  0.1093  0.1221 -0.5834
  256SOD    SOD22384   3.317   5.752  16.183 -0.4857 -0.2513 -0.4123
  257SOD    SOD22385   5.503   1.326   5.847 -0.2651  0.2294  0.3416
  258SOD    SOD22386   1.239   0.859   0.802 -0.2411  0.3324 -0.5045
  259SOD    SOD22387   3.142   1.180   2.705  0.3125  0.4049  0.0310
  260SOD    SOD22388   1.488   5.979  11.214 -0.0174 -0.0977 -0.3505
  261SOD    SOD22389   0.697   5.297  16.790 -0.1669  0.0138 -0.3249
  262SOD    SOD22390   1.455   0.279   1.105  0.0329 -0.6653  0.3974
  263SOD    SOD22391   4.686   0.347  11.862  0.1597 -0.0855 -0.1771
  264SOD    SOD22392   6.758   0.434   0.175  0.0768  0.4776  0.4795
  265SOD    SOD22393   4.297   5.575  14.682  0.1180 -0.3503  0.3844
  266CLA    CLA22394   0.834   0.877   0.608 -0.1129  0.5404 -0.0486
  267CLA    CLA22395   5.477   0.169  13.609  0.1795 -0.5178  0.0838
  268CLA    CLA22396   2.258   4.921  12.659  0.0461 -0.3167  0.2810
  269CLA    CLA22397   1.549   3.142   3.468  0.1710 -0.1304  0.0869
  270CLA    CLA22398   0.838   3.242   3.883  0.0136  0.1635 -0.0284
  271CLA    CLA22399   0.223   5.773   4.110  0.3530  0.0539 -0.5254
  272CLA    CLA22400   3.532   4.836  16.008  0.2066  0.0832  0.0375
  273CLA    CLA22401   1.634   6.660   1.946  0.6431 -0.0581  0.0582
  274CLA    CLA22402   2.125   3.679   3.545 -0.1835 -0.0544  0.0195
  275CLA    CLA22403   0.367   1.528  13.231 -0.1389 -0.3057  0.1130
  276CLA    CLA22404   4.045   3.032   4.045  0.1476  0.2022 -0.3889
  277CLA    CLA22405   2.452   1.774   3.001 -0.0840  0.0619 -0.0570
  278CLA    CLA22406   6.559   6.624   0.326  0.0559  0.5986  0.0677
  279CLA    CLA22407   5.967   2.853  17.357 -0.3434 -0.3786 -0.2081
  280CLA    CLA22408   0.812   3.222  17.052 -0.0473  0.0830 -0.2822
  281CLA    CLA22409   5.598   2.454  16.649  0.1990  0.1219  0.1527
  282CLA    CLA22410   4.105   3.695  13.344 -0.2843  0.0041 -0.0477
  283CLA    CLA22411   5.335   2.452   5.682 -0.1726 -0.0017 -0.7505
  284CLA    CLA22412   6.734   3.303   5.539 -0.3556  0.0229  0.0480
  285CLA    CLA22413   0.139   2.597   0.214 -0.3216 -0.3588 -0.3988
  286CLA    CLA22414   5.592   0.879  11.231  0.4191  0.0482  0.1880
  287CLA    CLA22415   4.906   2.808  16.516  0.0735 -0.3540  0.1265
  288CLA    CLA22416   3.834   2.652   5.633  0.1350 -0.0637 -0.0245
  289CLA    CLA22417   4.927   2.684   4.483  0.1455  0.0533 -0.1559
  290CLA    CLA22418   0.828   5.784  13.026  0.0345  0.2550  0.4039
  291CLA    CLA22419   3.018   1.364   3.279 -0.0577 -0.0929  0.0965
  292CLA    CLA22420   3.903   4.907   2.479 -0.4760  0.0333 -0.2945
  293CLA    CLA22421   4.317   5.129  15.464  0.0593  0.4121 -0.4353
  294CLA    CLA22422   3.111   1.089  14.099  0.1561  0.0013 -0.2900
  295CLA    CLA22423   3.318   0.759  16.241 -0.2840  0.6308  0.4771
  296CLA    CLA22424   2.149   3.445  15.959 -0.0612  0.1038  0.1197
  297CLA    CLA22425   5.012   4.523  12.366  0.2776 -0.0644  0.3122
  298CLA    CLA22426   4.924   0.579   0.883  0.6093  0.0118 -0.4586
  299CLA    CLA22427   0.394   4.681   1.014 -0.2468  0.2379  0.5997
  300CLA    CLA22428   5.467   3.195  16.550 -0.3003 -0.0364  0.2153
  301CLA    CLA22429   4.558   5.595   1.776  0.1683  0.2699  0.1985
  302CLA    CLA22430   3.665   0.560  17.226  0.2899  0.1279 -0.4495
  303CLA    CLA22431   3.960   4.405   1.680  0.0832 -0.3327  0.2960
  304CLA    CLA22432   2.642   2.353  14.798 -0.1794 -0.2393  0.2094
  305CLA    CLA22433   6.522   3.008   1.479  0.0706  0.0686  0.2225
  306CLA    CLA22434   1.640   6.297  12.471 -0.2396 -0.2894 -0.2489
  307CLA    CLA22435   4.976   2.216   0.613 -0.2826  0.1847 -0.0610
  308CLA    CLA22436   3.758   2.527  14.738 -0.5036 -0.2557 -0.0466
  309CLA    CLA22437   2.513   3.711  11.915 -0.2276 -0.0065 -0.0260
  310CLA    CLA22438   1.913   5.441  11.521  0.0717 -0.0770 -0.2235
  311CLA    CLA22439   1.220   1.684   2.947 -0.1746 -0.4872 -0.0851
  312CLA    CLA22440   0.961   4.293  14.091  0.2105 -0.1892 -0.2010
  313CLA    CLA22441   2.410   6.354  16.572 -0.0483  0.6119  0.0229
  314CLA    CLA22442   4.729   0.083   3.776  0.5971  0.2812  0.3946
  315CLA    CLA22443   1.228   0.154  14.972  0.1069 -0.0572 -0.0431
  316CLA    CLA22444   6.461   4.533  13.155  0.0821  0.0095  0.0744
  317CLA    CLA22445   6.426   1.113  14.144 -0.4300 -0.6876  0.5816
  318CLA    CLA22446   4.153   1.709   1.319 -0.0582  0.2282  0.2001
  319TIP3   OH222447   1.950   2.388  12.660  0.0278  0.1119 -0.0248
  319TIP3    H122448   2.001   2.421  12.586 -1.2706  1.8235 -0.2323
  319TIP3    H222449   1.973   2.447  12.733 -0.6128  0.0583  0.2306
  320TIP3   OH222450   4.331   2.624   5.200 -0.2243 -0.1109 -0.2115
  320TIP3    H122451   4.319   2.636   5.106  0.1854  0.3461 -0.2053
  320TIP3    H222452   4.300   2.705   5.240  1.4245  0.5000 -0.0957
  321TIP3   OH222453   5.603   6.412   4.712 -0.0360  0.9763  0.0977
  321TIP3    H122454   5.562   6.350   4.652  1.0622  1.6023 -1.3348
  321TIP3    H222455   5.595   6.497   4.670  1.5671  1.2985  0.3715
  322TIP3   OH222456   4.248   0.740  17.127 -0.3503  0.1748 -0.1544
  322TIP3    H122457   4.266   0.783  17.211  0.6383 -0.4527 -0.0256
  322TIP3    H222458   4.173   0.788  17.091  0.3718  1.6454  0.2248
  323TIP3   OH222459   0.273   4.662  12.628  0.5018  0.1764 -0.0882
  323TIP3    H122460   0.362   4.674  12.594  1.1352  0.8549  1.6717
  323TIP3    H222461   0.285   4.655  12.723 -1.4646  2.3149  0.4103
  324TIP3   OH222462   5.656   6.348  13.748 -0.4387  0.5294  0.0350
  324TIP3    H122463   5.562   6.331  13.746 -0.2587 -0.5754 -2.2701
  324TIP3    H222464   5.686   6.329  13.659  2.0649  0.2284  0.8550
  325TIP3   OH222465   2.546   1.543  12.454  0.3799 -0.0348 -0.4506
  325TIP3    H122466   2.500   1.627  12.461  1.5297  0.5067  2.0149
  325TIP3    H222467   2.486   1.480  12.494  0.3124 -0.0121 -0.5156
  326TIP3   OH222468   0.623   6.725   2.035  0.4334 -0.2563  0.3217
  326TIP3    H122469   0.662   6.638   2.024  1.2644  0.2540 -0.9468
  326TIP3    H222470   0.673   6.764   2.107 -0.6800 -1.1912  1.6831
  327TIP3   OH222471   6.324   2.276  13.788  0.0349 -0.1635 -0.2757
  327TIP3    H122472   6.232   2.260  13.808  0.4842 -0.1900  2.0353
  327TIP3    H222473   6.359   2.189  13.767 -0.3726 -0.1967 -0.8624
  328TIP3   OH222474   1.826   1.896  12.079  0.0061 -0.2856  0.2291
  328TIP3    H122475   1.917   1.890  12.108 -0.6218 -0.8286  2.1985
  328TIP3    H222476   1.826   1.969  12.017  1.9044 -0.7426 -0.3740
  329TIP3   OH222477   5.770   4.569  13.324 -0.0937 -0.2678 -0.0888
  329TIP3    H122478   5.801   4.479  13.316 -0.7707 -0.6445  1.1058
  329TIP3    H222479   5.742   4.576  13.416 -0.8664  0.8855 -0.3878
  330TIP3   OH222480   0.080   1.046   2.184  0.0567  1.2393 -0.2346
  330TIP3    H122481   0.050   1.134   2.161 -2.3326  0.8971  1.2770
  330TIP3    H222482   0.037   1.026   2.267  0.9387 -1.1568 -0.2667
  331TIP3   OH222483   2.008   1.454   2.321  0.4771 -0.4005 -0.0734
  331TIP3    H122484   2.020   1.546   2.346  0.0657 -0.5752  0.8140
  331TIP3    H222485   1.913   1.445   2.313  0.4607 -0.9390  0.6361
  332TIP3   OH222486   2.470   2.438   5.532 -0.1868 -0.0413 -0.6450
  332TIP3    H122487   2.556   2.450   5.573 -0.8087 -1.2769  1.0977
  332TIP3    H222488   2.408   2.475   5.594 -1.0958 -1.3299 -0.7600
  333TIP3   OH222489   5.006   4.974  16.862  0.0239 -0.2232 -0.4236
  333TIP3    H122490   5.038   4.955  16.774 -0.1738  1.0712 -0.7848
  333TIP3    H222491   4.982   5.066  16.860 -0.5717 -0.3316  0.8116
  334TIP3   OH222492   3.129   6.407  14.594 -0.4474  0.1073 -0.2332
  334TIP3    H122493   3.078   6.362  14.662 -0.1331 -1.1609 -0.8073
  334TIP3    H222494   3.212   6.428  14.637 -0.3651 -0.4137 -0.1265
  335TIP3   OH222495   1.175   1.151  16.320  0.3287 -0.2023 -0.6555
  335TIP3    H122496   1.150   1.082  16.381  0.3325  0.4450  0.0909
  335TIP3    H222497   1.113   1.222  16.336 -0.7350 -0.6185 -2.5573
  336TIP3   OH222498   6.179   4.960  12.773 -0.0206  0.3213  0.2889
  336TIP3    H122499   6.209   4.909  12.848 -0.8743  0.6790  0.8911
  336TIP3    H222500   6.258   4.975  12.721  0.5806  0.0355  1.0957
  337TIP3   OH222501   2.764   6.225   0.872 -0.4783  0.5587  0.3524
  337TIP3    H122502   2.834   6.199   0.932 -0.4038  2.6914  1.2773
  337TIP3    H222503   2.686   6.181   0.905  0.0482 -0.2766  0.4923
  338TIP3   OH222504   1.347   1.533   4.286 -0.1155 -0.6038  0.0616
  338TIP3    H122505   1.278   1.467   4.292 -1.5600  0.6694 -1.4663
  338TIP3    H222506   1.348   1.558   4.193 -1.0477  2.8835  0.8224
  339TIP3   OH222507   0.329   0.958  12.345  0.0191  0.4326 -0.6927
  339TIP3    H122508   0.252   1.011  12.323 -0.0623 -0.0741 -1.6817
  339TIP3    H222509   0.384   0.964  12.267 -0.6257 -2.0709 -1.4264
  340TIP3   OH222510   1.064   4.578   0.339 -0.0612 -0.1083  0.1604
  340TIP3    H122511   0.981   4.545   0.305  0.0284 -0.2496  0.0753
  340TIP3    H222512   1.115   4.499   0.358  0.7591 -0.0260 -1.5080
  341TIP3   OH222513   2.462   3.908   5.157 -0.4901 -0.2932  0.5854
  341TIP3    H122514   2.415   3.856   5.092  0.1550 -0.3286  0.1385
  341TIP3    H222515   2.402   3.913   5.232 -0.8715 -1.0292  0.3406
  342TIP3   OH222516   3.138   4.091  11.266  0.0649 -0.3259  0.4602
  342TIP3    H122517   3.133   4.174  11.314 -2.5133 -1.4490  2.3895
  342TIP3    H222518   3.081   4.105  11.190  1.7330  0.4634 -0.6954
  343TIP3   OH222519   6.393   4.571  13.673 -0.2651  0.5025  0.1293
  343TIP3    H122520   6.441   4.651  13.695  0.6788 -0.3314  1.2482
  343TIP3    H222521   6.421   4.549  13.584  0.0082  1.0391  0.0785
  344TIP3   OH222522   4.144   2.561   3.885 -0.8305  0.1741 -0.7554
  344TIP3    H122523   4.208   2.559   3.813 -0.1952 -2.2283 -0.1951
  344TIP3    H222524   4.070   2.510   3.853 -1.2177  0.4256 -0.2756
  345TIP3   OH222525   0.351   5.738  14.758  0.2034 -0.2776  0.0287
  345TIP3    H122526   0.350   5.787  14.839  1.3001  1.2280 -0.8168
  345TIP3    H222527   0.323   5.650  14.782  1.0500 -0.0173  2.1243
  346TIP3   OH222528   1.523   4.307   3.953 -0.5556  0.8603  0.3927
  346TIP3    H122529   1.579   4.348   4.018  1.1801  1.2237 -1.2328
  346TIP3    H222530   1.501   4.377   3.892 -0.2274  0.0933 -0.6549
  347TIP3   OH222531   2.862   5.698   1.005  0.5061 -0.1465  0.2656
  347TIP3    H122532   2.782   5.727   1.049 -1.5261 -0.5508 -2.8564
  347TIP3    H222533   2.916   5.777   1.000 -0.3429  0.5197  1.1056
  348TIP3   OH222534   1.697   5.620   0.334  0.5058 -0.5075 -0.3829
  348TIP3    H122535   1.640   5.604   0.259  1.4935 -0.2515 -1.2170
  348TIP3    H222536   1.680   5.547   0.393 -0.1854 -0.7898 -0.9154
  349TIP3   OH222537   4.431   5.035  16.813  0.0322  0.0546  0.5605
  349TIP3    H122538   4.459   4.944  16.813 -0.6922 -0.2087  2.4468
  349TIP3    H222539   4.505   5.083  16.851  0.7586  0.4130 -1.2191
  350TIP3   OH222540   0.599   4.841  10.868  0.4522 -0.6308 -0.6775
  350TIP3    H122541   0.604   4.826  10.774  0.4725 -1.3647 -0.5683
  350TIP3    H222542   0.548   4.767  10.901  0.6025 -0.4769 -0.0899
  351TIP3   OH222543   5.420   1.653   3.641  0.3426 -0.1146  0.0177
  351TIP3    H122544   5.371   1.694   3.712  0.8970  1.0802 -0.2673
  351TIP3    H222545   5.352   1.618   3.583 -0.2221  1.7518 -0.5154
  352TIP3   OH222546   1.795   3.112  15.757  0.1149 -0.3605 -0.1910
  352TIP3    H122547   1.810   3.029  15.712  1.3509 -0.3626  0.1824
  352TIP3    H222548   1.804   3.178  15.689  1.4398 -0.3988 -0.0782
  353TIP3   OH222549   4.666   0.639   5.228 -0.4981 -0.3888 -0.6083
  353TIP3    H122550   4.671   0.650   5.323 -1.4347  0.3246 -0.6343
  353TIP3    H222551   4.752   0.667   5.197 -0.2739 -0.3675  0.0065
  354TIP3   OH222552   3.363   6.526   4.693  0.0592 -0.2338  0.1198
  354TIP3    H122553   3.329   6.449   4.738 -0.2924  0.7820  1.6709
  354TIP3    H222554   3.320   6.600   4.736  0.3843  0.8360 -1.3330
  355TIP3   OH222555   5.180   4.580  11.952  0.7784 -0.2519 -0.5279
  355TIP3    H122556   5.113   4.536  11.900  1.3744 -2.2188  0.2527
  355TIP3    H222557   5.165   4.673  11.938 -0.2892 -0.6786 -2.6416
  356TIP3   OH222558   1.862   5.009   0.153 -0.6050  0.6803 -0.3460
  356TIP3    H122559   1.912   4.936   0.190 -0.5638  1.1862  0.6024
  356TIP3    H222560   1.771   4.990   0.176 -0.7265  0.3869 -1.0299
  357TIP3   OH222561   5.406   3.073   1.411  0.2947 -0.1032  0.3430
  357TIP3    H122562   5.467   3.126   1.463  1.6704 -0.6678 -0.6427
  357TIP3    H222563   5.405   3.115   1.325  1.4576 -1.6526 -0.4796
  358TIP3   OH222564   5.071   4.672  15.156  0.1844  0.2962 -0.4969
  358TIP3    H122565   5.055   4.668  15.062  0.5111  0.8618 -0.5832
  358TIP3    H222566   5.008   4.737  15.188  0.0847  0.1182 -0.3289
  359TIP3   OH222567   4.447   0.469   4.763  0.5051 -0.5382  0.5213
  359TIP3    H122568   4.358   0.465   4.798  0.3123  0.7134  0.2125
  359TIP3    H222569   4.502   0.437   4.834 -0.1081 -0.4403  1.0517
  360TIP3   OH222570   0.643   2.092   3.592  0.4349 -0.0496 -0.3322
  360TIP3    H122571   0.672   2.122   3.506  0.3293  0.4290 -0.2055
  360TIP3    H222572   0.713   2.034   3.622  0.6984  0.1587 -0.5382
  361TIP3   OH222573   4.141   5.088   2.358 -0.4352 -0.1581 -0.5110
  361TIP3    H122574   4.070   5.036   2.396 -2.1261  0.6027 -2.4907
  361TIP3    H222575   4.110   5.112   2.271  1.1697  2.3828 -0.4832
  362TIP3   OH222576   2.313   0.882   3.289  0.0904 -0.0885 -0.0099
  362TIP3    H122577   2.287   0.957   3.236  1.0066 -0.1901 -0.6384
  362TIP3    H222578   2.279   0.806   3.242  2.4288 -0.3114 -1.5020
  363TIP3   OH222579   0.412   4.980   5.025 -0.2099  0.4609 -0.0349
  363TIP3    H122580   0.351   4.974   4.952  0.2723  1.9516 -0.5904
  363TIP3    H222581   0.447   4.891   5.034 -0.0069  0.3242 -1.8596
  364TIP3   OH222582   5.021   6.122   3.052  0.0762 -0.1069  0.7945
  364TIP3    H122583   5.086   6.060   3.020  0.9748  1.1573  0.0912
  364TIP3    H222584   5.011   6.100   3.145  0.3969 -1.2551  0.5809
  365TIP3   OH222585   2.944   4.165  15.258  0.3519 -0.5757 -0.2848
  365TIP3    H122586   2.877   4.097  15.264 -0.6028  0.3796  0.1874
  365TIP3    H222587   3.027   4.117  15.266 -0.2463 -1.7983 -1.0888
  366TIP3   OH222588   6.477   0.269  14.486 -0.2518  1.0469  0.3637
  366TIP3    H122589   6.425   0.189  14.483 -1.0485  1.5261  1.0649
  366TIP3    H222590   6.528   0.262  14.567  1.4022  0.2257 -0.6909
  367TIP3   OH222591   6.707   2.749   0.527 -0.0872 -0.3897 -0.2634
  367TIP3    H122592   6.693   2.702   0.609  0.0712  2.3382  1.4588
  367TIP3    H222593   6.801   2.740   0.510  0.2679  0.6046  0.9725
  368TIP3   OH222594   0.466   3.820   5.391 -0.0031  0.1425 -0.2451
  368TIP3    H122595   0.518   3.741   5.403 -1.2181 -0.2866  3.9240
  368TIP3    H222596   0.415   3.804   5.313  2.7071 -1.3299 -1.8831
  369TIP3   OH222597   0.612   6.114  15.751  0.5581 -0.2009  0.3335
  369TIP3    H122598   0.543   6.050  15.734  0.8868 -0.5988  0.5087
  369TIP3    H222599   0.569   6.199  15.735  1.0739 -0.4802 -3.6185
  370TIP3   OH222600   1.752   4.679   3.350  0.5602  0.1286  0.6431
  370TIP3    H122601   1.794   4.602   3.312 -0.1145 -1.1952  2.4165
  370TIP3    H222602   1.790   4.687   3.437 -0.5106  0.8608  1.0671
  371TIP3   OH222603   0.629   4.963   3.731 -0.3939  0.5957  0.4155
  371TIP3    H122604   0.569   5.035   3.712  0.4555  0.6000 -2.9405
  371TIP3    H222605   0.706   5.005   3.769 -0.7406  1.1726  0.4901
  372TIP3   OH222606   4.123   4.847   5.886  0.4866 -0.4530  0.0867
  372TIP3    H122607   4.123   4.751   5.882  1.1636 -0.4664  0.2762
  372TIP3    H222608   4.182   4.873   5.815 -0.0799 -0.1593 -0.2782
  373TIP3   OH222609   5.994   1.261  12.796  0.4099 -0.4412  0.1768
  373TIP3    H122610   6.035   1.313  12.727 -1.1220  0.8029  0.1443
  373TIP3    H222611   5.956   1.186  12.751  0.4717 -0.2821 -0.1414
  374TIP3   OH222612   3.040   5.321  11.798  0.2549  0.4447 -0.5876
  374TIP3    H122613   3.041   5.384  11.870 -2.0365  0.0038 -0.1004
  374TIP3    H222614   3.068   5.238  11.838 -2.5990 -0.2022  0.3344
  375TIP3   OH222615   1.275   1.556  12.838 -0.3280  0.1071 -0.2704
  375TIP3    H122616   1.228   1.602  12.907  0.2445 -0.3933  0.4678
  375TIP3    H222617   1.245   1.465  12.844  1.1950 -0.3799  0.6744
  376TIP3   OH222618   0.158   6.324  13.665  0.2558 -0.3940 -0.2647
  376TIP3    H122619   0.089   6.373  13.710  0.1033  0.4606 -1.3878
  376TIP3    H222620   0.198   6.387  13.606  4.2715  0.1515  2.5975
  377TIP3   OH222621   5.596   6.151   3.866 -0.4105 -0.0859 -0.0497
  377TIP3    H122622   5.517   6.205   3.864 -1.7921 -2.0207 -0.0458
  377TIP3    H222623   5.599   6.109   3.780  0.8827  0.2659 -0.2081
  378TIP3   OH222624   5.763   4.127  16.856  0.2794 -0.3905 -1.0591
  378TIP3    H122625   5.807   4.079  16.926  0.2525  2.0273  0.7170
  378TIP3    H222626   5.670   4.124  16.879  0.3746  1.3216 -0.3353
  379TIP3   OH222627   1.512   5.883   1.654 -0.0776 -0.0020  0.4156
  379TIP3    H122628   1.473   5.938   1.722 -2.0122 -1.6840  0.7381
  379TIP3    H222629   1.593   5.851   1.693 -0.2438  0.5224  1.2101
  380TIP3   OH222630   5.626   0.701   2.009 -0.2390 -0.7268 -0.4733
  380TIP3    H122631   5.666   0.662   2.086 -1.2023  1.5007  1.2856
  380TIP3    H222632   5.540   0.659   2.003  0.2009 -1.5709 -0.9077
  381TIP3   OH222633   0.306   1.521   3.777 -0.4294 -0.2905 -0.1403
  381TIP3    H122634   0.397   1.548   3.780 -0.0860 -1.0200 -2.2022
  381TIP3    H222635   0.306   1.441   3.724 -2.1600 -0.8316  0.5794
  382TIP3   OH222636   2.751   4.536   2.310 -0.3462 -0.3035  0.3030
  382TIP3    H122637   2.749   4.547   2.406  1.3785  0.7861  0.2628
  382TIP3    H222638   2.828   4.481   2.295  0.6721  1.2721 -0.5428
  383TIP3   OH222639   4.127   6.180  15.972 -0.5115 -0.2691 -0.1976
  383TIP3    H122640   4.073   6.204  16.047 -0.7764 -2.2531  0.3025
  383TIP3    H222641   4.121   6.256  15.913 -1.7371  0.5994  0.9801
  384TIP3   OH222642   5.186   0.879   2.563 -0.1621 -0.0601  0.6878
  384TIP3    H122643   5.179   0.950   2.627 -0.8380  0.4163  0.0929
  384TIP3    H222644   5.133   0.808   2.599  0.3091 -0.1817  1.1584
  385TIP3   OH222645   2.559   6.106  15.084  0.0607  0.6622 -0.2279
  385TIP3    H122646   2.623   6.066  15.142 -0.5172  0.7694  0.4977
  385TIP3    H222647   2.523   6.179  15.135  0.0681  1.2140 -0.9916
  386TIP3   OH222648   1.901   4.478   3.219 -0.0918  0.5292 -0.3713
  386TIP3    H122649   1.855   4.395   3.208  0.9733 -0.0393 -0.7257
  386TIP3    H222650   1.935   4.498   3.132  2.8268 -0.6134  0.3809
  387TIP3   OH222651   3.300   5.940  10.485  0.4437 -0.3384 -0.9822
  387TIP3    H122652   3.370   5.878  10.464 -0.2960 -0.7016 -2.4682
  387TIP3    H222653   3.232   5.886  10.526  0.8756 -0.0417  0.1553
  388TIP3   OH222654   0.150   2.940  16.593  0.1942 -0.3230 -0.2196
  388TIP3    H122655   0.152   2.980  16.506  3.2368  0.6606  0.1908
  388TIP3    H222656   0.239   2.949  16.626 -0.2492 -2.8316  2.0617
  389TIP3   OH222657   1.497   5.642   3.260 -0.2839  0.7016  0.3005
  389TIP3    H122658   1.583   5.625   3.298 -0.7246  0.4392  1.2039
  389TIP3    H222659   1.455   5.556   3.254 -0.3018  0.7581 -0.6211
  390TIP3   OH222660   4.866   0.572  11.071 -0.2091  0.1689  0.1427
  390TIP3    H122661   4.819   0.645  11.030  0.5528 -0.2697 -1.6231
  390TIP3    H222662   4.802   0.500  11.070 -0.2851  0.2376 -0.0265
  391TIP3   OH222663   5.499   4.190   4.500  0.2794  0.3407 -0.0875
  391TIP3    H122664   5.574   4.247   4.484  0.9824 -0.5471 -0.0759
  391TIP3    H222665   5.533   4.102   4.483 -0.2569 -0.2304  1.6537
  392TIP3   OH222666   3.209   2.947  16.747  0.9547  0.5293  0.3906
  392TIP3    H122667   3.298   2.914  16.759 -0.3948 -3.8840  0.0562
  392TIP3    H222668   3.179   2.966  16.836  1.4995 -0.2037  0.7447
  393TIP3   OH222669   6.414   0.683  13.583  0.3060 -0.9726 -0.4545
  393TIP3    H122670   6.401   0.648  13.495 -0.0001 -1.7202 -0.1223
  393TIP3    H222671   6.327   0.710  13.611  0.4191 -0.6429 -0.4161
  394TIP3   OH222672   1.743   5.469  10.978  0.1228 -0.4080  0.5144
  394TIP3    H122673   1.719   5.425  10.896  2.0891 -1.3165  0.3760
  394TIP3    H222674   1.735   5.401  11.044  1.1339 -0.4171  0.6391
  395TIP3   OH222675   0.944   5.776   1.707  0.0473  0.3849 -0.0057
  395TIP3    H122676   0.880   5.817   1.765  0.4561 -0.5502  1.1438
  395TIP3    H222677   0.996   5.720   1.764  0.9688  0.0198 -1.1581
  396TIP3   OH222678   4.195   6.102   4.715 -0.8544  0.5486  0.0702
  396TIP3    H122679   4.203   6.024   4.769 -2.4897  0.2076 -0.1334
  396TIP3    H222680   4.256   6.089   4.643 -0.2940 -0.0074  0.6366
  397TIP3   OH222681   4.020   5.939   3.486 -0.0365  0.8910 -0.8640
  397TIP3    H122682   4.009   6.025   3.527 -2.2507  0.7865 -1.1038
  397TIP3    H222683   4.051   5.882   3.556  0.6692  1.7060 -0.5041
  398TIP3   OH222684   4.174   2.051  14.124  0.3729 -0.0416 -0.5795
  398TIP3    H122685   4.234   2.000  14.177  0.3532 -0.4955 -0.9909
  398TIP3    H222686   4.087   2.025  14.155  0.3692 -0.0256 -0.5769
  399TIP3   OH222687   4.346   0.318  14.706 -0.3327  0.1913 -0.2298
  399TIP3    H122688   4.378   0.398  14.665  1.7926  1.1964  2.9959
  399TIP3    H222689   4.418   0.255  14.694 -0.9735 -0.4830 -0.6292
  400TIP3   OH222690   4.992   1.985   1.237  0.7174 -0.3577  0.0623
  400TIP3    H122691   5.085   2.009   1.236  0.2657  1.5262 -1.2665
  400TIP3    H222692   4.974   1.966   1.329  2.4118 -0.8423  0.3473
  401TIP3   OH222693   5.461   4.593  13.292 -0.5587 -0.3739  0.4565
  401TIP3    H122694   5.447   4.516  13.347  0.7724 -0.7999  0.2293
  401TIP3    H222695   5.545   4.628  13.321 -0.8263  0.6178  0.0916
  402TIP3   OH222696   5.539   1.141   1.516  0.0600  0.0110  0.1386
  402TIP3    H122697   5.472   1.203   1.543 -0.4971  1.3621 -3.7038
  402TIP3    H222698   5.494   1.057   1.509 -1.1328  0.7523 -1.6719
  403TIP3   OH222699   3.996   0.812  17.026  0.2357  0.1785 -0.1778
  403TIP3    H122700   3.942   0.884  16.995  0.3988 -0.2087 -1.4384
  403TIP3    H222701   3.937   0.736  17.027  0.4199  0.0315 -0.2752
  404TIP3   OH222702   5.796   0.217   5.633 -0.0610 -0.2969  0.0733
  404TIP3    H122703   5.768   0.158   5.703 -0.6810  0.1315  0.1963
  404TIP3    H222704   5.794   0.163   5.554 -2.0066 -0.1141 -0.0616
  405TIP3   OH222705   6.268   4.298   6.134 -0.0229 -0.0637 -0.1328
  405TIP3    H122706   6.342   4.319   6.077 -0.0356 -0.7388 -0.4195
  405TIP3    H222707   6.290   4.337   6.218  0.1197  0.7262 -0.5289
  406TIP3   OH222708   5.148   4.643   0.825 -0.2323 -0.3611 -0.6841
  406TIP3    H122709   5.073   4.673   0.774 -0.0549  2.6704  0.6322
  406TIP3    H222710   5.224   4.662   0.769 -0.2742 -1.0837 -0.9974
  407TIP3   OH222711   3.716   5.560  15.728 -0.1378 -0.3015  0.1099
  407TIP3    H122712   3.648   5.619  15.697 -0.1601 -0.4953 -0.2142
  407TIP3    H222713   3.790   5.616  15.750  0.1803 -0.2295 -1.0848
  408TIP3   OH222714   4.782   0.562  16.218 -0.6558  0.3480  0.2160
  408TIP3    H122715   4.802   0.650  16.249 -1.7129 -0.6972  4.5302
  408TIP3    H222716   4.866   0.516  16.219 -0.4715  0.6859  0.2812
  409TIP3   OH222717   1.026   3.074   4.059 -0.1080 -0.0176 -0.3358
  409TIP3    H122718   1.046   2.985   4.030 -3.0617 -0.7334 -0.5875
  409TIP3    H222719   0.956   3.103   3.999 -1.4677  1.1895  1.6949
  410TIP3   OH222720   3.134   5.560   4.245  0.5146  0.2098  0.0251
  410TIP3    H122721   3.186   5.599   4.174  0.8061  0.1918  0.2249
  410TIP3    H222722   3.193   5.560   4.320 -0.0013  0.8239  0.4398
  411TIP3   OH222723   4.976   4.913  15.182  0.4530  0.0583  0.4608
  411TIP3    H122724   5.039   4.951  15.244  0.3623 -0.2224  0.7238
  411TIP3    H222725   5.004   4.947  15.097  0.0115  1.2231  0.7546
  412TIP3   OH222726   1.179   4.423  13.911 -0.1309  0.1182  0.3716
  412TIP3    H122727   1.272   4.435  13.930 -0.5477  1.8963  1.6019
  412TIP3    H222728   1.145   4.376  13.988 -0.4114  0.2422  0.3250
  413TIP3   OH222729   3.508   5.336  16.005 -0.6036  0.5047  0.2968
  413TIP3    H122730   3.598   5.304  15.995 -0.3142  1.3917  0.0076
  413TIP3    H222731   3.457   5.282  15.944 -0.6960 -1.6078  2.1336
  414TIP3   OH222732   3.829   1.222   0.346  0.0494 -0.0698 -0.3314
  414TIP3    H122733   3.764   1.205   0.279  0.4105  1.2212 -1.0345
  414TIP3    H222734   3.829   1.143   0.400  0.4910 -1.5925 -2.4295
  415TIP3   OH222735   3.726   3.915  14.441 -0.2401 -0.1417 -0.0655
  415TIP3    H122736   3.642   3.874  14.422  0.0116 -0.3367 -0.7901
  415TIP3    H222737   3.704   4.002  14.474 -0.7285 -0.2698 -0.0587
  416TIP3   OH222738   3.469   2.050   4.494 -0.7166 -0.0853  0.4745
  416TIP3    H122739   3.516   2.084   4.418  0.2538 -2.4971 -0.1123
  416TIP3    H222740   3.452   2.126   4.549 -2.3225  1.9487 -2.5617
  417TIP3   OH222741   2.667   4.213  15.400  0.2937 -0.0497  0.8017
  417TIP3    H122742   2.692   4.163  15.322  0.5792 -0.1756  0.9691
  417TIP3    H222743   2.656   4.303  15.369 -0.9129 -0.3350  0.3652
  418TIP3   OH222744   1.938   1.589   3.770  0.1119  0.2047 -0.2993
  418TIP3    H122745   1.877   1.661   3.754  0.9341  0.9233 -0.2501
  418TIP3    H222746   1.967   1.563   3.682  0.9413  0.9292 -0.2493
  419TIP3   OH222747   0.676   3.963  17.148 -0.2475  0.1982 -0.8499
  419TIP3    H122748   0.740   3.897  17.125  0.9363  1.1451 -0.3824
  419TIP3    H222749   0.649   3.941  17.237 -1.4489 -0.8512 -1.4471
  420TIP3   OH222750   5.691   5.969   1.066  0.1371  0.2315  0.4126
  420TIP3    H122751   5.784   5.952   1.049 -0.4439 -1.3973 -1.5691
  420TIP3    H222752   5.657   5.884   1.095 -0.9380  0.5076  0.0079
  421TIP3   OH222753   1.754   6.687   4.686 -0.1668 -0.1179 -0.0269
  421TIP3    H122754   1.802   6.722   4.761 -0.5013 -0.8155  0.5284
  421TIP3    H222755   1.800   6.722   4.610  1.1550 -0.6721  0.4893
  422TIP3   OH222756   5.575   6.618  14.696 -0.0928  0.1237 -0.0846
  422TIP3    H122757   5.636   6.551  14.725 -1.6339 -0.8775  0.9891
  422TIP3    H222758   5.559   6.598  14.603 -0.6706 -1.1480  0.2619
  423TIP3   OH222759   0.125   3.381   0.685  1.0097  0.2732 -0.5064
  423TIP3    H122760   0.119   3.452   0.620  0.8020 -1.0860 -2.0415
  423TIP3    H222761   0.057   3.319   0.658  0.4118 -0.0108  1.4851
  424TIP3   OH222762   6.774   0.881  17.068 -0.0624 -0.1741  0.2363
  424TIP3    H122763   6.733   0.953  17.116  0.0182  0.8824 -1.2055
  424TIP3    H222764   6.703   0.821  17.049 -0.8859  1.2895 -1.6272
  425TIP3   OH222765   6.466   4.711   2.156 -0.0321 -0.0359  0.0575
  425TIP3    H122766   6.548   4.703   2.203 -0.3125  1.7582  0.9134
  425TIP3    H222767   6.405   4.654   2.204  0.3270 -0.2135  0.3076
  426TIP3   OH222768   3.449   5.218  17.228 -0.1096  0.2315  0.6945
  426TIP3    H122769   3.434   5.131  17.265  0.7894  0.3345  1.3424
  426TIP3    H222770   3.540   5.216  17.200 -0.2722  0.7576  0.1202
  427TIP3   OH222771   1.685   6.600  12.295 -0.2443 -0.2002  0.0804
  427TIP3    H122772   1.590   6.593  12.297 -0.1726 -2.3188 -0.9618
  427TIP3    H222773   1.705   6.630  12.206  0.0614  0.1860  0.2795
  428TIP3   OH222774   3.284   5.880  14.885  0.1900 -0.7641  0.4855
  428TIP3    H122775   3.254   5.800  14.841  0.6143 -0.9567  0.5460
  428TIP3    H222776   3.379   5.875  14.882  0.2519 -1.2804  2.3140
  429TIP3   OH222777   1.321   1.377   3.759  0.0268 -0.0333 -0.1377
  429TIP3    H122778   1.280   1.459   3.732 -2.0560 -0.8241  0.3802
  429TIP3    H222779   1.288   1.312   3.696  0.4278 -0.7253  0.3492
  430TIP3   OH222780   5.017   2.368   2.924 -0.0264  0.1363 -0.4606
  430TIP3    H122781   5.067   2.450   2.922  0.5036 -0.1139  1.0386
  430TIP3    H222782   5.071   2.308   2.977 -1.2559 -0.5906  0.0196
  431TIP3   OH222783   1.492   5.379  13.134 -0.1476  0.4882 -0.1057
  431TIP3    H122784   1.450   5.336  13.209  0.3242 -0.5533 -0.4134
  431TIP3    H222785   1.497   5.311  13.068 -0.5658  1.4052 -1.1060
  432TIP3   OH222786   6.669   5.391  13.861 -0.0724  0.1127  0.0093
  432TIP3    H122787   6.586   5.419  13.822 -0.2423  0.6489  0.7438
  432TIP3    H222788   6.655   5.398  13.955  0.8087  0.2173  0.1410
  433TIP3   OH222789   4.469   1.592  17.168 -0.0499 -0.1135 -0.2215
  433TIP3    H122790   4.486   1.686  17.174 -1.5765  0.1991 -0.3888
  433TIP3    H222791   4.411   1.582  17.093 -1.2208 -0.9795  0.7528
  434TIP3   OH222792   5.722   5.874  15.574 -0.0111  0.7587  0.1475
  434TIP3    H122793   5.675   5.797  15.605 -1.0060  0.5177 -1.8088
  434TIP3    H222794   5.814   5.847  15.570 -0.4488 -0.6451 -1.3285
  435TIP3   OH222795   0.169   3.806  15.667 -0.2363 -0.1577  0.0834
  435TIP3    H122796   0.248   3.794  15.720 -0.3174 -2.1747 -0.1942
  435TIP3    H222797   0.172   3.898  15.641  1.1022  0.2433  1.5158
  436TIP3   OH222798   0.721   5.826  15.992 -0.0633  0.1411 -0.3600
  436TIP3    H122799   0.777   5.881  15.936 -1.0371  1.2109 -0.3283
  436TIP3    H222800   0.725   5.868  16.078 -0.5467 -0.0505 -0.2447
  437TIP3   OH222801   1.475   3.039  15.668 -0.4949  0.2712  0.5474
  437TIP3    H122802   1.394   3.057  15.621  0.4103  2.9022 -0.1995
  437TIP3    H222803   1.486   3.114  15.727  0.6208 -0.7993  1.7567
  438TIP3   OH222804   6.696   5.197   5.613  0.3068  0.1941  0.0192
  438TIP3    H122805   6.779   5.202   5.661 -0.4780  1.0172  1.3520
  438TIP3    H222806   6.721   5.187   5.522  1.8792  0.9926  0.3373
  439TIP3   OH222807   3.548   0.049   6.232  0.0543 -0.5092  0.3919
  439TIP3    H122808   3.523   0.039   6.140 -0.3238  0.5160  0.3718
  439TIP3    H222809   3.572  -0.039   6.260  0.2150 -0.8316 -0.6998
  440TIP3   OH222810   5.431   0.064  15.422  0.2650 -0.0426  0.2556
  440TIP3    H122811   5.446   0.042  15.330 -0.2258  0.2705  0.0976
  440TIP3    H222812   5.339   0.041  15.437  0.0233  0.9625  0.3563
  441TIP3   OH222813   3.263   3.407   3.550  0.0863 -0.6676 -0.3811
  441TIP3    H122814   3.251   3.441   3.461  1.8690  0.2101 -0.3373
  441TIP3    H222815   3.304   3.321   3.538  0.6988 -0.3793 -0.4366
  442TIP3   OH222816   4.021   2.723   3.118 -0.2360 -0.0790 -0.4750
  442TIP3    H122817   4.092   2.730   3.054 -2.4239 -0.6972 -3.1418
  442TIP3    H222818   4.014   2.630   3.138 -0.6334 -0.0835 -0.6243
  443TIP3   OH222819   3.811   5.385  13.392  0.5732 -0.2356 -0.3371
  443TIP3    H122820   3.780   5.333  13.466  0.1869  0.5888  0.0985
  443TIP3    H222821   3.854   5.322  13.335 -0.2712 -1.1019 -0.0434
  444TIP3   OH222822   2.488   0.712  12.932  0.7775 -0.1778  0.1465
  444TIP3    H122823   2.514   0.656  12.859  1.1439 -1.3738  1.1656
  444TIP3    H222824   2.571   0.737  12.974  0.6644  1.5196 -0.5263
  445TIP3   OH222825   4.870   5.041  16.326  0.5562 -0.4286  0.1688
  445TIP3    H122826   4.890   4.949  16.313 -0.3496 -0.6986  0.6210
  445TIP3    H222827   4.940   5.088  16.281  0.4911 -1.3309 -0.8912
  446TIP3   OH222828   3.184   2.281  12.212  0.7679 -0.3271 -0.6853
  446TIP3    H122829   3.140   2.356  12.252  0.4849 -1.0977  0.4688
  446TIP3    H222830   3.195   2.307  12.120 -0.2954  0.6860 -0.5536
  447TIP3   OH222831   6.679   6.149  14.757 -0.0901  0.3270  0.0768
  447TIP3    H122832   6.645   6.071  14.712  1.3134 -0.2023 -0.1284
  447TIP3    H222833   6.767   6.160  14.722  0.3942  0.9522  1.4227
  448TIP3   OH222834   4.829   5.015   2.690  0.9962  0.2368 -0.4636
  448TIP3    H122835   4.880   4.935   2.689  3.1720  1.5413 -0.4082
  448TIP3    H222836   4.820   5.039   2.597  0.4692  0.0223 -0.4725
  449TIP3   OH222837   2.026   6.435  12.935 -0.5717 -0.0934  0.5339
  449TIP3    H122838   2.027   6.530  12.930  2.5372 -0.0717 -0.8642
  449TIP3    H222839   1.934   6.411  12.924 -1.2285  2.6586 -0.9096
  450TIP3   OH222840   5.310   6.349  12.415 -0.5339 -0.1899  0.0500
  450TIP3    H122841   5.401   6.341  12.443 -0.0641  1.4953 -0.8529
  450TIP3    H222842   5.272   6.263  12.431  1.0071 -0.7066  1.1504
  451TIP3   OH222843   1.468   6.488  13.477 -0.6574  0.0322 -0.1749
  451TIP3    H122844   1.430   6.571  13.449  0.6760  0.5199 -0.5900
  451TIP3    H222845   1.451   6.429  13.404  0.6049  0.6367 -0.9937
  452TIP3   OH222846   3.837   3.650   0.866 -0.9852  0.0162  0.1789
  452TIP3    H122847   3.823   3.707   0.942 -0.8178 -0.7523  0.7923
  452TIP3    H222848   3.812   3.563   0.896  0.7365 -0.6167 -0.1038
  453TIP3   OH222849   1.931   0.662   1.266 -0.6210 -0.7647 -0.1498
  453TIP3    H122850   1.925   0.603   1.340 -0.1449 -0.3666  0.2087
  453TIP3    H222851   2.008   0.716   1.283  0.0439 -1.2895 -1.3872
  454TIP3   OH222852   0.542   2.452   3.167  0.1544  0.2165  0.5457
  454TIP3    H122853   0.602   2.479   3.236  0.2967 -0.6575  0.7765
  454TIP3    H222854   0.460   2.496   3.188  0.2260  0.0394  1.2114
  455TIP3   OH222855   0.308   2.368  11.747 -0.5214 -0.0369 -0.2000
  455TIP3    H122856   0.375   2.436  11.758 -3.3374  2.6044  2.3221
  455TIP3    H222857   0.333   2.300  11.810 -0.9017  1.6292  1.8681
  456TIP3   OH222858   2.388   3.814   5.721 -0.1199  0.2976  0.1253
  456TIP3    H122859   2.460   3.798   5.660 -0.0271  0.4146  0.2024
  456TIP3    H222860   2.391   3.740   5.781  0.4171  0.6780  0.5843
  457TIP3   OH222861   2.968   5.794  17.222  0.1150  0.3030 -0.2223
  457TIP3    H122862   2.949   5.861  17.287 -2.1162 -1.7328  1.4387
  457TIP3    H222863   2.966   5.840  17.138  0.0985  2.5022  0.9229
  458TIP3   OH222864   4.984   5.632  10.770 -0.0257 -0.4142 -0.0158
  458TIP3    H122865   4.907   5.606  10.820  0.3095 -1.1022  0.1645
  458TIP3    H222866   4.980   5.579  10.690  0.5707 -0.9098  0.2704
  459TIP3   OH222867   0.688   4.963   5.427 -0.4467 -0.1898 -0.4509
  459TIP3    H122868   0.696   4.956   5.522 -4.4073  0.1632  0.0949
  459TIP3    H222869   0.635   5.041   5.413  0.7203  0.2471 -3.0550
  460TIP3   OH222870   1.446   5.141  16.448 -0.2957 -0.5243 -0.3224
  460TIP3    H122871   1.423   5.199  16.376  1.0914 -0.1900 -0.5306
  460TIP3    H222872   1.387   5.166  16.520  0.9937  1.9538 -0.0248
  461TIP3   OH222873   1.258   0.536  17.134 -0.6295 -0.0949  0.0787
  461TIP3    H122874   1.344   0.578  17.131 -0.6616 -0.0821 -0.9995
  461TIP3    H222875   1.277   0.443  17.130 -0.6957 -0.0631 -1.2598
  462TIP3   OH222876   2.262   6.670  12.702  0.4411  0.5378 -0.0182
  462TIP3    H122877   2.178   6.659  12.658 -0.0417  2.3801  0.3367
  462TIP3    H222878   2.295   6.581  12.715 -0.8201 -0.1577 -1.3442
  463TIP3   OH222879   1.406   4.868   4.111  0.2769 -0.3544  0.1731
  463TIP3    H122880   1.314   4.872   4.088  0.4096 -1.4436 -0.6504
  463TIP3    H222881   1.412   4.793   4.171  0.6658 -0.5161 -0.0632
  464TIP3   OH222882   6.103   6.324  16.151  0.2683  0.1680 -0.2201
  464TIP3    H122883   6.178   6.299  16.205 -0.4851  0.5579  1.0292
  464TIP3    H222884   6.061   6.242  16.128  0.0695  0.0472  0.5579
  465TIP3   OH222885   2.239   6.002   4.978 -0.1552 -0.0667  0.6020
  465TIP3    H122886   2.167   6.014   5.040 -0.8116 -1.4684  0.1454
  465TIP3    H222887   2.245   5.907   4.966 -0.5703  0.1841 -2.0733
  466TIP3   OH222888   0.000   5.858   5.410  0.3376 -0.2979  0.0432
  466TIP3    H122889  -0.040   5.821   5.331  2.1934 -0.2820 -0.9653
  466TIP3    H222890  -0.021   5.795   5.479 -1.0533 -0.4738 -0.4992
  467TIP3   OH222891   3.107   6.102   5.342  0.0794 -0.1549 -0.1837
  467TIP3    H122892   3.088   6.120   5.434 -0.0241 -1.5481  0.0897
  467TIP3    H222893   3.203   6.109   5.335  0.0034  1.0305 -0.2338
  468TIP3   OH222894   1.415   0.280  14.646 -0.0857 -0.4938  0.1753
  468TIP3    H122895   1.509   0.265  14.648 -0.1504 -0.8939  0.4333
  468TIP3    H222896   1.385   0.254  14.733 -0.1831  1.3985  0.7451
  469TIP3   OH222897   0.370   0.483  16.268 -0.5344  0.7748 -0.1575
  469TIP3    H122898   0.387   0.416  16.202 -1.3251 -0.9480  1.3278
  469TIP3    H222899   0.283   0.517  16.245 -0.3385  0.9635 -0.6307
  470TIP3   OH222900   2.033   3.320   3.998 -0.1176 -0.0701 -0.1586
  470TIP3    H122901   2.103   3.359   3.945  0.9807  1.8539  2.4849
  470TIP3    H222902   2.042   3.226   3.983  3.1722  0.0766  0.1108
  471TIP3   OH222903   2.054   1.590  15.861 -0.4012  0.7409 -0.2548
  471TIP3    H122904   2.011   1.602  15.946 -2.2908 -0.6227 -0.9690
  471TIP3    H222905   2.053   1.495  15.847  0.0592  0.9391 -1.7231
  472TIP3   OH222906   6.379   0.629   4.862  0.0308  0.9375  0.4073
  472TIP3    H122907   6.385   0.619   4.956 -1.1805  0.5588  0.4676
  472TIP3    H222908   6.453   0.685   4.838 -0.2983  1.9856  1.7286
  473TIP3   OH222909   1.100   3.798   2.145 -0.3313 -0.0627 -0.0249
  473TIP3    H122910   1.165   3.863   2.117  1.0881 -1.0679  0.7665
  473TIP3    H222911   1.142   3.753   2.218 -0.9725 -2.3072 -0.9601
  474TIP3   OH222912   5.034   4.924  13.331  0.3698  0.3780 -0.2273
  474TIP3    H122913   4.988   4.867  13.269  0.2620  0.5314 -0.2879
  474TIP3    H222914   5.127   4.903  13.319  0.5320  1.8097 -1.8756
  475TIP3   OH222915   1.039   6.723   2.151  0.1345 -0.5458 -0.4547
  475TIP3    H122916   1.088   6.676   2.083 -1.1169 -0.5745 -1.3787
  475TIP3    H222917   1.099   6.728   2.225  1.8710  0.2266 -1.8350
  476TIP3   OH222918   6.680   1.738  12.084 -0.4292 -0.1327 -0.9744
  476TIP3    H122919   6.672   1.651  12.124 -0.3765  0.2329 -0.1587
  476TIP3    H222920   6.740   1.724  12.010 -1.0343 -0.9442 -1.3363
  477TIP3   OH222921   4.392   5.976  13.515  0.6213  0.1871 -0.9041
  477TIP3    H122922   4.338   5.897  13.526  0.3130  0.2970 -1.5661
  477TIP3    H222923   4.482   5.943  13.514  0.4367 -0.3758 -2.7564
  478TIP3   OH222924   1.054   3.330  14.674 -0.0366 -0.0080  0.7078
  478TIP3    H122925   0.998   3.268  14.721  0.9082 -0.6410  1.0148
  478TIP3    H222926   0.998   3.364  14.604 -0.6378 -1.0117  0.6852
  479TIP3   OH222927   5.520   1.939  11.517 -0.8979 -0.1145  0.0013
  479TIP3    H122928   5.550   2.012  11.571  0.4621 -0.0268 -0.8169
  479TIP3    H222929   5.483   1.877  11.579 -1.1185  0.8152  0.8248
  480TIP3   OH222930   2.443   2.807  16.395 -0.0093  0.1394 -0.0259
  480TIP3    H122931   2.394   2.823  16.476 -1.1713  0.3455 -0.7395
  480TIP3    H222932   2.430   2.714  16.378 -0.1638  0.2004 -0.2327
  481TIP3   OH222933   6.569   3.340  11.691 -0.0314 -0.7924 -0.2222
  481TIP3    H122934   6.653   3.310  11.657 -0.5844  0.4980 -2.9798
  481TIP3    H222935   6.591   3.416  11.745  0.6569 -1.3999  0.3832
  482TIP3   OH222936   3.882   2.400  15.037  0.4360  0.1864  0.0509
  482TIP3    H122937   3.970   2.413  15.000  0.5333  0.0462  0.2340
  482TIP3    H222938   3.823   2.420  14.964  0.5512  2.2608  0.4582
  483TIP3   OH222939   5.524   6.620   5.678 -0.2439  0.5909  0.2295
  483TIP3    H122940   5.483   6.597   5.761 -1.7158 -0.1863 -0.6624
  483TIP3    H222941   5.590   6.552   5.664 -0.6635  0.1679  0.3017
  484TIP3   OH222942   3.980   4.281   3.011  0.2124  0.0122  0.2407
  484TIP3    H122943   3.933   4.361   2.988 -0.0359 -1.0240 -3.6254
  484TIP3    H222944   3.913   4.222   3.044 -0.1146  0.4298  0.3299
  485TIP3   OH222945   3.151   1.819   4.980  0.2742  0.3676 -0.0190
  485TIP3    H122946   3.125   1.793   4.892 -0.0080  2.4262 -0.5789
  485TIP3    H222947   3.208   1.895   4.968 -1.2312  1.8506  1.6141
  486TIP3   OH222948   0.524   0.600   3.746 -0.1733  0.7813  0.1770
  486TIP3    H122949   0.469   0.668   3.784 -0.9630  0.1297  0.2318
  486TIP3    H222950   0.514   0.525   3.805 -0.6546  0.0740 -0.7657
  487TIP3   OH222951   3.222   2.905  17.432 -0.0284 -0.1226  0.0168
  487TIP3    H122952   3.219   2.956  17.351 -1.6460 -1.8450 -1.0967
  487TIP3    H222953   3.149   2.844  17.424  0.4082 -1.0353  2.3374
  488TIP3   OH222954   3.930   1.390   3.487 -0.4229 -0.4661  0.1086
  488TIP3    H122955   3.897   1.302   3.504  1.4994 -1.2037  0.3512
  488TIP3    H222956   3.923   1.435   3.572 -2.2674 -0.0222 -0.2296
  489TIP3   OH222957   5.905   1.394  16.182 -0.2136 -0.0269  0.0698
  489TIP3    H122958   5.828   1.347  16.216 -1.3883  1.6966 -0.1092
  489TIP3    H222959   5.911   1.472  16.237  1.9633 -0.5368  0.6413
  490TIP3   OH222960   0.791   3.802   5.290  0.1182  0.8187  0.1272
  490TIP3    H122961   0.740   3.872   5.331  0.4815  1.7870 -1.0348
  490TIP3    H222962   0.825   3.841   5.209  1.5685 -0.2336  0.1957
  491TIP3   OH222963   6.587   0.911  14.823  0.4156 -0.3476 -0.0497
  491TIP3    H122964   6.610   0.959  14.744 -0.3151  0.7349  0.3653
  491TIP3    H222965   6.631   0.826  14.814  1.2159  0.1612 -1.0997
  492TIP3   OH222966   3.146   5.926   4.834  0.2088 -0.0383 -0.2400
  492TIP3    H122967   3.092   6.004   4.819  0.1050  0.2226  1.2972
  492TIP3    H222968   3.083   5.854   4.835  0.0002  0.1435  0.5448
  493TIP3   OH222969   1.515   4.318   0.823  0.0735 -0.1301 -0.4468
  493TIP3    H122970   1.578   4.282   0.762 -1.3072 -0.6913 -1.5988
  493TIP3    H222971   1.558   4.396   0.859  0.5107  0.9533 -3.0525
  494TIP3   OH222972   4.557   0.276   3.300 -0.2704  0.2468 -0.3445
  494TIP3    H122973   4.637   0.251   3.347 -0.8073 -2.5294 -0.7312
  494TIP3    H222974   4.585   0.284   3.209 -0.3366 -0.3357 -0.4206
  495TIP3   OH222975   2.890   6.013  15.828  0.2613  0.4167  0.0132
  495TIP3    H122976   2.946   6.008  15.905 -1.9473  1.1451  1.7701
  495TIP3    H222977   2.858   5.923  15.815  2.2686 -0.1492 -1.4268
  496TIP3   OH222978   5.432   0.268   1.736  0.4028 -0.7745 -0.1090
  496TIP3    H122979   5.438   0.354   1.778  2.7123 -0.5729 -0.6833
  496TIP3    H222980   5.431   0.288   1.642  1.0960 -1.3576 -0.2470
  497TIP3   OH222981   1.078   6.518   3.046  0.0865  0.0060  0.1725
  497TIP3    H122982   1.132   6.498   2.969  1.3486 -2.0680  1.5096
  497TIP3    H222983   1.001   6.563   3.010  0.9898 -0.2018 -2.1978
  498TIP3   OH222984   2.544   6.481   3.733 -0.3581  0.1263  0.2245
  498TIP3    H122985   2.539   6.568   3.693 -0.8388 -0.1549 -0.3532
  498TIP3    H222986   2.637   6.463   3.742 -0.2560  0.6361  0.2012
  499TIP3   OH222987   3.574   4.354  17.089 -0.4006  0.3327 -0.0131
  499TIP3    H122988   3.616   4.270  17.109 -0.0901  0.7979  1.4757
  499TIP3    H222989   3.637   4.400  17.033 -0.1017 -0.0211  0.0302
  500TIP3   OH222990   1.237   1.029  12.195 -0.3898  0.6302 -0.4740
  500TIP3    H122991   1.171   0.975  12.149  0.9403 -4.0209  2.3772
  500TIP3    H222992   1.192   1.058  12.274  0.5605 -2.0401  1.1754
  501TIP3   OH222993   5.852   0.164  10.397 -0.2626  0.3644 -0.2104
  501TIP3    H122994   5.846   0.253  10.433 -0.5866 -0.3733  1.6419
  501TIP3    H222995   5.789   0.113  10.448 -0.4654 -0.8294 -1.6072
  502TIP3   OH222996   4.617   5.114  16.185 -0.0989 -0.0576 -0.6272
  502TIP3    H122997   4.690   5.076  16.234 -0.7707 -0.8477 -0.2222
  502TIP3    H222998   4.649   5.199  16.157  0.1308  0.6682  1.6525
  503TIP3   OH222999   2.366   4.840   3.972 -0.1521 -0.5915  0.6661
  503TIP3    H123000   2.444   4.878   3.933  0.0157 -1.6046 -0.0134
  503TIP3    H223001   2.301   4.840   3.902 -0.1796 -1.4589  0.6822
  504TIP3   OH223002   1.524   6.242   0.776 -0.1296  0.1180  0.2463
  504TIP3    H123003   1.474   6.284   0.706 -0.5049  0.6727  0.8452
  504TIP3    H223004   1.520   6.303   0.849  2.8368  1.0367 -0.1914
  505TIP3   OH223005   6.285   3.683   3.713 -0.1957  0.2120  0.3025
  505TIP3    H123006   6.209   3.626   3.718  0.6888 -0.9382  1.1583
  505TIP3    H223007   6.283   3.718   3.624 -0.6664 -1.3158 -0.3215
  506TIP3   OH223008   1.284   1.979  11.654 -0.4816 -0.2437 -0.6216
  506TIP3    H123009   1.211   1.941  11.606 -1.0318  0.7226 -0.5854
  506TIP3    H223010   1.362   1.944  11.611 -0.9649 -0.3499 -1.4323
  507TIP3   OH223011   0.386   3.249  11.310  0.0053 -0.1385 -0.1912
  507TIP3    H123012   0.348   3.161  11.317  0.8502 -0.5174 -0.2104
  507TIP3    H223013   0.479   3.233  11.293  0.3653  0.7509  0.8187
  508TIP3   OH223014   3.159   4.859   2.759 -0.6106  0.3018  0.1663
  508TIP3    H123015   3.179   4.952   2.756  0.1100  0.1391 -0.7282
  508TIP3    H223016   3.165   4.835   2.851 -0.2632  1.0324  0.3345
  509TIP3   OH223017   5.137   3.875   0.189  0.2515  0.6022  0.1820
  509TIP3    H123018   5.081   3.953   0.189 -0.2258  0.2699 -0.4584
  509TIP3    H223019   5.163   3.864   0.098 -1.1973 -1.0249 -0.0909
  510TIP3   OH223020   5.534   4.552   5.587  0.1378 -0.3690 -0.2598
  510TIP3    H123021   5.503   4.642   5.578  1.0671  0.2202  1.7967
  510TIP3    H223022   5.610   4.547   5.530 -0.1429  0.0234 -0.6772
  511TIP3   OH223023   4.417   2.535  16.679 -0.1608  0.0349 -0.4377
  511TIP3    H123024   4.506   2.547  16.646  0.3776 -1.0943  0.5207
  511TIP3    H223025   4.361   2.575  16.612  1.0553  0.7677 -1.0549
  512TIP3   OH223026   4.796   4.443  14.790  0.2901 -0.4086 -0.1399
  512TIP3    H123027   4.717   4.474  14.747 -0.3316 -1.8661 -0.1110
  512TIP3    H223028   4.764   4.388  14.861  1.3159  0.6782  1.2316
  513TIP3   OH223029   5.235   2.402  13.410  0.2650  0.2373 -0.3086
  513TIP3    H123030   5.249   2.446  13.494  1.3242  1.2578 -0.9960
  513TIP3    H223031   5.145   2.425  13.387  0.0644  0.2027  0.4005
  514TIP3   OH223032   5.373   4.775   0.765 -0.1563  0.0358  0.0774
  514TIP3    H123033   5.411   4.696   0.726  0.8061 -0.0274  1.0847
  514TIP3    H223034   5.423   4.788   0.846  0.6986  2.5029 -0.7632
  515TIP3   OH223035   5.454   4.863   4.650  0.0664 -0.1408  0.1999
  515TIP3    H123036   5.406   4.814   4.716 -0.2783  1.5223  1.2306
  515TIP3    H223037   5.412   4.949   4.648  0.7749  0.2114 -1.4100
  516TIP3   OH223038   3.626   0.091   5.523  0.1221  0.1150 -0.3091
  516TIP3    H123039   3.639   0.020   5.585 -1.4858 -0.4105 -0.5390
  516TIP3    H223040   3.559   0.147   5.563 -0.6538 -0.0228 -1.3608
  517TIP3   OH223041   1.234   5.202  11.508  1.2302 -0.2559 -0.2966
  517TIP3    H123042   1.239   5.174  11.600 -1.3097  0.7024  0.1958
  517TIP3    H223043   1.184   5.133  11.465  0.9621  0.1336 -0.6026
  518TIP3   OH223044   2.327   5.029   4.535  0.0744 -0.2111 -0.1544
  518TIP3    H123045   2.413   5.071   4.535 -1.0405  2.2417 -0.4052
  518TIP3    H223046   2.269   5.092   4.577 -1.6160 -1.8633  0.1616
  519TIP3   OH223047   1.511   0.166   5.093 -0.2325 -0.2932  0.1863
  519TIP3    H123048   1.481   0.117   5.169 -1.8831 -1.2978 -1.0253
  519TIP3    H223049   1.568   0.105   5.047 -0.3842 -0.2189 -0.1041
  520TIP3   OH223050   0.868   3.073   0.390 -0.2759 -0.6116  0.2658
  520TIP3    H123051   0.960   3.099   0.388 -0.4676  0.1937  1.1315
  520TIP3    H223052   0.829   3.115   0.313 -0.4867  1.4411  1.3997
  521TIP3   OH223053   6.433   1.109  13.352  0.2284 -0.1903 -0.0832
  521TIP3    H123054   6.439   1.090  13.446 -1.2340  1.2845  0.3591
  521TIP3    H223055   6.508   1.064  13.314  0.7711 -0.9633  1.7680
  522TIP3   OH223056   0.956   4.012  11.674  0.0606  0.3699 -0.1537
  522TIP3    H123057   1.023   3.948  11.649  0.2091 -0.0724  1.2734
  522TIP3    H223058   0.876   3.981  11.631 -0.0970 -1.3685  1.2485
  523TIP3   OH223059   4.189   3.505   3.767  0.4315  0.3524  0.3617
  523TIP3    H123060   4.188   3.426   3.821 -0.9149 -0.4847 -0.8325
  523TIP3    H223061   4.281   3.517   3.744  0.6781 -0.7708  0.6978
  524TIP3   OH223062   0.417   1.269  16.186  0.0506 -0.1711  0.6529
  524TIP3    H123063   0.402   1.275  16.091  1.3115 -0.7884  0.3936
  524TIP3    H223064   0.379   1.349  16.221  1.0814  0.9250 -0.5889
  525TIP3   OH223065   2.482   4.984   3.725 -0.2287 -0.0046 -0.7253
  525TIP3    H123066   2.462   5.059   3.781  1.1849 -0.9359  1.1335
  525TIP3    H223067   2.437   5.003   3.642 -1.7998  1.7743  0.4551
  526TIP3   OH223068   4.403   1.229   4.061 -0.4601  0.7287  0.0098
  526TIP3    H123069   4.487   1.185   4.074 -1.2740 -0.9706 -0.2252
  526TIP3    H223070   4.340   1.174   4.107 -1.5626  1.5438 -0.4844
  527TIP3   OH223071   3.519   6.006  14.475  0.0074 -0.2758 -0.3260
  527TIP3    H123072   3.505   6.086  14.424  1.8216  1.0372  1.0958
  527TIP3    H223073   3.435   5.960  14.470 -1.6425  2.4303  0.0260
  528TIP3   OH223074   4.121   1.883  16.024  0.6039  0.2278 -0.2008
  528TIP3    H123075   4.031   1.896  15.995  0.1637 -0.5013  0.7864
  528TIP3    H223076   4.169   1.857  15.945 -0.6766 -2.3230 -0.2202
  529TIP3   OH223077   1.516   4.262  17.137  0.5334  0.3264  0.7444
  529TIP3    H123078   1.423   4.240  17.145  0.5467 -0.6740 -1.1463
  529TIP3    H223079   1.559   4.214  17.207 -0.0688 -1.7092 -0.2053
  530TIP3   OH223080   0.519   2.537  13.731  0.0392  0.5098 -0.2308
  530TIP3    H123081   0.566   2.620  13.737 -0.1709  0.5252  2.0619
  530TIP3    H223082   0.489   2.520  13.821 -1.3554 -1.2170 -0.9761
  531TIP3   OH223083   6.622   3.929  15.209 -0.3344  0.5521  0.5894
  531TIP3    H123084   6.604   4.023  15.219 -1.0936  0.4105  0.6070
  531TIP3    H223085   6.681   3.923  15.134  1.9295  1.2721  2.1927
  532TIP3   OH223086   4.996   1.097   2.021  0.6344 -0.4640 -0.3084
  532TIP3    H123087   5.045   1.117   2.101  0.9259  1.9941 -1.0063
  532TIP3    H223088   5.010   1.004   2.007 -0.4043 -1.2825  3.1055
  533TIP3   OH223089   6.486   1.365   4.088  0.4268  0.1336 -0.7654
  533TIP3    H123090   6.490   1.275   4.120 -1.3246  0.5550  0.7747
  533TIP3    H223091   6.571   1.403   4.111  0.9881 -0.9477 -0.9798
  534TIP3   OH223092   5.101   6.518  11.217  0.1226  0.0372 -0.0592
  534TIP3    H123093   5.029   6.523  11.154 -0.1200  2.2460  0.3085
  534TIP3    H223094   5.104   6.605  11.256  2.9996  0.0324 -0.0529
  535TIP3   OH223095   3.842   6.270   3.850  0.2385  0.1558  0.0954
  535TIP3    H123096   3.747   6.270   3.858  0.1474 -1.1214 -0.7992
  535TIP3    H223097   3.867   6.362   3.861 -1.1119  0.5386  0.0882
  536TIP3   OH223098   5.756   5.482   5.656  0.1856  0.0532 -0.2502
  536TIP3    H123099   5.691   5.513   5.719 -1.0917 -0.0597 -1.4813
  536TIP3    H223100   5.820   5.554   5.650  0.2443  0.1290  1.0226
  537TIP3   OH223101   3.413   4.596   6.462 -0.0140  0.4455 -0.6025
  537TIP3    H123102   3.468   4.671   6.440 -2.0124  1.8352 -1.1623
  537TIP3    H223103   3.455   4.521   6.419  0.8895  1.6155 -1.8120
  538TIP3   OH223104   6.262   0.687   0.741  0.4165  0.2593 -0.1146
  538TIP3    H123105   6.311   0.611   0.711  1.8620  0.9424  0.4336
  538TIP3    H223106   6.327   0.757   0.748 -0.8610  1.5601 -0.5944
  539TIP3   OH223107   4.116   3.974  12.307  0.1195  0.5693  0.7600
  539TIP3    H123108   4.212   3.977  12.314  0.1007  0.3107  1.1926
  539TIP3    H223109   4.085   3.985  12.397 -0.1545 -3.1049  1.2908
  540TIP3   OH223110   1.043   3.739   5.876  0.2562  0.4091  0.2175
  540TIP3    H123111   0.959   3.771   5.907  0.4041 -0.2711  1.3653
  540TIP3    H223112   1.107   3.802   5.910  0.4523 -0.5264  1.6444
  541TIP3   OH223113   4.476   4.396   2.519 -0.9685 -0.4192  1.5448
  541TIP3    H123114   4.454   4.312   2.559 -1.2071 -0.5008  1.2514
  541TIP3    H223115   4.511   4.449   2.591 -1.5506 -0.5019  1.8950
  542TIP3   OH223116   2.860   2.837   3.811  0.4205  0.0554  0.1892
  542TIP3    H123117   2.849   2.752   3.769 -2.3174  0.8307 -0.8291
  542TIP3    H223118   2.774   2.879   3.805  1.6839  2.9481  0.5745
  543TIP3   OH223119   0.781   3.441   5.501  0.2601  0.5597 -0.0654
  543TIP3    H123120   0.804   3.349   5.510 -1.2126  0.2443  0.8940
  543TIP3    H223121   0.862   3.484   5.474  0.9676 -1.0069 -0.5712
  544TIP3   OH223122   2.430   6.307  17.215 -0.0600 -0.1797  0.4630
  544TIP3    H123123   2.372   6.383  17.218 -0.2293 -0.3175  0.6911
  544TIP3    H223124   2.475   6.314  17.130 -0.3033  0.0044  0.3486
  545TIP3   OH223125   0.010   2.796  12.089  0.0254  0.7693 -0.3670
  545TIP3    H123126  -0.062   2.737  12.113  0.7493  0.4069  1.0396
  545TIP3    H223127   0.027   2.847  12.168  0.9239  1.2622 -0.8577
  546TIP3   OH223128   1.875   3.134   3.568  0.1364  0.0043  0.4753
  546TIP3    H123129   1.811   3.113   3.636 -0.7710 -1.3990 -0.7607
  546TIP3    H223130   1.829   3.119   3.486  2.3877 -2.3956 -0.4942
  547TIP3   OH223131   5.991   1.853   0.223  0.0623  0.3813  0.0826
  547TIP3    H123132   5.963   1.877   0.135  0.1662  1.2445  0.2736
  547TIP3    H223133   5.987   1.757   0.225 -0.5590  0.3854 -0.6522
  548TIP3   OH223134   2.937   0.160  15.266 -0.1702 -0.3440 -0.6507
  548TIP3    H123135   2.995   0.234  15.287 -1.4784  0.2794  1.0335
  548TIP3    H223136   2.987   0.107  15.204  0.4278  2.5054 -2.8153
  549TIP3   OH223137   3.608   0.733   3.866  0.2330  0.0689  0.3090
  549TIP3    H123138   3.659   0.661   3.828 -0.3185  0.5043 -1.3514
  549TIP3    H223139   3.653   0.812   3.837  0.4499  0.4257  1.5654
  550TIP3   OH223140   0.595   6.463   2.909  0.4143 -0.3844  0.5150
  550TIP3    H123141   0.530   6.457   2.979 -1.5161 -0.0946 -1.1571
  550TIP3    H223142   0.578   6.386   2.855  2.0501 -0.7452  0.4662
  551TIP3   OH223143   5.561   0.612   3.119 -0.0970 -0.5696 -0.0011
  551TIP3    H123144   5.613   0.622   3.198  0.6635 -1.0411 -0.4287
  551TIP3    H223145   5.530   0.522   3.121 -0.6165 -0.3904  0.0827
  552TIP3   OH223146   2.066   0.302   0.338 -0.3245 -0.1925  0.2385
  552TIP3    H123147   2.027   0.264   0.417  0.1413 -1.0838  0.0445
  552TIP3    H223148   2.038   0.394   0.340 -0.2912 -0.1890  1.4547
  553TIP3   OH223149   3.570   6.610   5.125  0.1785 -0.0015 -0.0871
  553TIP3    H123150   3.609   6.623   5.212  2.5942 -0.9189 -0.9514
  553TIP3    H223151   3.589   6.692   5.078  3.5672 -1.3143 -1.3095
  554TIP3   OH223152   3.464   6.323  11.637  0.3093 -0.2730  0.7583
  554TIP3    H123153   3.481   6.408  11.676  0.6053  0.2633 -0.5004
  554TIP3    H223154   3.535   6.267  11.668  3.1210  1.2462 -2.3117
  555TIP3   OH223155   0.721   3.069   5.790 -0.4246  0.2784 -0.1501
  555TIP3    H123156   0.633   3.058   5.826 -0.8063 -0.8594 -1.3210
  555TIP3    H223157   0.779   3.061   5.865 -1.2778  0.0004  0.4992
  556TIP3   OH223158   6.651   5.379   4.143  0.4434 -0.3620  0.3308
  556TIP3    H123159   6.612   5.291   4.142  0.7326 -0.5113 -1.3140
  556TIP3    H223160   6.669   5.397   4.051  1.3136  1.0237  0.7541
  557TIP3   OH223161   6.530   3.726  15.368 -0.1087  0.6358  0.3640
  557TIP3    H123162   6.572   3.793  15.313 -1.9282  1.4367 -0.1470
  557TIP3    H223163   6.440   3.722  15.335 -0.3755 -1.2083  1.2094
  558TIP3   OH223164   5.597   3.334  14.621  0.0558  0.6973 -0.1855
  558TIP3    H123165   5.631   3.262  14.675 -1.4524  0.9444  1.1816
  558TIP3    H223166   5.593   3.409  14.680 -1.6149  0.9875 -0.6065
  559TIP3   OH223167   5.820   6.404   6.532 -0.0560  0.0915  0.2831
  559TIP3    H123168   5.745   6.438   6.483  0.5800 -0.8373 -1.4255
  559TIP3    H223169   5.873   6.481   6.551 -0.2361  0.4623 -0.6698
  560TIP3   OH223170   2.071   2.843  12.255  0.2042  0.3889 -0.4983
  560TIP3    H123171   2.059   2.909  12.187 -3.3510 -0.1921 -0.6220
  560TIP3    H223172   2.144   2.789  12.223  0.1867  1.5279 -2.6810
  561TIP3   OH223173   5.267   4.796   2.817 -0.1971  0.5791 -0.1434
  561TIP3    H123174   5.302   4.779   2.729 -0.9209  0.4251 -0.4142
  561TIP3    H223175   5.260   4.709   2.856 -1.1033  0.5163 -0.4239
  562TIP3   OH223176   4.127   2.246  12.264  0.3943 -0.0995  0.1031
  562TIP3    H123177   4.169   2.319  12.308  1.4163 -0.6804  0.1164
  562TIP3    H223178   4.038   2.276  12.246  0.8339  1.1827  0.0114
  563TIP3   OH223179   4.448   4.751  15.132  0.0579 -0.5028 -0.2862
  563TIP3    H123180   4.482   4.799  15.207  0.3585  0.6219 -1.1253
  563TIP3    H223181   4.487   4.793  15.055 -0.2252 -1.6330 -1.0903
  564TIP3   OH223182   2.586   1.995  14.208  0.1488  0.1168 -0.1534
  564TIP3    H123183   2.495   2.015  14.186 -0.6592 -0.3288  2.3767
  564TIP3    H223184   2.628   2.081  14.219 -0.5230  0.3560  0.6143
  565TIP3   OH223185   2.581   5.294   5.058 -0.2498 -0.3211 -0.4201
  565TIP3    H123186   2.595   5.373   5.006 -1.1302  0.8224  0.9866
  565TIP3    H223187   2.610   5.318   5.146 -2.2403 -0.9376  0.4488
  566TIP3   OH223188   2.685   6.437  14.578  0.1893  0.3349 -0.4413
  566TIP3    H123189   2.678   6.351  14.538  0.0133  0.1050  0.0730
  566TIP3    H223190   2.774   6.440  14.614  0.5687  0.7834 -1.3802
  567TIP3   OH223191   4.485   3.737  14.116 -0.6779  0.0209  0.2799
  567TIP3    H123192   4.452   3.819  14.080  0.2085 -0.4109 -1.6487
  567TIP3    H223193   4.575   3.756  14.142 -0.1659 -0.5328 -1.0166
  568TIP3   OH223194   2.537   2.896  13.449 -0.7058 -0.7403 -0.3535
  568TIP3    H123195   2.556   2.950  13.373  1.8080 -0.2239  0.5134
  568TIP3    H223196   2.604   2.921  13.513 -0.5480 -3.5766  0.7510
  569TIP3   OH223197   2.745   4.695   3.161  0.2188 -0.0522 -0.9849
  569TIP3    H123198   2.815   4.637   3.131  0.2369  0.0265 -1.0950
  569TIP3    H223199   2.785   4.748   3.230 -0.1436 -1.0608  0.0390
  570TIP3   OH223200   6.651   5.901   0.462  0.2893  0.3167 -0.0126
  570TIP3    H123201   6.591   5.859   0.400 -1.3639  0.7334  1.2392
  570TIP3    H223202   6.667   5.834   0.529  2.4961 -0.3217 -1.0672
  571TIP3   OH223203   3.504   1.019   5.504 -0.2255  0.1920  0.5501
  571TIP3    H123204   3.521   0.995   5.595 -2.1043 -0.1540  0.8487
  571TIP3    H223205   3.470   1.108   5.508 -0.6040  0.0688  0.2275
  572TIP3   OH223206   3.384   2.746   0.893 -0.1718  0.2039 -0.1432
  572TIP3    H123207   3.356   2.729   0.803  0.2021  0.3037 -0.2810
  572TIP3    H223208   3.345   2.676   0.944  1.6745 -1.3535 -0.7592
  573TIP3   OH223209   6.062   2.627   0.102  0.2463 -0.2756  0.3804
  573TIP3    H123210   6.129   2.563   0.080  0.8879  0.3672  0.4377
  573TIP3    H223211   6.061   2.688   0.028  0.0243 -0.0450  0.5709
  574TIP3   OH223212   0.068   6.204  14.154 -0.4682  0.7500 -0.1907
  574TIP3    H123213   0.005   6.155  14.101  1.0799 -0.5361 -0.9233
  574TIP3    H223214   0.143   6.216  14.095  0.4403  1.2013  1.0307
  575TIP3   OH223215   3.138   4.345  11.027  0.4262 -0.1562  0.3054
  575TIP3    H123216   3.058   4.395  11.041  0.4862  0.0911 -0.2231
  575TIP3    H223217   3.117   4.284  10.956  0.3230 -0.9592  1.0063
  576TIP3   OH223218   3.321   6.417   1.492  0.3698  0.1724 -0.5239
  576TIP3    H123219   3.317   6.499   1.443 -1.1616 -0.4150 -1.4595
  576TIP3    H223220   3.380   6.361   1.442  1.0951  0.5343 -0.1004
  577TIP3   OH223221   0.717   5.950  17.021  0.1844 -0.5221 -0.3343
  577TIP3    H123222   0.789   5.939  17.082 -1.0050 -2.4857  0.8124
  577TIP3    H223223   0.751   5.917  16.937  0.8726 -0.6149 -0.0209
  578TIP3   OH223224   1.769   6.305  15.646 -0.5476 -0.2337 -0.6748
  578TIP3    H123225   1.842   6.368  15.647  1.5004 -2.4703 -0.4446
  578TIP3    H223226   1.706   6.340  15.709  0.6739  1.3712 -0.2724
  579TIP3   OH223227   3.360   5.253   4.807  0.2161 -0.3984  0.0573
  579TIP3    H123228   3.322   5.167   4.788  0.1082 -0.2441 -0.4249
  579TIP3    H223229   3.386   5.287   4.722  1.2910 -0.4303  0.3586
  580TIP3   OH223230   5.025   3.628   2.871 -0.0433  0.4889 -0.3918
  580TIP3    H123231   5.036   3.646   2.777 -0.0063  1.7423 -0.1648
  580TIP3    H223232   4.932   3.640   2.887  0.1707  1.7266  0.0048
  581TIP3   OH223233   1.052   1.269   3.109 -0.0159  0.3378 -0.2664
  581TIP3    H123234   1.014   1.193   3.065 -1.5516  0.6757  0.4024
  581TIP3    H223235   1.084   1.235   3.193  0.2929  0.2241 -0.4312
  582TIP3   OH223236   5.318   5.394   4.989  0.1477 -0.0816  0.1373
  582TIP3    H123237   5.381   5.354   5.049  0.7112 -0.9334 -0.9696
  582TIP3    H223238   5.294   5.477   5.031 -1.4446 -1.7382  2.7621
  583TIP3   OH223239   0.319   1.838   1.664 -0.5938  0.1788 -0.1215
  583TIP3    H123240   0.377   1.911   1.645  0.3243 -0.1612  1.1869
  583TIP3    H223241   0.236   1.879   1.688 -0.6804  0.6999 -1.2313
  584TIP3   OH223242   0.636   0.757   0.097  0.1382  0.1108  0.4750
  584TIP3    H123243   0.726   0.737   0.123  0.4636  0.0643 -0.6538
  584TIP3    H223244   0.625   0.850   0.116  0.6815  0.2963 -0.1112
  585TIP3   OH223245   0.583   2.683  17.096 -0.2793  0.0113  0.1670
  585TIP3    H123246   0.669   2.722  17.079  0.2564 -0.6841  1.1632
  585TIP3    H223247   0.533   2.755  17.134 -0.5660  0.7634 -1.5274
  586TIP3   OH223248   3.639   1.621   6.887 -0.4613  0.5421  0.0854
  586TIP3    H123249   3.551   1.658   6.887  0.2627  2.3227  0.0526
  586TIP3    H223250   3.692   1.684   6.936  0.9344 -0.1604 -0.4609
  587TIP3   OH223251   1.312   4.756   2.361  0.0926  0.2785 -0.0424
  587TIP3    H123252   1.291   4.845   2.389  0.5427  0.2153  0.5208
  587TIP3    H223253   1.247   4.701   2.407 -0.0125  0.2918 -0.1749
  588TIP3   OH223254   3.472   3.427  14.842 -0.3206  0.5792  0.4934
  588TIP3    H123255   3.456   3.518  14.816 -1.2247  0.0932 -0.8133
  588TIP3    H223256   3.488   3.382  14.759  0.6049 -0.3800  1.1675
  589TIP3   OH223257   3.071   2.453  14.425  0.5328 -0.0324 -0.3683
  589TIP3    H123258   3.044   2.534  14.467 -0.6925 -0.6459  0.0625
  589TIP3    H223259   3.133   2.481  14.358  2.0160  1.0335  1.3591
  590TIP3   OH223260   2.044   2.070  13.924  0.1379  0.4982 -0.5382
  590TIP3    H123261   2.067   1.996  13.867 -0.8872  0.5757 -1.0711
  590TIP3    H223262   2.117   2.131  13.915  0.6348 -0.1004 -0.6884
  591TIP3   OH223263   4.508   5.961  15.074  0.7032  0.0334 -0.1098
  591TIP3    H123264   4.416   5.988  15.065  0.5536 -0.2795  0.4972
  591TIP3    H223265   4.547   6.030  15.127  0.7893  0.0900 -0.2467
  592TIP3   OH223266   2.289   6.543   2.039  0.2500  0.1423  0.3251
  592TIP3    H123267   2.310   6.630   2.006 -1.9971 -0.1310 -2.1704
  592TIP3    H223268   2.323   6.482   1.973  0.4594 -0.8126  1.2757
  593TIP3   OH223269   5.662   0.183  12.275 -0.4360 -0.3312  0.4884
  593TIP3    H123270   5.713   0.241  12.219  1.1417 -0.5398  1.6350
  593TIP3    H223271   5.617   0.243  12.336 -1.5958 -0.1482 -0.5170
  594TIP3   OH223272   1.017   6.303   4.102 -0.4203 -0.0242  0.3466
  594TIP3    H123273   0.928   6.297   4.066 -0.1233  1.3097 -0.7232
  594TIP3    H223274   1.048   6.213   4.104 -1.9050 -0.5619  1.0682
  595TIP3   OH223275   6.284   4.717   1.927 -0.0787  0.0400 -0.2794
  595TIP3    H123276   6.317   4.806   1.916  1.2036 -0.6721 -3.1986
  595TIP3    H223277   6.318   4.689   2.012  1.8255  1.4190 -0.5111
  596TIP3   OH223278   0.708   6.277  13.830  0.1470  0.5276 -0.2580
  596TIP3    H123279   0.785   6.247  13.878 -0.3667 -0.3461  0.0285
  596TIP3    H223280   0.725   6.253  13.739 -0.9082 -2.1018  0.1598
  597TIP3   OH223281   1.155   3.718  16.806  0.1778  0.0822  0.0456
  597TIP3    H123282   1.130   3.665  16.730  0.3626  0.8467 -0.5711
  597TIP3    H223283   1.076   3.720  16.861 -0.0843 -0.1589 -0.3184
  598TIP3   OH223284   2.692   2.881  12.493  0.1113 -0.0523  0.2382
  598TIP3    H123285   2.692   2.791  12.459 -0.9959  0.7271 -1.9921
  598TIP3    H223286   2.644   2.874  12.576 -1.2659 -1.3117 -0.6062
  599TIP3   OH223287   2.094   6.762   5.940 -0.3828  0.4207  0.5562
  599TIP3    H123288   2.131   6.806   6.016  0.3653 -0.2166  0.5766
  599TIP3    H223289   2.107   6.669   5.959  1.2301  0.2707 -1.0166
  600TIP3   OH223290   5.767   2.239  13.980 -0.3431 -0.2048  0.4301
  600TIP3    H123291   5.732   2.158  14.018 -0.3151 -0.4009  0.0452
  600TIP3    H223292   5.722   2.248  13.896  1.3603 -1.1167 -0.6584
  601TIP3   OH223293   1.292   2.409   1.049 -0.3456 -0.7953 -0.1779
  601TIP3    H123294   1.368   2.467   1.045  0.0367 -1.3631 -1.5995
  601TIP3    H223295   1.320   2.329   1.006 -1.7906 -0.9548 -0.8927
  602TIP3   OH223296   4.681   5.050   5.852  0.1124  0.0420  0.3198
  602TIP3    H123297   4.679   5.058   5.757 -0.0769 -0.7704  0.2438
  602TIP3    H223298   4.733   5.124   5.882  0.2992  0.2163 -0.4297
  603TIP3   OH223299   1.590   3.273  14.312  0.0967 -0.0513  0.1887
  603TIP3    H123300   1.530   3.201  14.293 -0.7882  0.9047 -0.7645
  603TIP3    H223301   1.677   3.235  14.302 -0.2962 -1.4842  1.6478
  604TIP3   OH223302   1.916   6.524   0.826 -0.4712 -0.0534  0.2891
  604TIP3    H123303   2.010   6.534   0.842 -0.2773  0.3175 -0.9732
  604TIP3    H223304   1.901   6.430   0.831  0.1787 -0.2119 -0.4945
  605TIP3   OH223305   2.576   0.395  12.420 -0.0462  0.0866  0.1628
  605TIP3    H123306   2.525   0.386  12.339 -1.5132  0.9700  0.9503
  605TIP3    H223307   2.653   0.447  12.394 -0.5280  0.4032 -0.6612
  606TIP3   OH223308   5.545   0.920  11.991 -0.2784  0.1953  0.5108
  606TIP3    H123309   5.586   0.974  11.923 -1.0441  0.5323  0.3033
  606TIP3    H223310   5.615   0.903  12.054  0.6592 -0.7741 -0.7457
  607TIP3   OH223311   1.835   3.802  14.178 -0.3594  0.4994 -0.1256
  607TIP3    H123312   1.860   3.872  14.238 -0.2295  1.0238 -0.7696
  607TIP3    H223313   1.914   3.750  14.168 -0.1605  0.8506 -0.4191
  608TIP3   OH223314   1.830   5.129   0.664 -0.2307 -0.1447 -0.4953
  608TIP3    H123315   1.811   5.173   0.581 -0.3465  0.1670 -0.3036
  608TIP3    H223316   1.823   5.036   0.643  1.5181 -0.1471 -1.2675
  609TIP3   OH223317   5.236   1.101  13.253 -0.0879  0.3671 -0.0195
  609TIP3    H123318   5.282   1.169  13.204 -0.1064 -0.4650 -1.2412
  609TIP3    H223319   5.304   1.039  13.280 -0.1460  0.5550  0.5903
  610TIP3   OH223320   5.085   1.626   2.886 -0.0205  0.1501 -0.0773
  610TIP3    H123321   5.084   1.608   2.980 -0.0381 -0.3823 -0.1788
  610TIP3    H223322   5.023   1.698   2.875 -2.5388 -1.9115 -0.1107
  611TIP3   OH223323   5.526   4.162   2.532 -0.5884 -0.3969 -0.2401
  611TIP3    H123324   5.518   4.107   2.610  0.1824 -0.1451  0.0255
  611TIP3    H223325   5.620   4.160   2.511 -0.6252  0.4203 -0.5153
  612TIP3   OH223326   6.580   4.826   3.492  0.1179  0.3093  0.1171
  612TIP3    H123327   6.608   4.906   3.537  0.8329  0.1802 -0.1028
  612TIP3    H223328   6.552   4.856   3.405  2.7210  0.0384 -0.8932
  613TIP3   OH223329   4.306   1.646  13.025  0.1740  0.0352 -0.3895
  613TIP3    H123330   4.322   1.609  12.937  0.3779 -1.3633  0.2018
  613TIP3    H223331   4.393   1.669  13.057  0.0148  1.4065 -0.8913
  614TIP3   OH223332   4.921   2.347   2.635  0.1783 -0.1085  0.6414
  614TIP3    H123333   5.013   2.322   2.645  0.4897  0.9177  0.4409
  614TIP3    H223334   4.874   2.291   2.696  0.5841 -2.6276 -1.1745
  615TIP3   OH223335   1.964   4.941  12.193 -0.4115  0.4347 -0.0129
  615TIP3    H123336   2.042   4.951  12.247  0.3196  1.0060 -1.1291
  615TIP3    H223337   1.958   4.847  12.177 -1.8214 -0.0239  2.6768
  616TIP3   OH223338   0.725   1.300   4.195 -0.5408  0.0005  0.2914
  616TIP3    H123339   0.647   1.335   4.240 -0.7102  1.2345 -0.8860
  616TIP3    H223340   0.717   1.332   4.105  0.3284 -1.5254 -0.3662
  617TIP3   OH223341   5.633   3.215   4.411  0.3764 -0.2114  0.2697
  617TIP3    H123342   5.657   3.160   4.336  1.7549 -0.3159  0.7497
  617TIP3    H223343   5.539   3.229   4.402  0.2564 -1.4402 -0.6762
  618TIP3   OH223344   3.407   6.603  12.776  0.2285 -0.1809  0.3128
  618TIP3    H123345   3.359   6.570  12.852  0.5088  0.3677  0.7414
  618TIP3    H223346   3.444   6.526  12.734 -1.9912 -0.7610 -0.7216
  619TIP3   OH223347   3.362   5.320   0.924  0.7822  0.2894 -0.2159
  619TIP3    H123348   3.430   5.286   0.865  0.1096  0.3182 -1.0298
  619TIP3    H223349   3.410   5.369   0.990  1.5671  0.2218 -0.7208
  620TIP3   OH223350   1.914   2.955  10.558 -0.5954  0.5751  0.0199
  620TIP3    H123351   1.851   3.025  10.543 -0.5859  0.8202  1.1042
  620TIP3    H223352   1.896   2.923  10.646  0.0750 -0.0991 -0.0682
  621TIP3   OH223353   2.073   0.826  15.993 -0.0517  0.3269  0.5585
  621TIP3    H123354   2.156   0.857  15.957 -0.0550 -0.1325  0.1455
  621TIP3    H223355   2.097   0.779  16.073  0.0533  0.4769  0.6154
  622TIP3   OH223356   4.760   3.703   2.828 -0.0838  0.4751  0.4051
  622TIP3    H123357   4.731   3.691   2.738  0.9305 -1.7646  0.3082
  622TIP3    H223358   4.704   3.773   2.863 -1.0802  0.7772 -1.6709
  623TIP3   OH223359   1.320   5.362   1.202 -0.1840 -0.5777  0.3052
  623TIP3    H123360   1.369   5.309   1.138  0.5210  2.1163 -1.5790
  623TIP3    H223361   1.370   5.353   1.283  2.3465  0.3944 -1.0177
  624TIP3   OH223362   5.589   0.110  11.093 -0.1266 -0.4038  0.0406
  624TIP3    H123363   5.648   0.138  11.023 -1.3845  1.0614 -0.5128
  624TIP3    H223364   5.551   0.028  11.061 -0.5029  0.1215 -0.9195
  625TIP3   OH223365   4.255   6.296  12.541 -0.5849  0.0032 -0.1231
  625TIP3    H123366   4.167   6.322  12.514 -0.9537 -0.4792  0.6071
  625TIP3    H223367   4.312   6.360  12.497 -1.4187  1.6009  0.9936
  626TIP3   OH223368   4.078   3.143   6.907  0.0760 -0.6422 -0.2737
  626TIP3    H123369   4.046   3.110   6.823 -0.4280  0.8415 -0.6976
  626TIP3    H223370   4.035   3.088   6.973 -0.8669 -0.7213 -0.9385
  627TIP3   OH223371   4.945   2.649  14.722  0.2926 -0.3680 -0.0454
  627TIP3    H123372   4.860   2.619  14.689  0.7324  0.5985 -2.2066
  627TIP3    H223373   5.002   2.573  14.712  0.3457 -0.1817 -1.3392
  628TIP3   OH223374   1.965   0.269   5.674 -0.1125 -0.1402  0.0823
  628TIP3    H123375   1.882   0.316   5.675 -0.6406 -1.0470  0.1395
  628TIP3    H223376   1.995   0.273   5.584  0.5812  1.5299  0.3550
  629TIP3   OH223377   5.912   3.637   1.358  0.1036 -0.2582 -0.2627
  629TIP3    H123378   5.974   3.565   1.366  0.9097  0.4789  0.3219
  629TIP3    H223379   5.840   3.613   1.416 -1.6246 -2.5115 -3.0665
  630TIP3   OH223380   4.279   5.161  13.139  0.1267  0.2060 -0.5885
  630TIP3    H123381   4.372   5.141  13.128  0.5424  1.4332  0.4232
  630TIP3    H223382   4.241   5.143  13.053  1.2735 -0.4171 -0.9959
  631TIP3   OH223383   4.977   1.056  15.560 -0.3351 -0.3119  0.2563
  631TIP3    H123384   4.967   0.966  15.529 -3.3437 -0.7648  2.0724
  631TIP3    H223385   4.887   1.091  15.561  0.5797  2.2523  0.8970
  632TIP3   OH223386   1.597   6.261   4.203 -0.6427 -0.6970 -0.3772
  632TIP3    H123387   1.656   6.241   4.276 -1.3250 -1.6240 -0.0552
  632TIP3    H223388   1.646   6.235   4.125  0.1965  0.5445 -0.2886
  633TIP3   OH223389   3.971   1.173   5.799 -0.0125 -0.3502 -0.2237
  633TIP3    H123390   3.926   1.091   5.821  1.1853 -0.5805  1.6386
  633TIP3    H223391   4.061   1.146   5.778 -0.5722  0.0944 -3.8453
  634TIP3   OH223392   1.208   2.398   0.686 -0.2838 -0.1240 -0.2407
  634TIP3    H123393   1.216   2.321   0.743 -1.0057  1.3425  1.9428
  634TIP3    H223394   1.118   2.396   0.655 -0.5107  0.2143  0.3893
  635TIP3   OH223395   0.533   5.945  13.030 -0.1343 -0.2354 -0.1326
  635TIP3    H123396   0.626   5.939  13.051  0.0287 -1.6035 -1.0813
  635TIP3    H223397   0.489   5.931  13.114  0.5049  0.1683  0.2796
  636TIP3   OH223398   5.126   6.288  17.405  0.2739  0.0772  0.2487
  636TIP3    H123399   5.184   6.306  17.331 -0.5098 -0.5346 -0.5477
  636TIP3    H223400   5.183   6.248  17.471  0.9230  0.2849 -0.1729
  637TIP3   OH223401   4.027   0.019  15.006 -0.8615  0.2772  0.3051
  637TIP3    H123402   4.026   0.113  14.989 -1.9151  0.2648  0.2041
  637TIP3    H223403   4.034   0.012  15.101 -1.3420  0.4806  0.3615
  638TIP3   OH223404   2.454   1.755   6.234 -0.1783  0.2766 -0.0478
  638TIP3    H123405   2.421   1.665   6.226 -0.1271  0.2568 -0.0373
  638TIP3    H223406   2.452   1.772   6.329 -1.7561  0.8725 -0.1548
  639TIP3   OH223407   6.528   0.703   5.198  0.2086 -0.2204  0.2648
  639TIP3    H123408   6.543   0.610   5.209  1.3494 -0.1301 -0.3824
  639TIP3    H223409   6.606   0.735   5.152 -0.1574  1.0492  0.4855
  640TIP3   OH223410   5.559   5.237  16.155  0.2844 -0.5581  0.1892
  640TIP3    H123411   5.549   5.179  16.230  0.1034 -0.9073 -0.0977
  640TIP3    H223412   5.507   5.314  16.177  0.9427 -0.2786  0.7948
  641TIP3   OH223413   4.084   6.651  13.419  0.0789 -0.0511 -0.5680
  641TIP3    H123414   4.034   6.605  13.351  0.1359  1.1289 -1.4420
  641TIP3    H223415   4.133   6.582  13.463 -1.7259 -1.1534 -0.1757
  642TIP3   OH223416   4.788   3.245   0.580  0.5349 -0.0440 -0.1084
  642TIP3    H123417   4.730   3.175   0.609 -1.7646  1.7666 -0.0110
  642TIP3    H223418   4.843   3.265   0.655 -0.3339 -0.2681  0.5964
  643TIP3   OH223419   5.272   4.274  17.053 -0.2022  0.1361  0.4504
  643TIP3    H123420   5.251   4.313  17.138  0.9675  1.5296  0.1298
  643TIP3    H223421   5.367   4.267  17.052 -0.1458  0.7140 -0.9681
  644TIP3   OH223422   5.804   6.665   2.308  0.2372  0.4407  0.0053
  644TIP3    H123423   5.731   6.709   2.265 -0.6505  0.3476  1.3813
  644TIP3    H223424   5.833   6.599   2.244  0.9706  2.2997 -1.6875
  645TIP3   OH223425   1.579   3.325   0.831  0.0178 -0.1402  0.2186
  645TIP3    H123426   1.645   3.392   0.848  0.2222 -0.4767  0.7909
  645TIP3    H223427   1.584   3.267   0.907 -0.3441 -0.6503 -0.1403
  646TIP3   OH223428   0.576   4.067   5.808  0.0205  0.5538 -0.3850
  646TIP3    H123429   0.516   4.044   5.737 -0.3869  0.2046  0.0598
  646TIP3    H223430   0.559   4.001   5.876  1.0080  0.3638 -0.3018
  647TIP3   OH223431   2.334   2.276  13.450  0.0441 -0.0961 -0.0135
  647TIP3    H123432   2.277   2.351  13.466 -0.3509 -0.7118  1.6664
  647TIP3    H223433   2.422   2.309  13.468 -0.2532 -0.3584  2.1023
  648TIP3   OH223434   0.313   4.524   0.628 -0.1282 -0.5672 -0.4823
  648TIP3    H123435   0.397   4.479   0.617  0.6192  0.2788  1.4225
  648TIP3    H223436   0.252   4.454   0.654 -0.0396 -1.1826 -1.8560
  649TIP3   OH223437   3.228   4.170   2.181 -0.3747 -0.1489 -0.2311
  649TIP3    H123438   3.299   4.187   2.243 -2.6661  2.2305  1.9656
  649TIP3    H223439   3.182   4.095   2.218 -1.8121  1.3436  1.1529
  650TIP3   OH223440   1.759   6.159   2.841 -0.4423  0.4975  0.1556
  650TIP3    H123441   1.764   6.173   2.935  0.6524  1.4816 -0.0208
  650TIP3    H223442   1.668   6.134   2.825 -0.1348 -2.0972  1.7514
  651TIP3   OH223443   0.723   2.519   1.084  0.4770 -0.0033 -0.1745
  651TIP3    H123444   0.630   2.513   1.062  0.8509 -1.9592 -1.4085
  651TIP3    H223445   0.755   2.592   1.031 -0.2436  0.4214 -0.0509
  652TIP3   OH223446   4.322   4.565  14.161 -0.8057 -0.2781 -0.1610
  652TIP3    H123447   4.391   4.544  14.098 -0.2604 -0.6306  0.5419
  652TIP3    H223448   4.269   4.631  14.116  0.1192  0.1733 -0.6355
  653TIP3   OH223449   3.199   5.710   1.560  0.0696 -0.5636  0.1217
  653TIP3    H123450   3.294   5.713   1.571  0.3131 -2.8782 -0.6168
  653TIP3    H223451   3.165   5.778   1.617  2.2686  1.9722 -1.3667
  654TIP3   OH223452   0.541   1.456   5.784  0.8231  0.3027  0.1154
  654TIP3    H123453   0.544   1.478   5.877 -1.0439 -0.5752  0.4166
  654TIP3    H223454   0.514   1.538   5.741  0.7707  0.4641  0.4527
  655TIP3   OH223455   2.306   3.112   6.557  0.6263 -0.2050  0.3423
  655TIP3    H123456   2.274   3.202   6.558  1.0693  0.0069 -1.4578
  655TIP3    H223457   2.369   3.108   6.629  2.6950  1.7588 -1.2295
  656TIP3   OH223458   0.302   5.358   4.380  0.5077  0.1213  0.1303
  656TIP3    H123459   0.257   5.442   4.370  1.3181  0.4426 -1.1010
  656TIP3    H223460   0.249   5.309   4.443 -0.1156  1.4583  0.6703
  657TIP3   OH223461   4.775   0.013   0.787  0.1873  0.1871 -0.1165
  657TIP3    H123462   4.800   0.037   0.698  0.8356 -0.7733 -0.2107
  657TIP3    H223463   4.834   0.065   0.842 -0.9739  1.6484 -0.1801
  658TIP3   OH223464   5.948   4.784   0.482 -0.4514  0.0576  0.6037
  658TIP3    H123465   5.941   4.879   0.473 -1.4765  0.1044  1.6702
  658TIP3    H223466   5.881   4.750   0.423 -0.2705 -0.0030  0.4306
  659TIP3   OH223467   4.473   0.218  12.803  0.0379 -0.9174 -0.3327
  659TIP3    H123468   4.563   0.185  12.808 -0.6827 -2.8872  1.3707
  659TIP3    H223469   4.473   0.294  12.860  1.3756  1.3630 -3.1210
  660TIP3   OH223470   4.060   0.519  12.069  0.0419 -0.0585  0.6372
  660TIP3    H123471   4.130   0.578  12.094 -0.0823 -0.5742  2.3481
  660TIP3    H223472   3.981   0.573  12.068  0.2816  0.2992 -0.2730
  661TIP3   OH223473   5.624   2.921  14.945  0.1614  0.1919 -0.7057
  661TIP3    H123474   5.702   2.930  14.891 -0.4682  0.2479 -1.6234
  661TIP3    H223475   5.632   2.990  15.011  1.7357 -0.8891  0.3146
  662TIP3   OH223476   5.276   5.095  11.934  0.5950  0.3771 -0.6181
  662TIP3    H123477   5.343   5.143  11.887  0.3084  0.2397 -1.1776
  662TIP3    H223478   5.198   5.102  11.878  0.1691  0.4649 -0.0221
  663TIP3   OH223479   0.403   2.079  16.664 -0.8028 -0.1487  0.6985
  663TIP3    H123480   0.332   2.041  16.716 -0.4628 -0.2706  1.0741
  663TIP3    H223481   0.416   2.166  16.702 -2.1772  0.7193 -0.7169
  664TIP3   OH223482   1.510   1.451   4.493 -0.3133 -0.4501 -0.7198
  664TIP3    H123483   1.465   1.463   4.576  0.0724 -0.6188 -0.4863
  664TIP3    H223484   1.450   1.488   4.428  0.2924  1.6217 -0.1724
  665TIP3   OH223485   0.861   3.534  16.439 -0.0585  0.2809 -0.3470
  665TIP3    H123486   0.922   3.564  16.372  0.2103 -0.2170 -0.3322
  665TIP3    H223487   0.821   3.455  16.400  0.4453 -0.2870  0.2598
  666TIP3   OH223488   5.921   6.103  16.152 -0.3415 -0.7299 -0.4282
  666TIP3    H123489   5.879   6.184  16.179  0.1740 -1.0644  1.5067
  666TIP3    H223490   5.855   6.059  16.097 -1.6322 -0.1935  0.6377
  667TIP3   OH223491   5.127   3.230   2.402 -0.5711  0.7931  0.0712
  667TIP3    H123492   5.080   3.168   2.457 -2.1174  2.1468  0.3624
  667TIP3    H223493   5.162   3.177   2.330  1.9538 -1.1306  2.4766
  668TIP3   OH223494   1.802   5.293  17.404 -0.1416 -0.8779 -0.0290
  668TIP3    H123495   1.834   5.382  17.389 -1.9760 -0.2532 -0.5937
  668TIP3    H223496   1.876   5.236  17.384  0.9615  0.5148 -0.0051
  669TIP3   OH223497   5.156   6.126   1.590 -0.1543  0.1701 -0.0032
  669TIP3    H123498   5.086   6.152   1.529  0.2761 -2.4137 -1.7311
  669TIP3    H223499   5.232   6.110   1.534  0.3412 -1.9899  1.1928
  670TIP3   OH223500   3.539   3.540  17.317  0.2987 -0.0483 -0.4222
  670TIP3    H123501   3.565   3.563  17.406  1.3127 -0.4188 -0.6075
  670TIP3    H223502   3.532   3.625  17.272  2.0361  0.0415 -0.5725
  671TIP3   OH223503   0.753   3.840  14.336 -0.4181  0.1941 -0.1874
  671TIP3    H123504   0.775   3.757  14.294 -1.1011  0.0843 -0.3476
  671TIP3    H223505   0.812   3.903  14.295 -0.1872 -0.1364 -0.3759
  672TIP3   OH223506   0.213   3.510   3.176 -0.7091 -0.2045 -0.2578
  672TIP3    H123507   0.225   3.604   3.169 -0.2019 -0.2542 -0.0855
  672TIP3    H223508   0.132   3.492   3.127 -2.3452  0.6776  1.9736
  673TIP3   OH223509   0.681   1.747   4.442 -0.2008 -0.1496  0.0112
  673TIP3    H123510   0.754   1.744   4.380  1.1070  2.0237  1.2885
  673TIP3    H223511   0.723   1.741   4.528 -1.7998 -1.3495  0.7465
  674TIP3   OH223512   6.764   3.847   1.870  0.2537 -0.5176 -0.0217
  674TIP3    H123513   6.745   3.922   1.815  0.7082  0.0172  0.5269
  674TIP3    H223514   6.781   3.775   1.809 -0.0641 -0.1456 -0.5525
  675TIP3   OH223515   5.911   5.797   0.038  0.3283  0.2090  0.1750
  675TIP3    H123516   5.897   5.889   0.016 -4.6126 -0.1983  0.3716
  675TIP3    H223517   5.929   5.797   0.132 -0.8347  0.9990  0.4255
  676TIP3   OH223518   6.044   4.952   1.337  0.2057 -0.1519  0.0816
  676TIP3    H123519   5.980   5.013   1.373 -0.4888 -0.5299 -0.4651
  676TIP3    H223520   6.004   4.866   1.347  0.1267 -0.2970 -1.2608
  677TIP3   OH223521   6.097   6.387  14.837  1.1353 -0.8745 -0.5574
  677TIP3    H123522   6.139   6.329  14.900 -0.7425 -1.6834  0.0186
  677TIP3    H223523   6.047   6.328  14.780 -1.8051  0.1213  0.7704
  678TIP3   OH223524   2.226   6.400   1.469  0.3384  0.6636  0.0146
  678TIP3    H123525   2.239   6.341   1.395 -0.4921  1.8455 -1.0955
  678TIP3    H223526   2.161   6.355   1.524 -0.4948  0.6503 -0.9541
  679TIP3   OH223527   2.740   4.266  16.874 -0.2723 -0.9145 -0.1084
  679TIP3    H123528   2.802   4.208  16.829  2.6088  1.0735  1.0477
  679TIP3    H223529   2.773   4.271  16.964 -2.1176  0.3000  0.5490
  680TIP3   OH223530   1.302   2.735  16.539 -0.6146  0.2977  0.3141
  680TIP3    H123531   1.354   2.726  16.460  0.7567 -0.2434  1.2452
  680TIP3    H223532   1.318   2.654  16.588 -2.6529 -0.0683  0.4591
  681TIP3   OH223533   3.972   2.081  11.316 -0.0732  0.3874 -0.3852
  681TIP3    H123534   3.985   1.993  11.279  3.2999 -0.6420  2.7247
  681TIP3    H223535   3.907   2.068  11.385 -0.3383  0.6016 -0.5904
  682TIP3   OH223536   5.412   2.775  13.810  0.0737 -0.8148 -0.4531
  682TIP3    H123537   5.330   2.807  13.847  0.1192 -0.5666 -0.5636
  682TIP3    H223538   5.463   2.746  13.886  1.5172  2.7023  0.1405
  683TIP3   OH223539   6.269   1.561   5.647 -0.2438 -0.2473 -0.5099
  683TIP3    H123540   6.312   1.645   5.661 -0.1269 -0.1879 -1.2007
  683TIP3    H223541   6.271   1.548   5.552  0.4423 -1.3964 -0.3494
  684TIP3   OH223542   6.775   6.564  11.540 -0.4281  0.0917 -0.3998
  684TIP3    H123543   6.745   6.504  11.471 -0.2148 -1.4744  0.8117
  684TIP3    H223544   6.735   6.531  11.620 -0.3696  1.6552  0.3180
  685TIP3   OH223545   1.737   4.263   0.692  0.3432  0.3144 -0.0853
  685TIP3    H123546   1.825   4.298   0.701  0.3556  0.3643 -0.3814
  685TIP3    H223547   1.710   4.289   0.604  0.0946  0.1646 -0.0541
  686TIP3   OH223548   1.424   3.930  16.285 -0.0450  1.0238  0.2723
  686TIP3    H123549   1.444   3.841  16.312 -0.6859  0.9298  0.4481
  686TIP3    H223550   1.331   3.928  16.263 -0.3465  1.9349  1.4277
  687TIP3   OH223551   5.771   1.690   4.949 -0.3849 -0.0891  0.1313
  687TIP3    H123552   5.769   1.776   4.907 -3.2493  0.9602  2.0512
  687TIP3    H223553   5.719   1.634   4.891  2.8672 -1.1542 -1.9990
  688TIP3   OH223554   4.121   4.094  11.104 -0.1370 -0.4362 -0.0928
  688TIP3    H123555   4.063   4.112  11.179 -1.3384 -0.2540 -1.0293
  688TIP3    H223556   4.207   4.126  11.132 -1.0724  1.9543  0.3232
  689TIP3   OH223557   6.013   2.121   0.542  0.0914 -0.3008 -0.5261
  689TIP3    H123558   5.923   2.131   0.511  0.5959  1.4081 -1.6096
  689TIP3    H223559   6.011   2.044   0.598 -1.9345 -0.5957 -0.9270
  690TIP3   OH223560   1.532   4.966   3.088  0.0944  0.0019 -0.0326
  690TIP3    H123561   1.509   4.995   3.000 -2.3963 -3.2133 -0.6353
  690TIP3    H223562   1.621   4.931   3.080  0.9385  2.1451 -0.5409
  691TIP3   OH223563   0.132   6.748   5.389 -0.4875 -0.4849 -0.5239
  691TIP3    H123564   0.062   6.742   5.454  0.6222 -0.0848  0.7631
  691TIP3    H223565   0.088   6.739   5.305 -2.0297 -0.5937  0.2623
  692TIP3   OH223566   3.373   3.042  12.494 -0.0828  0.7165  0.4987
  692TIP3    H123567   3.327   3.086  12.423 -1.2534  1.7365  1.8071
  692TIP3    H223568   3.432   3.109  12.529  0.6486  0.1594  0.3514
  693TIP3   OH223569   1.694   1.693   1.851 -0.1779  0.0996  0.8417
  693TIP3    H123570   1.618   1.635   1.839  0.3352 -0.5643  0.7138
  693TIP3    H223571   1.752   1.644   1.909 -0.3165  1.0695  1.8201
  694TIP3   OH223572   2.148   2.827   5.568 -0.0621  0.4896  0.1610
  694TIP3    H123573   2.168   2.799   5.657 -1.4609  1.5715  0.8534
  694TIP3    H223574   2.228   2.810   5.519  0.5821 -0.5632  1.5065
  695TIP3   OH223575   1.069   3.665  12.930 -0.4060  0.7145 -0.2831
  695TIP3    H123576   1.147   3.719  12.935  0.3200 -0.3689  0.5057
  695TIP3    H223577   1.092   3.585  12.977 -1.1471 -0.6409 -2.1098
  696TIP3   OH223578   2.622   0.623  15.409  0.2702  0.1650 -0.1156
  696TIP3    H123579   2.594   0.532  15.402 -0.0618  0.2133  0.5338
  696TIP3    H223580   2.696   0.622  15.470 -0.0985  0.4000  0.3432
  697TIP3   OH223581   5.606   0.489  14.790 -0.1993 -0.3293 -0.8769
  697TIP3    H123582   5.627   0.396  14.795  1.5002  0.0646  0.5124
  697TIP3    H223583   5.679   0.527  14.741  1.0189  0.6954  1.5492
  698TIP3   OH223584   4.903   0.813  16.860  0.7066  0.0827 -0.5748
  698TIP3    H123585   4.983   0.854  16.894 -0.7896  1.7855  1.0815
  698TIP3    H223586   4.901   0.727  16.903  0.3755  1.0398  1.4018
  699TIP3   OH223587   0.347   3.928  14.410  0.0026  0.1878 -0.2910
  699TIP3    H123588   0.375   4.000  14.353  1.9371  0.0371  0.4106
  699TIP3    H223589   0.256   3.950  14.432  0.5084  2.3870 -0.1544
  700TIP3   OH223590   6.692   0.596   1.334  0.8867  0.7557 -0.3240
  700TIP3    H123591   6.654   0.538   1.269  0.8542  1.3477 -0.8460
  700TIP3    H223592   6.754   0.650   1.285  0.9885  1.0934  0.1643
  701TIP3   OH223593   1.037   0.053  11.971  0.0659  0.3354 -0.6319
  701TIP3    H123594   0.969   0.077  12.034  0.3290 -0.2412 -0.1208
  701TIP3    H223595   1.007  -0.032  11.936 -0.2395  0.7919 -1.5227
  702TIP3   OH223596   3.990   2.761  15.098  0.4544  0.0685 -0.5624
  702TIP3    H123597   4.011   2.668  15.104  0.2732  0.0540 -0.0557
  702TIP3    H223598   4.060   2.798  15.044  0.8456 -0.2633 -0.2925
  703TIP3   OH223599   5.466   2.657   4.603  0.1362 -0.0994 -0.0967
  703TIP3    H123600   5.385   2.618   4.570  0.1077 -0.4265  0.3420
  703TIP3    H223601   5.452   2.751   4.597 -0.4003 -0.1485  0.2577
  704TIP3   OH223602   3.190   2.829  13.585  0.2816 -0.4316 -0.0872
  704TIP3    H123603   3.177   2.777  13.506 -0.9749  0.4664 -0.4957
  704TIP3    H223604   3.244   2.902  13.557 -0.5847  0.1601 -0.2567
  705TIP3   OH223605   5.032   3.185  12.107 -0.0019  0.1155  0.1690
  705TIP3    H123606   5.022   3.178  12.012  2.4755 -0.2011 -0.1493
  705TIP3    H223607   5.002   3.273  12.129 -1.1180 -0.0007 -0.7996
  706TIP3   OH223608   5.508   0.161  15.053  0.1172  0.2689  0.2028
  706TIP3    H123609   5.465   0.212  15.122 -0.9091  0.0375 -0.2393
  706TIP3    H223610   5.436   0.132  14.997  0.8425 -0.3515 -0.4279
  707TIP3   OH223611   1.932   6.508  12.139 -0.0998  0.2892 -0.6613
  707TIP3    H123612   1.941   6.482  12.231 -1.4833  2.4321  0.1514
  707TIP3    H223613   2.005   6.465  12.095  2.2834  1.3249  1.9482
  708TIP3   OH223614   4.195   5.601  15.306 -0.8652 -0.3438  0.2312
  708TIP3    H123615   4.175   5.652  15.385 -0.3019 -1.4651  1.1162
  708TIP3    H223616   4.288   5.616  15.289 -0.4836 -1.7179  0.9947
  709TIP3   OH223617   5.294   1.464   0.920 -0.2416 -0.1103  0.3513
  709TIP3    H123618   5.269   1.482   0.830  1.1486 -1.3615 -0.3283
  709TIP3    H223619   5.370   1.406   0.913 -1.1882 -1.7404  2.3384
  710TIP3   OH223620   1.461   1.588   0.354 -0.5251  0.0265  0.0720
  710TIP3    H123621   1.493   1.543   0.432  0.5941 -5.3502 -2.9351
  710TIP3    H223622   1.538   1.628   0.315 -0.3447 -0.4105 -0.0237
  711TIP3   OH223623   1.916   5.123  13.667  0.2004 -0.1480 -0.2825
  711TIP3    H123624   1.949   5.033  13.661 -1.0520 -0.5501 -2.0518
  711TIP3    H223625   1.965   5.170  13.600 -1.0082 -0.1846 -1.2352
  712TIP3   OH223626   5.633   3.212   4.110 -0.3052 -0.1812  0.6009
  712TIP3    H123627   5.591   3.136   4.151 -1.9462  1.1132  1.4450
  712TIP3    H223628   5.583   3.227   4.030 -0.4603  0.4401  0.8109
  713TIP3   OH223629   4.997   6.665  13.595  0.0257  0.9483  0.4290
  713TIP3    H123630   4.946   6.742  13.571 -0.6188  0.2262 -0.5792
  713TIP3    H223631   4.952   6.592  13.553  1.4688  0.2046  0.0985
  714TIP3   OH223632   2.317   5.440  15.928  0.4715 -0.4618 -0.2107
  714TIP3    H123633   2.347   5.349  15.934 -1.6760 -1.1842  0.5375
  714TIP3    H223634   2.347   5.480  16.009 -0.2870 -1.0746  0.3846
  715TIP3   OH223635   3.894   0.957  11.257 -0.2870  0.4288 -0.1165
  715TIP3    H123636   3.917   1.001  11.339  0.5949 -0.1516 -0.0315
  715TIP3    H223637   3.974   0.910  11.232 -0.6291  0.3690 -1.1649
  716TIP3   OH223638   4.608   0.208   2.365  0.1312  0.1571 -0.2119
  716TIP3    H123639   4.593   0.279   2.428 -0.6359 -0.0373 -0.1586
  716TIP3    H223640   4.703   0.197   2.363  0.1119 -1.3139  2.5752
  717TIP3   OH223641   2.372   3.352   3.761  0.0101  0.3435  0.5934
  717TIP3    H123642   2.381   3.264   3.724 -1.4577 -0.3952  1.8496
  717TIP3    H223643   2.444   3.359   3.824  0.9891  0.6158 -0.5432
  718TIP3   OH223644   5.823   0.007   3.222 -0.1238 -0.4762 -0.1886
  718TIP3    H123645   5.808   0.090   3.269  1.3649  0.4546 -1.2630
  718TIP3    H223646   5.798   0.026   3.132  1.2435 -0.8520 -0.6668
  719TIP3   OH223647   6.234   4.379   0.863 -0.1257  0.1322 -0.0883
  719TIP3    H123648   6.240   4.474   0.856  3.4942  0.0298 -0.0867
  719TIP3    H223649   6.206   4.350   0.777  0.1873  1.1213 -0.5341
  720TIP3   OH223650   1.077   4.669   1.007  0.2957 -0.2951 -0.4494
  720TIP3    H123651   1.075   4.589   0.955  0.9124 -0.1476 -0.7095
  720TIP3    H223652   0.991   4.672   1.049  1.3915 -2.8667  2.2816
  721TIP3   OH223653   0.992   1.167   4.766  0.1606 -0.7468 -0.2449
  721TIP3    H123654   0.904   1.179   4.731  0.5338  0.4460 -0.8169
  721TIP3    H223655   1.036   1.251   4.752  1.5400 -1.4624 -0.4058
  722TIP3   OH223656   5.843   5.014  12.107  0.0810 -0.2496  0.3787
  722TIP3    H123657   5.838   5.086  12.170 -2.8292 -0.5819  0.6559
  722TIP3    H223658   5.903   4.951  12.148 -1.9736 -0.6144  3.1076
  723TIP3   OH223659   1.202   5.018   3.364  0.2885 -0.0966 -0.1900
  723TIP3    H123660   1.235   4.931   3.388 -0.5567 -0.8509 -1.6078
  723TIP3    H223661   1.127   5.000   3.308 -0.6841  1.5684  0.5005
  724TIP3   OH223662   5.678   6.128  12.514  0.2802 -0.0915  0.4092
  724TIP3    H123663   5.688   6.114  12.420 -1.6146 -0.8869  0.2812
  724TIP3    H223664   5.696   6.221  12.526  0.1514  0.1115 -0.8049
  725TIP3   OH223665   1.149   5.500   5.485 -0.2704 -0.2605  0.4067
  725TIP3    H123666   1.243   5.496   5.464 -0.6381 -1.3107 -1.1838
  725TIP3    H223667   1.137   5.588   5.522  0.9983  0.6398 -1.1852
  726TIP3   OH223668   5.880   4.922   2.637  0.1277 -0.0786 -0.2759
  726TIP3    H123669   5.944   4.886   2.699  1.9942  1.2774 -1.3117
  726TIP3    H223670   5.809   4.956   2.693  1.9084  1.4251  1.2032
  727TIP3   OH223671   5.966   0.975  11.082  0.2326  0.3448  0.5892
  727TIP3    H123672   5.994   0.969  10.990  1.0308  0.8239  0.7923
  727TIP3    H223673   5.940   0.885  11.105  2.3765 -0.3247  0.6162
  728TIP3   OH223674   0.807   2.432   2.497 -0.1607  0.2135 -0.2170
  728TIP3    H123675   0.790   2.526   2.500 -0.0042  0.2089  1.2527
  728TIP3    H223676   0.828   2.415   2.405 -0.9966  1.4615 -0.6581
  729TIP3   OH223677   5.634   4.827   0.187  0.5396 -0.0533  0.6597
  729TIP3    H123678   5.579   4.904   0.196 -1.8900 -1.1876 -2.4982
  729TIP3    H223679   5.619   4.776   0.267  0.5798  1.7215  1.8399
  730TIP3   OH223680   5.925   4.940   2.387  0.2295 -0.1253 -0.8310
  730TIP3    H123681   5.858   5.006   2.367  1.0345  0.6960 -0.8686
  730TIP3    H223682   5.930   4.939   2.483  1.2699  0.9678 -0.8571
  731TIP3   OH223683   1.372   6.522  14.481  0.3527 -0.0477 -0.9407
  731TIP3    H123684   1.321   6.585  14.430  1.2893  0.6663 -1.0317
  731TIP3    H223685   1.435   6.486  14.418 -0.2120 -1.1240 -0.8992
  732TIP3   OH223686   4.898   1.704  14.822  0.4100 -0.0679 -0.5941
  732TIP3    H123687   4.830   1.665  14.767  1.5670 -1.4201 -1.1171
  732TIP3    H223688   4.864   1.697  14.911 -0.4961  0.0632 -0.9195
  733TIP3   OH223689   1.409   3.025   4.217  0.3693 -0.6445  0.3904
  733TIP3    H123690   1.410   2.950   4.277  2.7870 -0.8960  0.1067
  733TIP3    H223691   1.436   3.099   4.272 -0.5696 -0.2374  0.3227
  734TIP3   OH223692   5.190   6.361   5.047 -0.2671 -0.1406  0.5142
  734TIP3    H123693   5.230   6.342   5.132 -0.9905 -1.7641  0.5320
  734TIP3    H223694   5.110   6.408   5.069 -0.7141 -1.0079  0.7829
  735TIP3   OH223695   2.033   4.876   1.312  0.1673  0.0322  0.5605
  735TIP3    H123696   1.944   4.899   1.341  0.5048  1.4003  0.5413
  735TIP3    H223697   2.076   4.960   1.296  1.0030 -0.6324 -0.8792
  736TIP3   OH223698   3.732   0.614   4.673  0.2799 -0.5725 -0.5778
  736TIP3    H123699   3.682   0.695   4.665  0.9843 -0.0007  0.6445
  736TIP3    H223700   3.807   0.636   4.726  0.9465 -1.8414 -0.9396
  737TIP3   OH223701   0.091   4.808   2.228  0.2710 -0.5082 -0.4030
  737TIP3    H123702   0.124   4.726   2.265 -0.8783 -0.4754  0.7602
  737TIP3    H223703   0.157   4.873   2.252 -0.8792 -0.2962  2.5865
  738TIP3   OH223704   4.240   2.322   5.091 -0.6319 -0.4895 -0.4750
  738TIP3    H123705   4.293   2.358   5.162 -0.7963 -1.7011  0.2904
  738TIP3    H223706   4.281   2.356   5.012  2.5100 -2.7939 -0.0480
  739TIP3   OH223707   4.681   5.302   3.399 -0.5083  0.4759  0.0339
  739TIP3    H123708   4.770   5.328   3.376 -0.4602  0.1390 -0.1683
  739TIP3    H223709   4.645   5.265   3.318 -1.4379  2.1998 -0.4018
  740TIP3   OH223710   1.997   3.875   1.233  0.3136 -0.0485  0.4779
  740TIP3    H123711   2.073   3.869   1.291  0.2055 -1.6821  0.4975
  740TIP3    H223712   1.944   3.798   1.255  0.5358 -1.0635 -2.1306
  741TIP3   OH223713   2.304   1.458  12.948 -0.2566 -0.3952 -0.2704
  741TIP3    H123714   2.226   1.427  12.994  0.6558 -1.1758  0.8084
  741TIP3    H223715   2.356   1.502  13.016  0.1386  0.3517 -1.0271
  742TIP3   OH223716   4.768   0.882   5.388  0.2750 -0.4887 -0.0634
  742TIP3    H123717   4.768   0.935   5.308  0.1600  1.9012  1.4160
  742TIP3    H223718   4.694   0.915   5.439  1.5460 -0.4753  1.8918
  743TIP3   OH223719   2.003   6.428  16.409 -0.3503 -0.3539 -0.1025
  743TIP3    H123720   1.923   6.377  16.423  0.0616 -0.8889  0.3424
  743TIP3    H223721   2.048   6.426  16.494  1.5481 -2.5146 -1.0505
  744TIP3   OH223722   4.127   3.592  11.773  0.1162  0.1204 -0.2895
  744TIP3    H123723   4.177   3.582  11.854  1.9930  1.1365 -1.2526
  744TIP3    H223724   4.046   3.633  11.800  2.3173  4.3761  0.7568
  745TIP3   OH223725   2.716   3.855   3.183  0.3547 -0.1116 -0.5626
  745TIP3    H123726   2.799   3.874   3.138  0.0624 -1.0928 -1.5492
  745TIP3    H223727   2.732   3.880   3.274  1.0070  1.8314 -1.1541
  746TIP3   OH223728   0.375   4.628   4.854  0.4784  0.2943 -0.2953
  746TIP3    H123729   0.440   4.682   4.899  0.4303  0.2207 -0.1381
  746TIP3    H223730   0.345   4.683   4.782 -0.5264  0.9844  0.6233
  747TIP3   OH223731   1.390   3.108  12.751 -0.7080 -0.2823  0.4544
  747TIP3    H123732   1.360   3.018  12.738 -1.6886 -0.0910  1.2403
  747TIP3    H223733   1.484   3.100  12.766 -0.4975 -1.0124 -1.0034
  748TIP3   OH223734   6.676   2.981  12.569 -0.4990  0.3985 -0.5884
  748TIP3    H123735   6.769   2.973  12.592 -1.0350 -1.5894  1.2495
  748TIP3    H223736   6.642   3.046  12.630 -0.5899  0.0492 -0.2622
  749TIP3   OH223737   3.893   6.708   5.076  0.0733  0.4143  0.2460
  749TIP3    H123738   3.987   6.691   5.075  0.1167  0.6087 -1.2316
  749TIP3    H223739   3.879   6.761   5.154  0.8380 -1.3951  1.6787
  750TIP3   OH223740   2.845   2.042  14.775  0.1267 -0.1140  0.1411
  750TIP3    H123741   2.868   2.133  14.757 -0.2630  0.0665  0.5079
  750TIP3    H223742   2.752   2.046  14.798 -0.4076 -0.8828 -1.7808
  751TIP3   OH223743   2.165   4.710   4.758 -0.1518  0.2142 -0.2465
  751TIP3    H123744   2.226   4.783   4.772 -1.4729  1.0900  1.3537
  751TIP3    H223745   2.219   4.632   4.772  0.2555  0.9614  3.4724
  752TIP3   OH223746   2.727   1.763   3.167 -0.0676 -0.3729  0.2320
  752TIP3    H123747   2.697   1.675   3.189 -0.0328 -0.1269  1.3343
  752TIP3    H223748   2.655   1.801   3.116 -1.6234  0.1280  2.6288
  753TIP3   OH223749   5.551   3.102  11.707 -0.2713 -0.8352  0.2091
  753TIP3    H123750   5.523   3.165  11.641  2.6437  0.1311 -0.2914
  753TIP3    H223751   5.501   3.022  11.688 -1.4335  0.2406 -1.4448
  754TIP3   OH223752   0.856   2.283  16.268  0.4236  0.3835 -0.1928
  754TIP3    H123753   0.887   2.208  16.319 -0.6493  1.0655  1.5580
  754TIP3    H223754   0.808   2.336  16.332  1.9438  3.0477 -1.1519
  755TIP3   OH223755   2.801   2.022  16.679 -0.1792 -0.0986  0.2977
  755TIP3    H123756   2.737   1.979  16.736 -2.2267  1.4350 -0.6984
  755TIP3    H223757   2.865   2.060  16.738 -0.9639 -0.4951  1.4313
  756TIP3   OH223758   6.200   2.270  13.410 -0.0870 -0.8547 -0.0890
  756TIP3    H123759   6.190   2.259  13.316 -3.2551 -0.8680  0.1347
  756TIP3    H223760   6.192   2.182  13.446 -0.3821 -0.6874  0.2665
  757TIP3   OH223761   1.801   5.419   4.345  0.5841 -0.1862 -0.4304
  757TIP3    H123762   1.728   5.380   4.394 -0.6642 -0.2693 -2.2387
  757TIP3    H223763   1.861   5.451   4.412 -1.1588 -0.0370  1.1377
  758TIP3   OH223764   2.937   5.995  17.388  0.0451  0.3355  0.5973
  758TIP3    H123765   2.915   5.975  17.479 -0.9281  1.9622  0.7469
  758TIP3    H223766   2.917   6.088  17.378  0.7399  0.3338 -1.1164
  759TIP3   OH223767   4.997   6.263   1.801 -0.2269  0.4359 -0.0492
  759TIP3    H123768   4.913   6.257   1.756 -1.1545  0.7417  1.5318
  759TIP3    H223769   5.029   6.173   1.804 -0.8395  0.2084 -0.1012
  760TIP3   OH223770   0.009   1.044   0.384 -0.1302  0.7585 -0.1402
  760TIP3    H123771  -0.058   0.988   0.422  2.5423 -2.7997 -0.2456
  760TIP3    H223772   0.073   1.057   0.454  0.7878  1.1282 -1.0206
  761TIP3   OH223773   6.519   3.448   6.283 -0.1681  0.1118 -0.3005
  761TIP3    H123774   6.509   3.386   6.356  0.0054 -0.4815 -0.7725
  761TIP3    H223775   6.588   3.508   6.312  0.5501 -0.6691 -0.3373
  762TIP3   OH223776   6.434   1.225   4.990 -0.0921 -0.1126  0.1902
  762TIP3    H123777   6.478   1.146   5.022 -2.3733 -1.6515 -0.1992
  762TIP3    H223778   6.481   1.297   5.030  0.6381 -1.7542  2.4989
  763TIP3   OH223779   6.005   5.306   5.108  0.2608  0.5038  0.3057
  763TIP3    H123780   6.028   5.278   5.020 -0.8084  0.5287 -0.0025
  763TIP3    H223781   6.087   5.335   5.147  0.6481  1.0519 -0.8776
  764TIP3   OH223782   1.667   6.464   3.346  0.1534 -0.2782  0.1652
  764TIP3    H123783   1.637   6.374   3.358  0.3145 -0.2754  0.5949
  764TIP3    H223784   1.759   6.456   3.323 -0.5974 -0.4342 -3.5253
  765TIP3   OH223785   0.399   0.769  12.805  0.8714  0.3749  0.6126
  765TIP3    H123786   0.307   0.764  12.780  0.1938  0.5230  2.8079
  765TIP3    H223787   0.444   0.709  12.746 -0.9560 -1.2307  0.7779
  766TIP3   OH223788   3.155   5.219  11.556  0.2208 -0.2243  0.4340
  766TIP3    H123789   3.148   5.131  11.593  0.7352 -0.0707  0.9211
  766TIP3    H223790   3.226   5.260  11.606  1.5082 -0.2748 -1.2693
  767TIP3   OH223791   0.744   5.209   3.625 -0.1456  0.1746  0.0870
  767TIP3    H123792   0.759   5.293   3.580 -0.1160 -0.0898 -0.3980
  767TIP3    H223793   0.749   5.143   3.556 -0.7472 -0.1783  0.3716
  768TIP3   OH223794   4.466   1.030   3.398 -0.2176  0.2572  0.0977
  768TIP3    H123795   4.403   1.102   3.399 -1.5474 -0.8414  1.8983
  768TIP3    H223796   4.413   0.952   3.375  0.6965 -0.5224  0.5716
  769TIP3   OH223797   4.200   4.653   2.907  0.0855 -0.3096  0.1910
  769TIP3    H123798   4.151   4.714   2.962 -1.0770 -0.8459 -0.2153
  769TIP3    H223799   4.172   4.672   2.818 -1.0009 -2.0093  0.1198
  770TIP3   OH223800   0.182   6.089   5.752 -0.2627  0.3884 -0.1722
  770TIP3    H123801   0.267   6.134   5.754  0.2363 -0.5281 -0.2578
  770TIP3    H223802   0.149   6.098   5.842 -0.3512  1.2493 -0.2835
  771TIP3   OH223803   0.904   3.998  15.959  0.0631 -0.5497  0.6643
  771TIP3    H123804   0.834   3.935  15.975  0.9717 -1.5807  0.6732
  771TIP3    H223805   0.908   4.049  16.040 -0.1440 -1.0188  0.9758
  772TIP3   OH223806   5.911   1.382   4.401 -0.3486 -0.2260  0.3180
  772TIP3    H123807   5.916   1.474   4.374 -0.8228  0.3986  2.1980
  772TIP3    H223808   5.987   1.341   4.359 -0.6879  0.7723 -1.3791
  773TIP3   OH223809   5.247   5.465   6.329  0.9364  0.3185  0.9854
  773TIP3    H123810   5.168   5.515   6.310  1.9748  1.7547  0.2841
  773TIP3    H223811   5.220   5.374   6.322 -0.4347  0.7799 -0.1349
  774TIP3   OH223812   3.448   6.400   2.937  0.3600 -0.5301  0.1473
  774TIP3    H123813   3.515   6.469   2.942  0.9302 -1.0933  0.3918
  774TIP3    H223814   3.402   6.404   3.020  0.2348 -0.2930  0.0685
  775TIP3   OH223815   3.137   3.000  11.722  0.1014 -0.3878 -0.8494
  775TIP3    H123816   3.127   2.999  11.627  0.6977  0.4729 -0.9429
  775TIP3    H223817   3.225   3.036  11.736  0.6435 -1.9293  0.0034
  776TIP3   OH223818   6.532   3.378  12.442 -0.3706 -0.0113  0.3798
  776TIP3    H123819   6.476   3.307  12.413 -0.9620  1.5792 -2.8689
  776TIP3    H223820   6.616   3.361  12.399  0.0828  0.2624  1.1392
  777TIP3   OH223821   5.958   2.859   5.768  0.0829 -0.0268  0.1432
  777TIP3    H123822   6.026   2.809   5.812 -0.0614 -2.1538 -1.8674
  777TIP3    H223823   5.959   2.828   5.677 -2.0986  1.4476 -0.4917
  778TIP3   OH223824   3.294   1.166   5.661 -1.0557 -0.4113 -0.1589
  778TIP3    H123825   3.363   1.210   5.710  0.5368 -0.2776 -2.3767
  778TIP3    H223826   3.299   1.075   5.690  0.6525 -0.5733 -0.8416
  779TIP3   OH223827   4.905   6.356   0.058  0.2298  0.4145 -0.0779
  779TIP3    H123828   4.990   6.333   0.020 -0.1029  1.4167 -1.4991
  779TIP3    H223829   4.849   6.374  -0.017 -0.7177  1.5695  0.8603
  780TIP3   OH223830   0.758   1.430  10.583 -0.0658 -0.0752 -0.1936
  780TIP3    H123831   0.806   1.363  10.534  0.3474 -0.4168  0.6524
  780TIP3    H223832   0.789   1.419  10.673  1.9131  2.8929 -0.3765
  781TIP3   OH223833   4.300   2.717   6.637 -0.0306  0.4103  0.1575
  781TIP3    H123834   4.360   2.781   6.675  1.6381 -0.4879 -0.8417
  781TIP3    H223835   4.239   2.770   6.585 -0.3776  1.3738  1.5123
  782TIP3   OH223836   4.718   1.948  12.514 -0.1833 -0.0824  0.0307
  782TIP3    H123837   4.776   1.938  12.439  0.6102 -2.2587  0.8649
  782TIP3    H223838   4.764   2.009  12.572 -0.2703  0.7142 -0.7204
  783TIP3   OH223839   3.069   2.329  11.238  0.2357 -0.1128 -0.1420
  783TIP3    H123840   3.051   2.381  11.160  0.3453 -0.4300 -0.3773
  783TIP3    H223841   3.029   2.244  11.221  0.5576 -0.2948  0.0065
  784TIP3   OH223842   0.994   5.131  15.159 -0.1860  0.0538  0.0377
  784TIP3    H123843   1.042   5.112  15.079 -2.4448  0.4756 -1.5368
  784TIP3    H223844   1.005   5.052  15.214  2.6447  0.3723  0.0465
  785TIP3   OH223845   5.113   0.397   2.196  0.4098 -0.7073 -0.0161
  785TIP3    H123846   5.152   0.463   2.254 -2.6620  1.8641 -0.5831
  785TIP3    H223847   5.041   0.360   2.247  0.6190 -1.9094 -0.5667
  786TIP3   OH223848   5.461   5.692   6.152  0.0741 -0.1406 -0.2013
  786TIP3    H123849   5.475   5.600   6.129 -0.2529 -0.0947 -0.6028
  786TIP3    H223850   5.425   5.691   6.240 -1.6139 -0.5111 -0.8510
  787TIP3   OH223851   4.564   5.815   1.222 -0.1944  0.4277 -0.3407
  787TIP3    H123852   4.530   5.820   1.132  0.5842 -0.9601 -0.7512
  787TIP3    H223853   4.495   5.771   1.271  0.6402 -1.8159 -1.0326
  788TIP3   OH223854   5.077   0.809   4.859  0.4153 -0.3155  0.3884
  788TIP3    H123855   5.108   0.839   4.945  0.8886 -1.4813  0.6488
  788TIP3    H223856   5.156   0.801   4.806  0.0115  1.5761 -0.5802
  789TIP3   OH223857   6.705   0.108   1.614 -0.4074  0.1809  0.1940
  789TIP3    H123858   6.631   0.092   1.673 -0.4474 -1.6101 -0.2974
  789TIP3    H223859   6.781   0.074   1.662 -0.0836  0.8708  0.1767
  790TIP3   OH223860   4.006   1.755   1.050 -0.1967  0.3096  0.1349
  790TIP3    H123861   4.060   1.746   1.128  0.1283  1.0419  0.0059
  790TIP3    H223862   3.959   1.837   1.063 -0.6765  0.0745 -0.1159
  791TIP3   OH223863   1.142   1.421   0.683 -0.4398 -0.5118 -0.1980
  791TIP3    H123864   1.169   1.513   0.677  1.5109 -1.1119 -1.9952
  791TIP3    H223865   1.177   1.391   0.766  3.8364 -0.9168 -1.8916
  792TIP3   OH223866   3.573   4.555   3.806  0.4610 -0.5240  0.8421
  792TIP3    H123867   3.632   4.599   3.746 -0.4332  0.2880  0.5273
  792TIP3    H223868   3.602   4.464   3.807  1.9717 -0.0663  1.0423
  793TIP3   OH223869   3.941   0.835   0.890 -0.3020 -0.3422  0.0435
  793TIP3    H123870   3.962   0.865   0.978 -0.8428  1.0746 -0.2778
  793TIP3    H223871   4.023   0.842   0.841 -0.2965  0.0911  0.1148
  794TIP3   OH223872   0.213   1.318   4.032 -0.0711 -0.1675  0.2207
  794TIP3    H123873   0.200   1.413   4.038 -3.9810 -0.4173 -1.4296
  794TIP3    H223874   0.304   1.309   4.004  0.6811  2.9913  1.1305
  795TIP3   OH223875   1.300   2.321  16.319  0.2937 -0.0553 -0.6147
  795TIP3    H123876   1.301   2.281  16.232 -0.3896 -2.7923  0.5488
  795TIP3    H223877   1.223   2.377  16.319  0.4222  0.1454 -1.8210
  796TIP3   OH223878   5.686   3.235  12.933  0.1492 -0.6520  0.0701
  796TIP3    H123879   5.656   3.144  12.933  0.6636 -0.8258  0.3680
  796TIP3    H223880   5.667   3.266  13.021 -0.3244 -0.3687 -0.1304
  797TIP3   OH223881   2.539   4.511   5.439 -0.3742 -0.3548  0.7152
  797TIP3    H123882   2.472   4.570   5.406 -0.2563 -0.3662  0.4539
  797TIP3    H223883   2.621   4.544   5.401 -0.3418 -0.8439  0.3502
  798TIP3   OH223884   6.457   1.700  14.081 -0.1573 -0.1558 -0.3247
  798TIP3    H123885   6.499   1.663  14.003  1.3187  1.0553 -0.1449
  798TIP3    H223886   6.518   1.767  14.112 -0.2399 -1.2135  2.4178
  799TIP3   OH223887   1.005   4.986  12.950 -0.6126 -0.0792 -0.7330
  799TIP3    H123888   1.059   4.977  12.871  0.6615  4.1403 -0.5853
  799TIP3    H223889   0.946   5.058  12.930 -0.2191  1.1585  2.1239
  800TIP3   OH223890   1.571   0.417   3.395 -0.4816 -0.0694  0.2882
  800TIP3    H123891   1.507   0.455   3.455 -0.9410 -0.1011 -0.1745
  800TIP3    H223892   1.655   0.426   3.440 -0.8465 -0.2758  1.0157
  801TIP3   OH223893   1.196   4.650  14.793 -0.4526  0.0421  0.2775
  801TIP3    H123894   1.126   4.587  14.772  0.5790 -0.2382 -2.9769
  801TIP3    H223895   1.169   4.730  14.749  0.3431  0.5150  0.6381
  802TIP3   OH223896   1.144   1.693  15.807  0.1514  0.3854  0.1694
  802TIP3    H123897   1.071   1.754  15.800 -1.7560 -1.5703  1.7437
  802TIP3    H223898   1.124   1.624  15.743 -0.2903 -0.9811  1.7191
  803TIP3   OH223899   5.839   3.860   5.904  0.6377 -0.1455  0.3033
  803TIP3    H123900   5.929   3.892   5.895  0.6601 -0.0791  0.7223
  803TIP3    H223901   5.849   3.772   5.940  0.5278 -0.0482  0.5740
  804TIP3   OH223902   1.435   6.597  15.156  0.4188  0.4258 -0.1651
  804TIP3    H123903   1.391   6.622  15.074  0.9241  0.4441 -0.4353
  804TIP3    H223904   1.363   6.586  15.219  0.1350  2.2402 -0.1105
  805TIP3   OH223905   1.800   3.814  14.735 -0.3148 -0.3755  0.1613
  805TIP3    H123906   1.800   3.758  14.657 -0.8603  0.3704 -0.3950
  805TIP3    H223907   1.846   3.763  14.801 -1.0122 -1.5718 -0.2504
  806TIP3   OH223908   4.071   4.321   4.710 -0.3029  0.3145 -0.0046
  806TIP3    H123909   3.988   4.355   4.744 -0.3039  0.3398 -0.0324
  806TIP3    H223910   4.065   4.226   4.724  0.3534  0.4629  1.5497
  807TIP3   OH223911   4.181   6.449  16.846 -0.2956  0.0888  0.5947
  807TIP3    H123912   4.244   6.429  16.776 -1.1998  0.9177 -0.4894
  807TIP3    H223913   4.175   6.368  16.896  0.8532 -0.3269  0.1038
  808TIP3   OH223914   2.610   4.100   5.920 -0.2109 -0.1570 -0.1987
  808TIP3    H123915   2.651   4.117   5.835  0.4464  2.1823  0.5117
  808TIP3    H223916   2.645   4.168   5.977 -2.1252 -0.4832  1.4714
  809TIP3   OH223917   3.492   2.698  15.926 -0.3632  0.1502 -0.2590
  809TIP3    H123918   3.420   2.700  15.862  0.8985  3.1713 -1.8253
  809TIP3    H223919   3.455   2.734  16.006 -1.2844 -1.0535 -0.1291
  810TIP3   OH223920   0.499   3.975   3.743  0.0189  0.4809  0.2890
  810TIP3    H123921   0.592   3.997   3.729  0.3145 -0.1683  1.1687
  810TIP3    H223922   0.492   3.884   3.717 -0.9883  1.2150 -2.3538
  811TIP3   OH223923   1.077   3.748  13.940  0.2685  0.0983  0.0872
  811TIP3    H123924   1.163   3.706  13.939  1.5439  2.5267 -0.1048
  811TIP3    H223925   1.092   3.832  13.983 -1.5435  1.4835 -1.7949
  812TIP3   OH223926   4.977   2.118   1.721  0.0255  0.2338  0.1781
  812TIP3    H123927   4.965   2.047   1.784 -1.7135 -1.0813 -1.4760
  812TIP3    H223928   4.996   2.074   1.638 -1.2167  1.6434 -0.9391
  813TIP3   OH223929   5.930   0.133   6.668  0.4153 -0.3915 -0.0909
  813TIP3    H123930   5.987   0.096   6.734 -0.9291 -0.9386  0.8139
  813TIP3    H223931   5.872   0.061   6.643 -0.5173  0.3882 -0.2470
  814TIP3   OH223932   2.316   1.859   3.385  0.2130  0.3413 -0.2681
  814TIP3    H123933   2.226   1.884   3.407  0.6016  0.8601  0.8137
  814TIP3    H223934   2.310   1.767   3.362 -0.6087  0.3774 -0.2468
  815TIP3   OH223935   2.579   5.378  12.031  0.3304 -0.8383  0.4939
  815TIP3    H123936   2.485   5.380  12.017  0.5496 -0.9047 -1.1753
  815TIP3    H223937   2.592   5.318  12.104 -0.9840  0.0333  1.4761
  816TIP3   OH223938   2.406   3.113   3.657 -0.5659  0.3390 -0.9397
  816TIP3    H123939   2.314   3.087   3.656 -0.5142  0.1673 -1.6502
  816TIP3    H223940   2.443   3.076   3.577  0.7412 -1.7195  0.5235
  817TIP3   OH223941   3.557   3.598   5.813 -0.2611 -0.1431  0.1046
  817TIP3    H123942   3.585   3.547   5.888  1.0651 -0.7793 -0.7811
  817TIP3    H223943   3.637   3.615   5.764 -1.2852 -1.5729 -2.2659
  818TIP3   OH223944   0.864   5.565  15.064 -0.6637 -0.0758 -0.1219
  818TIP3    H123945   0.803   5.564  15.138 -0.6616  0.9919 -0.0881
  818TIP3    H223946   0.860   5.476  15.028  0.3497 -1.0123  1.9592
  819TIP3   OH223947   6.503   1.004  16.901 -0.5452  0.1397 -0.1542
  819TIP3    H123948   6.527   1.091  16.871 -0.0962 -0.0501 -0.3556
  819TIP3    H223949   6.572   0.979  16.962 -0.4211 -0.2635 -0.4565
  820TIP3   OH223950   3.058   1.295   2.871  0.2512 -0.2021 -0.3069
  820TIP3    H123951   3.120   1.329   2.936  1.0971  0.3439 -1.3583
  820TIP3    H223952   2.985   1.357   2.873  1.1534  0.9405 -1.2236
  821TIP3   OH223953   1.999   1.724  16.892  0.4291 -0.3023 -0.3377
  821TIP3    H123954   2.038   1.772  16.820 -0.8623  2.0809  0.4312
  821TIP3    H223955   1.907   1.750  16.892  0.5676  0.6228  2.7225
  822TIP3   OH223956   4.188   2.492   5.926  0.2952 -0.4415  0.5368
  822TIP3    H123957   4.167   2.584   5.941  3.5506  0.0164  3.4618
  822TIP3    H223958   4.143   2.470   5.844 -1.5286  3.3619  0.3164
  823TIP3   OH223959   0.946   2.268   2.712 -0.2076  0.1262  0.2055
  823TIP3    H123960   0.952   2.190   2.657 -0.8559  0.7161 -0.7389
  823TIP3    H223961   0.922   2.338   2.652 -0.6959  0.8507  1.2063
  824TIP3   OH223962   4.715   3.749   3.971  0.6862  0.2964 -0.1814
  824TIP3    H123963   4.810   3.738   3.973  0.5264 -1.1176  1.2182
  824TIP3    H223964   4.687   3.704   3.892  1.0861 -0.1837 -0.0530
  825TIP3   OH223965   4.185   5.099  10.637  0.2845 -0.0078 -0.1167
  825TIP3    H123966   4.268   5.087  10.590  1.0440  0.0804  1.1407
  825TIP3    H223967   4.199   5.053  10.720 -0.9471 -0.0046  0.0996
  826TIP3   OH223968   2.651   0.717   3.946  0.3699  0.4332  0.0637
  826TIP3    H123969   2.698   0.796   3.971 -1.1105  1.7367 -1.0290
  826TIP3    H223970   2.600   0.693   4.023  1.7709 -0.2204  0.8121
  827TIP3   OH223971   2.077   5.285   0.620 -0.3659 -0.4754 -0.8914
  827TIP3    H123972   2.028   5.205   0.641 -0.2729 -0.6872 -1.4489
  827TIP3    H223973   2.147   5.255   0.562 -0.5483  0.0636 -1.3979
  828TIP3   OH223974   3.208   3.833  14.873 -0.5766 -0.0893  0.3188
  828TIP3    H123975   3.291   3.786  14.866 -0.0161  0.8223  0.6443
  828TIP3    H223976   3.201   3.857  14.965 -1.2700 -0.2555  0.3175
  829TIP3   OH223977   0.859   6.679  16.126  0.3932  0.5201 -0.3934
  829TIP3    H123978   0.895   6.750  16.072 -0.8072  0.7495 -0.9205
  829TIP3    H223979   0.778   6.715  16.161  1.1498  0.3837  1.6152
  830TIP3   OH223980   6.428   2.640   1.861 -0.5768 -0.1754 -0.0208
  830TIP3    H123981   6.415   2.605   1.773  1.6899 -0.1190 -0.4423
  830TIP3    H223982   6.484   2.575   1.904  3.4894  2.4672 -0.7267
  831TIP3   OH223983   5.048   6.105   2.122  0.0684  0.3271  0.7372
  831TIP3    H123984   5.079   6.047   2.052 -0.5868 -0.2259  0.9032
  831TIP3    H223985   5.083   6.191   2.098 -1.3955  0.4715 -1.1071
  832TIP3   OH223986   2.125   0.132   1.562 -0.3961  0.1791 -0.5977
  832TIP3    H123987   2.096   0.041   1.557  0.1433 -0.0797  0.6197
  832TIP3    H223988   2.165   0.149   1.477  0.3536 -1.0448 -0.5215
  833TIP3   OH223989   0.900   4.896  12.079 -0.1712 -0.1982  1.0402
  833TIP3    H123990   0.959   4.825  12.053  1.0389  1.4424 -0.9965
  833TIP3    H223991   0.948   4.944  12.146 -0.1909 -0.2331  1.0794
  834TIP3   OH223992   1.317   4.627   5.338  0.3495 -0.4056 -0.2878
  834TIP3    H123993   1.284   4.560   5.397  1.1185  0.3212  1.0254
  834TIP3    H223994   1.287   4.710   5.377 -0.1332  0.0520 -1.5764
  835TIP3   OH223995   6.658   1.566   5.271  0.3850 -0.7804 -0.3030
  835TIP3    H123996   6.697   1.510   5.338  1.8913 -1.5987 -1.7869
  835TIP3    H223997   6.729   1.580   5.208 -0.4653  1.4138 -0.8502
  836TIP3   OH223998   3.460   5.882  14.185  0.1422  0.0623  0.1673
  836TIP3    H123999   3.482   5.917  14.098 -0.3637  1.1151  0.4522
  836TIP3    H224000   3.538   5.897  14.237  0.5102 -0.7259 -0.1319
  837TIP3   OH224001   3.658   5.482  14.991 -0.1237  0.0580  0.3101
  837TIP3    H124002   3.711   5.405  14.972 -0.0980  0.2987 -0.6558
  837TIP3    H224003   3.658   5.489  15.086  0.9890 -0.3566  0.3501
  838TIP3   OH224004   1.778   1.260  17.241 -0.1474 -0.5297 -0.4074
  838TIP3    H124005   1.740   1.311  17.312 -1.1721  2.1994 -2.7213
  838TIP3    H224006   1.711   1.196  17.219  0.1510 -1.3503  0.9945
  839TIP3   OH224007   5.275   0.132   6.050  0.1028 -0.3504 -0.4150
  839TIP3    H124008   5.225   0.092   6.122  0.5334 -0.1876 -0.0145
  839TIP3    H224009   5.359   0.155   6.090  0.2092  0.0903 -0.8793
  840TIP3   OH224010   2.400   2.923   3.964  0.1322 -0.0095 -0.8386
  840TIP3    H124011   2.387   2.913   3.870 -0.7481  1.6781 -0.9348
  840TIP3    H224012   2.361   2.845   4.003 -0.8432 -0.0072 -1.7888
  841TIP3   OH224013   6.097   6.617  16.942  0.2100 -0.1019  0.0125
  841TIP3    H124014   6.142   6.699  16.962  0.9724 -0.7452  1.0162
  841TIP3    H224015   6.148   6.579  16.871 -0.2123  0.3346 -0.5348
  842TIP3   OH224016   4.845   0.350   1.067 -0.4599 -0.1867 -0.5113
  842TIP3    H124017   4.852   0.422   1.004 -0.2551 -1.9308 -2.5733
  842TIP3    H224018   4.768   0.300   1.039 -0.4870 -0.9078  0.7545
  843TIP3   OH224019   5.849   4.668   2.956 -0.8147  0.2270 -0.1478
  843TIP3    H124020   5.836   4.619   2.875 -0.0254 -1.8805  0.9359
  843TIP3    H224021   5.923   4.727   2.937  1.1177 -2.0856 -0.2500
  844TIP3   OH224022   6.574   6.394  12.893 -0.1456  0.0443  0.4510
  844TIP3    H124023   6.564   6.310  12.938 -0.8947  0.6744  1.4968
  844TIP3    H224024   6.669   6.407  12.888  0.1176 -2.0254 -2.0024
  845TIP3   OH224025   0.698   5.323  11.942  0.3308 -0.3026 -0.2948
  845TIP3    H124026   0.676   5.391  11.878 -0.9491 -0.5306 -0.1368
  845TIP3    H224027   0.628   5.330  12.007  1.1912 -0.5783  0.6853
  846TIP3   OH224028   5.459   0.961  16.609 -0.0883 -0.0832  0.0630
  846TIP3    H124029   5.448   0.919  16.524 -1.7665 -0.2861  0.3334
  846TIP3    H224030   5.394   0.918  16.665 -0.3868  1.3920  0.9053
  847TIP3   OH224031   6.701   5.917  14.245 -0.0264 -0.3337 -0.1072
  847TIP3    H124032   6.770   5.876  14.193  1.5763  3.4259 -1.2608
  847TIP3    H224033   6.747   5.960  14.317 -1.4597  0.2111  0.5209
  848TIP3   OH224034   3.509   2.818   6.616  0.3613 -0.0179 -0.3199
  848TIP3    H124035   3.563   2.835   6.539  1.3636 -2.6397 -0.2954
  848TIP3    H224036   3.470   2.903   6.637  0.2936  0.8648 -3.5008
  849TIP3   OH224037   0.191   3.568  13.445 -0.1141 -0.5038  0.0863
  849TIP3    H124038   0.284   3.559  13.424 -0.2162 -1.4248 -0.0294
  849TIP3    H224039   0.189   3.584  13.539  0.1919  0.2309 -0.0294
  850TIP3   OH224040   3.053   6.449   4.920 -0.6291 -0.1419 -0.3511
  850TIP3    H124041   3.089   6.389   4.986 -1.8553  0.6913  1.1352
  850TIP3    H224042   3.110   6.525   4.924  0.2806 -0.7255 -1.4745
  851TIP3   OH224043   3.099   0.979  16.489  0.2207 -0.0572 -0.3103
  851TIP3    H124044   3.031   0.952  16.550  1.1073 -0.4864  0.5293
  851TIP3    H224045   3.161   0.906  16.490  0.1843 -0.1359 -1.8466
  852TIP3   OH224046   2.239   6.571   2.618  0.1431  0.4030 -0.0226
  852TIP3    H124047   2.197   6.521   2.688  0.5280  0.4369  0.2364
  852TIP3    H224048   2.315   6.518   2.593  0.3432  0.6816 -0.0036
  853TIP3   OH224049   2.146   5.542  14.598 -0.3214  0.2614  0.0030
  853TIP3    H124050   2.207   5.501  14.660 -0.8235  0.7846  0.8679
  853TIP3    H224051   2.060   5.508  14.624 -0.4382 -0.2811 -1.0503
  854TIP3   OH224052   5.029   3.270  11.614 -0.2963 -0.2678  0.1479
  854TIP3    H124053   5.007   3.359  11.587 -0.0380 -0.5908 -1.1783
  854TIP3    H224054   5.122   3.261  11.593 -0.4790 -1.0588 -0.3378
  855TIP3   OH224055   2.615   0.858   4.608  0.2795 -0.4212  0.7211
  855TIP3    H124056   2.549   0.877   4.675  0.7174  1.7058  0.6347
  855TIP3    H224057   2.620   0.939   4.557  1.8047 -1.1097 -0.2718
  856TIP3   OH224058   0.786   1.131   2.768  0.0114 -0.3761 -0.1140
  856TIP3    H124059   0.771   1.101   2.679  1.0932 -0.6212 -0.2244
  856TIP3    H224060   0.856   1.196   2.761 -1.0164  0.8342  0.3659
  857TIP3   OH224061   5.198   4.324   1.342  0.7859  0.5282  0.4191
  857TIP3    H124062   5.181   4.340   1.435  0.0973  0.9817  0.2207
  857TIP3    H224063   5.112   4.325   1.301  1.1677  1.3925 -0.3898
  858TIP3   OH224064   5.000   0.943   6.069 -0.1107 -0.1825 -0.6067
  858TIP3    H124065   4.955   0.858   6.073  1.4908 -1.0276  0.5019
  858TIP3    H224066   5.083   0.928   6.114 -0.5919  2.4951  1.4341
  859TIP3   OH224067   4.194   5.107  17.025  0.4201 -0.1538  0.2712
  859TIP3    H124068   4.144   5.026  17.024  0.0439  0.0612  0.9745
  859TIP3    H224069   4.276   5.085  17.069  0.2419 -0.1168  0.6279
  860TIP3   OH224070   2.994   6.300  15.931 -0.1275 -0.3205 -0.1227
  860TIP3    H124071   2.905   6.300  15.895  0.1711 -1.4775 -0.9197
  860TIP3    H224072   3.040   6.367  15.880 -0.0980 -0.9278 -0.9136
  861TIP3   OH224073   6.759   6.102  13.325 -0.0348 -0.4667 -0.2623
  861TIP3    H124074   6.711   6.114  13.407  0.2965  0.1106 -0.1431
  861TIP3    H224075   6.754   6.009  13.307  2.0605 -1.0723  1.7701
  862TIP3   OH224076   3.784   1.620   0.604 -0.1475  0.2522  0.2325
  862TIP3    H124077   3.767   1.609   0.698 -0.2093  0.2277  0.2189
  862TIP3    H224078   3.766   1.534   0.567  0.4049  0.1145  0.2724
  863TIP3   OH224079   0.957   2.514  13.126 -0.0492 -0.3458  0.7452
  863TIP3    H124080   0.887   2.451  13.141  0.1750 -0.7613  0.0872
  863TIP3    H224081   0.939   2.550  13.039 -0.0747  0.3765  1.0400
  864TIP3   OH224082   5.677   6.652  12.301  0.4151 -0.2896  0.1045
  864TIP3    H124083   5.751   6.642  12.242 -1.2757  0.2388 -2.2388
  864TIP3    H224084   5.647   6.742  12.288  0.2907  0.0300  2.2114
  865TIP3   OH224085   3.186   1.940   3.723 -0.1829  0.1258  0.6393
  865TIP3    H124086   3.254   1.942   3.790  0.3540  1.2742  0.0917
  865TIP3    H224087   3.221   1.882   3.655  0.9768  1.9026 -0.3420
  866TIP3   OH224088   5.392   6.308  13.843 -0.1660  0.2887 -0.4714
  866TIP3    H124089   5.338   6.339  13.770 -1.3593  0.6912  0.5462
  866TIP3    H224090   5.387   6.378  13.907 -0.8174 -0.9168  0.8397
  867TIP3   OH224091   2.331   6.399   5.037 -0.1509  0.4226 -0.1227
  867TIP3    H124092   2.363   6.335   5.100  0.9677  1.4261  0.3554
  867TIP3    H224093   2.352   6.361   4.951 -1.3367 -0.7689  0.0955
  868TIP3   OH224094   2.242   2.462   5.348  0.3684  0.2548 -0.4334
  868TIP3    H124095   2.244   2.528   5.279  0.0965 -0.3727 -1.0430
  868TIP3    H224096   2.317   2.484   5.403  1.0703  0.2874 -1.3766
  869TIP3   OH224097   6.701   1.201   5.213  0.4839 -0.2346  0.0089
  869TIP3    H124098   6.759   1.243   5.150  0.0903  0.7548  0.2876
  869TIP3    H224099   6.650   1.139   5.162  1.0567 -0.3638 -0.4147
  870TIP3   OH224100   1.290   0.909  12.499  0.4786  0.2415 -0.0605
  870TIP3    H124101   1.250   0.904  12.586  0.1877  2.4154 -0.0335
  870TIP3    H224102   1.228   0.863  12.442  0.1408 -0.2555  0.6788
  871TIP3   OH224103   0.266   3.157   6.130 -0.0056 -0.1495 -0.0367
  871TIP3    H124104   0.310   3.153   6.215 -1.5870  3.2643  1.1148
  871TIP3    H224105   0.213   3.077   6.126 -0.4270 -0.0704  2.5311
  872TIP3   OH224106   6.398   3.729  17.059  0.6097 -0.4556  0.3644
  872TIP3    H124107   6.417   3.691  16.973  0.4288  0.8574 -0.2811
  872TIP3    H224108   6.483   3.758  17.091  0.6670 -0.8811  0.6042
  873TIP3   OH224109   2.999   3.026   3.625  0.3276 -0.0542 -0.5584
  873TIP3    H124110   2.987   2.973   3.703  0.1130 -0.2400 -0.7151
  873TIP3    H224111   2.925   3.088   3.626  0.4165  0.0514 -0.5268
  874TIP3   OH224112   5.067   3.945  14.407  0.1675  0.5294 -0.0199
  874TIP3    H124113   5.092   3.977  14.320 -0.6160  2.0470  0.2836
  874TIP3    H224114   5.137   3.976  14.464 -0.1614  0.9742  0.1443
  875TIP3   OH224115   0.220   0.316   6.491  0.9446 -0.1037 -0.0596
  875TIP3    H124116   0.141   0.349   6.534  0.3582  0.1025 -1.2464
  875TIP3    H224117   0.196   0.229   6.461  1.1688 -0.0432 -0.4158
  876TIP3   OH224118   3.748   3.995   4.716 -0.5478  1.0969  0.0547
  876TIP3    H124119   3.828   3.969   4.670 -1.8306 -0.1078 -1.6165
  876TIP3    H224120   3.768   4.082   4.752  1.1629  1.2649 -1.1839
  877TIP3   OH224121   0.053   5.140  15.977  0.0430 -0.4954 -0.0731
  877TIP3    H124122   0.022   5.226  15.949  0.5874  0.0774  1.0111
  877TIP3    H224123   0.085   5.154  16.066  0.2670 -1.7981  0.0727
  878TIP3   OH224124   1.974   5.210   1.463  0.6479 -0.0227 -0.0796
  878TIP3    H124125   2.033   5.173   1.529  1.9418  1.1677 -0.5136
  878TIP3    H224126   1.937   5.134   1.418 -0.6981 -0.8933  2.3215
  879TIP3   OH224127   3.628   4.350   0.648 -0.0650 -0.5421 -0.0552
  879TIP3    H124128   3.718   4.318   0.657  0.6332  1.1973 -0.6211
  879TIP3    H224129   3.636   4.444   0.637 -2.0161 -0.2383  0.6180
  880TIP3   OH224130   1.695   5.437   3.233 -0.2906 -0.7430  0.2868
  880TIP3    H124131   1.698   5.398   3.145  1.4334 -0.5165  0.2067
  880TIP3    H224132   1.714   5.530   3.218  0.3703 -0.7668  0.9147
  881TIP3   OH224133   2.282   4.904   2.531 -0.2798 -0.2586  0.3531
  881TIP3    H124134   2.213   4.943   2.476 -2.2786 -0.4897  2.5543
  881TIP3    H224135   2.297   4.818   2.493 -1.5223 -0.3623  0.0396
  882TIP3   OH224136   5.952   4.761  16.425 -0.4411 -0.5660  0.0598
  882TIP3    H124137   6.044   4.774  16.447 -0.8793  2.2028  0.5606
  882TIP3    H224138   5.923   4.694  16.487  0.9591 -0.6806  0.6386
  883TIP3   OH224139   3.510   1.387   5.528  0.3838 -0.2691 -0.1494
  883TIP3    H124140   3.551   1.368   5.444  1.2735 -0.7913  0.3788
  883TIP3    H224141   3.579   1.369   5.592 -0.8982 -1.9680  0.8397
  884TIP3   OH224142   5.101   3.705   6.232  0.2098  0.2007  0.7323
  884TIP3    H124143   5.111   3.679   6.323 -1.1626 -1.1053  0.5482
  884TIP3    H224144   5.151   3.640   6.182  1.1043  1.0108  0.5298
  885TIP3   OH224145   3.980   0.387  15.338 -1.0363 -0.7864  0.0035
  885TIP3    H124146   4.011   0.434  15.261 -0.1498  0.2935  0.9737
  885TIP3    H224147   3.966   0.455  15.404  1.2448 -1.8660  1.7963
  886TIP3   OH224148   0.334   4.914  12.198  0.4019  0.3469 -0.4845
  886TIP3    H124149   0.371   4.949  12.278 -0.6253  2.4494 -0.8649
  886TIP3    H224150   0.399   4.851  12.167  1.0666 -0.1024  1.6670
  887TIP3   OH224151   1.647   0.469   2.941 -0.2011 -0.3556 -0.2088
  887TIP3    H124152   1.637   0.385   2.896  1.3208  0.0043 -1.3170
  887TIP3    H224153   1.666   0.531   2.871  0.2191  0.6138  0.7407
  888TIP3   OH224154   0.825   1.764  11.291 -0.1577 -0.2933 -0.1532
  888TIP3    H124155   0.877   1.773  11.210  1.5110 -0.0196  0.8973
  888TIP3    H224156   0.820   1.669  11.305 -0.6727 -0.3540 -0.6955
  889TIP3   OH224157   0.236   2.559  15.505  0.3730  0.1752 -0.2822
  889TIP3    H124158   0.148   2.580  15.537  0.7517  1.6802 -0.1546
  889TIP3    H224159   0.274   2.644  15.484  0.8157 -0.6217 -3.0284
  890TIP3   OH224160   6.368   3.593   2.962 -0.5709 -0.2615 -0.4347
  890TIP3    H124161   6.374   3.665   2.899 -2.9376  0.1740 -0.2353
  890TIP3    H224162   6.396   3.633   3.045  0.2081 -0.1883 -0.7188
  891TIP3   OH224163   5.568   4.883   3.963 -0.1063 -0.1731 -0.1187
  891TIP3    H124164   5.538   4.850   3.879 -1.2220 -1.0474  0.5898
  891TIP3    H224165   5.491   4.876   4.020  0.7509 -0.0215  1.0928
  892TIP3   OH224166   5.723   5.362   0.364 -0.4191 -0.7563 -0.4120
  892TIP3    H124167   5.668   5.300   0.411  0.3589 -1.4831 -0.4473
  892TIP3    H224168   5.806   5.317   0.352  0.8431  0.9638  1.2482
  893TIP3   OH224169   2.171   3.783  17.166 -0.2901  0.4656  0.0673
  893TIP3    H124170   2.265   3.762  17.171  0.1069  2.0165 -0.4863
  893TIP3    H224171   2.132   3.708  17.121  0.2705 -1.3106  2.3528
  894TIP3   OH224172   2.436   4.358  16.112 -0.7829  0.1074 -0.2179
  894TIP3    H124173   2.428   4.364  16.208  0.3809 -2.2408  0.0914
  894TIP3    H224174   2.345   4.355  16.082 -1.1717  0.2083  0.8789
  895TIP3   OH224175   6.191   3.555   6.357  0.3318  0.5204 -0.1546
  895TIP3    H124176   6.107   3.509   6.368  0.4233  0.4182  0.1270
  895TIP3    H224177   6.190   3.623   6.424 -0.8870  2.5756 -2.1193
  896TIP3   OH224178   1.036   6.003   0.232  0.7061  0.3475 -0.2849
  896TIP3    H124179   0.967   5.996   0.299  0.2955 -2.0073 -0.8661
  896TIP3    H224180   1.108   5.950   0.266  0.5044 -0.8654 -1.6443
  897TIP3   OH224181   5.834   4.758   2.191 -0.0049 -0.4926 -0.2711
  897TIP3    H124182   5.853   4.833   2.248  0.3276  0.1234 -1.1549
  897TIP3    H224183   5.886   4.775   2.112  0.4510 -1.9076 -0.3087
  898TIP3   OH224184   0.848   4.171   0.023  0.3874 -0.0059  0.7594
  898TIP3    H124185   0.773   4.222  -0.005 -0.8783 -0.4772  3.0206
  898TIP3    H224186   0.885   4.220   0.096  1.0721 -0.7555  0.9427
  899TIP3   OH224187   2.326   4.361  13.378  0.2514 -0.0758 -0.4251
  899TIP3    H124188   2.400   4.307  13.349  1.0164  1.4399 -1.4033
  899TIP3    H224189   2.365   4.446  13.398 -1.0880  0.4340  0.1112
  900TIP3   OH224190   6.349   5.899  17.368  0.1830  0.7031 -0.1453
  900TIP3    H124191   6.315   5.845  17.297 -0.6044 -0.7387  1.2498
  900TIP3    H224192   6.350   5.840  17.444  0.7342  2.2563  1.0987
  901TIP3   OH224193   1.072   0.473  17.336  0.6124 -0.7198  0.3591
  901TIP3    H124194   1.137   0.497  17.270  0.0152 -2.0126 -0.7430
  901TIP3    H224195   1.002   0.537  17.325  1.9143  1.1427  2.0421
  902TIP3   OH224196   0.945   6.510  16.588 -0.0891  0.1740 -0.7964
  902TIP3    H124197   0.945   6.448  16.515 -1.6094 -0.6079 -0.1860
  902TIP3    H224198   1.016   6.571  16.568 -0.9802  0.5143 -3.3628
  903TIP3   OH224199   2.821   5.072   4.163  0.2195 -0.2540  0.2066
  903TIP3    H124200   2.725   5.073   4.171  0.1491 -0.8582 -0.5071
  903TIP3    H224201   2.851   5.128   4.235 -0.6380 -0.5759  0.8351
  904TIP3   OH224202   4.087   6.186   1.482 -0.3844  0.5052 -0.1659
  904TIP3    H124203   4.128   6.265   1.516 -0.9410  1.7307 -2.2101
  904TIP3    H224204   4.161   6.130   1.458  0.1535  1.9465 -2.1070
  905TIP3   OH224205   0.704   5.200   3.963 -0.0914 -0.5507  0.2151
  905TIP3    H124206   0.790   5.235   3.988  0.3083 -0.5844 -1.0687
  905TIP3    H224207   0.660   5.183   4.047  2.0945 -2.9643  1.0034
  906TIP3   OH224208   4.986   3.480   0.530  0.0418  0.3894 -0.2692
  906TIP3    H124209   4.918   3.414   0.517 -1.0569  1.5812 -0.7639
  906TIP3    H224210   4.939   3.562   0.537  1.2836  0.9837  1.7643
  907TIP3   OH224211   6.532   0.065   2.318  0.2576  0.1015 -0.1455
  907TIP3    H124212   6.623   0.046   2.293 -0.1192 -0.3223 -1.2260
  907TIP3    H224213   6.504   0.132   2.256 -0.3018 -0.0510 -0.0589
  908TIP3   OH224214   0.789   6.742   5.351 -0.3478 -0.0419  0.0820
  908TIP3    H124215   0.723   6.793   5.304  2.0412  4.0513  0.7117
  908TIP3    H224216   0.746   6.715   5.431 -2.0164  0.0772 -0.7327
  909TIP3   OH224217   0.488   0.661   4.381 -0.0154  0.3738 -0.5473
  909TIP3    H124218   0.482   0.582   4.434 -0.2005  0.9976  0.3783
  909TIP3    H224219   0.433   0.725   4.426  0.5056  1.1719 -1.0215
  910TIP3   OH224220   2.141   0.485  16.164  0.4868 -0.0578 -0.2548
  910TIP3    H124221   2.066   0.485  16.223  1.6875 -2.1271  1.3861
  910TIP3    H224222   2.190   0.564  16.188  0.5356 -0.4459  0.9531
  911TIP3   OH224223   6.509   3.803   1.638  0.0983  0.1360 -0.0199
  911TIP3    H124224   6.544   3.718   1.611 -0.5835 -0.3180  0.4954
  911TIP3    H224225   6.414   3.792   1.635  0.0068  0.6428  0.7817
  912TIP3   OH224226   5.770   3.907  13.389  0.3092 -0.2129  0.1728
  912TIP3    H124227   5.756   3.905  13.484 -1.6311 -0.5814 -0.0883
  912TIP3    H224228   5.800   3.996  13.372  0.2312  0.0051  1.0810
  913TIP3   OH224229   1.743   1.004  16.999  0.5871  0.6689  0.0892
  913TIP3    H124230   1.754   1.050  16.915  2.0308  1.6074  0.7506
  913TIP3    H224231   1.665   1.044  17.038 -1.1681 -0.9860 -1.5137
  914TIP3   OH224232   1.659   0.242   3.749 -0.2634  0.3120  0.2890
  914TIP3    H124233   1.725   0.311   3.753 -0.3576  0.4574 -0.5516
  914TIP3    H224234   1.709   0.162   3.732 -0.3378  0.4924 -0.8145
  915TIP3   OH224235   1.691   2.038   6.131 -0.3445 -0.3550 -0.7147
  915TIP3    H124236   1.612   2.022   6.183  0.3847  1.1285  0.9811
  915TIP3    H224237   1.701   2.133   6.132  1.7697 -0.5290 -0.3460
  916TIP3   OH224238   0.366   2.361  15.015  0.1591  0.3893 -0.4677
  916TIP3    H124239   0.424   2.286  15.005  0.2733  0.4728 -0.4300
  916TIP3    H224240   0.411   2.419  15.077  0.1484  0.5643 -0.6209
  917TIP3   OH224241   3.275   2.313   4.441  0.6662  0.8511 -0.4447
  917TIP3    H124242   3.260   2.275   4.354  2.2557 -2.0018  0.3859
  917TIP3    H224243   3.215   2.265   4.498  2.4605 -0.3043  0.5841
  918TIP3   OH224244   1.308   3.617  14.011  0.0494 -0.5346  0.1785
  918TIP3    H124245   1.296   3.529  14.046  0.5145 -0.8559 -0.4494
  918TIP3    H224246   1.345   3.603  13.924 -0.1402  0.2767 -0.0400
  919TIP3   OH224247   4.805   0.534  14.679  0.1666  0.0407  0.0473
  919TIP3    H124248   4.749   0.590  14.627 -2.5683 -1.1271  1.5409
  919TIP3    H224249   4.837   0.468  14.618  0.9732  1.4232 -1.0778
  920TIP3   OH224250   2.211   3.007  14.482 -0.6706 -0.5211  0.8799
  920TIP3    H124251   2.123   3.026  14.449 -0.3052  1.5999  1.0278
  920TIP3    H224252   2.210   2.912  14.499 -2.0267 -1.0734 -1.7394
  921TIP3   OH224253   3.335   3.507   4.950  0.3827  0.3917  0.1450
  921TIP3    H124254   3.282   3.436   4.986 -0.7780  1.7477  1.2244
  921TIP3    H224255   3.369   3.472   4.868 -0.7551 -1.1464  0.2808
  922TIP3   OH224256   1.666   2.168   3.356 -0.1030 -0.9668  0.1722
  922TIP3    H124257   1.649   2.074   3.370 -1.3778 -0.9360 -0.9302
  922TIP3    H224258   1.594   2.197   3.300 -0.1099  0.8492  1.0454
  923TIP3   OH224259   6.751   1.363   5.416 -0.0440  0.1623 -0.2148
  923TIP3    H124260   6.755   1.297   5.347  0.1125 -1.2005  1.0305
  923TIP3    H224261   6.740   1.312   5.497 -0.1130  1.6833  0.7798
  924TIP3   OH224262   2.044   4.520  15.779 -0.8603 -0.0187 -0.0616
  924TIP3    H124263   2.063   4.551  15.690  0.9962 -0.0308  0.2905
  924TIP3    H224264   1.987   4.588  15.816  1.0335  1.7237 -0.1783
  925TIP3   OH224265   6.082   4.723  13.660  0.3612  0.2796  0.1273
  925TIP3    H124266   5.995   4.753  13.684 -0.4809 -0.7472 -1.5156
  925TIP3    H224267   6.104   4.657  13.726  0.0720  0.7784  0.7369
  926TIP3   OH224268   4.694   0.621  15.436  0.0537  0.4721  0.1917
  926TIP3    H124269   4.715   0.536  15.473 -0.7725  0.1814  0.0106
  926TIP3    H224270   4.766   0.640  15.376 -0.7438 -1.0456 -1.3226
  927TIP3   OH224271   6.539   2.424  11.001 -0.1426  0.2297 -0.4300
  927TIP3    H124272   6.460   2.372  10.985 -0.5075  0.6541 -0.0526
  927TIP3    H224273   6.600   2.363  11.041 -0.9458  0.3203  1.0130
  928TIP3   OH224274   0.635   2.701   4.264  0.5571  0.1488  0.0718
  928TIP3    H124275   0.547   2.730   4.241 -0.4385 -2.9896 -0.5276
  928TIP3    H224276   0.692   2.772   4.234 -1.6456  1.6401 -0.8254
  929TIP3   OH224277   5.705   0.595  13.163  0.1524  0.4359 -0.1819
  929TIP3    H124278   5.738   0.599  13.253  2.0318  0.6803 -0.8329
  929TIP3    H224279   5.672   0.505  13.154  2.1627 -0.3967  0.0782
  930TIP3   OH224280   5.471   1.018  14.969  0.4791  0.3392  0.9036
  930TIP3    H124281   5.415   0.957  14.920  1.7373 -0.2346  0.1290
  930TIP3    H224282   5.544   0.964  15.000  2.0587  1.5893 -0.4890
  931TIP3   OH224283   0.214   1.761  11.668  0.4680 -0.7949 -0.1398
  931TIP3    H124284   0.243   1.685  11.617  1.4375 -0.3587 -0.2674
  931TIP3    H224285   0.287   1.823  11.662  0.1658 -0.3168  0.9141
  932TIP3   OH224286   2.695   0.976  12.993 -0.0416 -0.8353  0.3602
  932TIP3    H124287   2.768   0.923  13.025  0.4141 -0.7935 -0.5956
  932TIP3    H224288   2.715   1.065  13.023  0.4220 -0.7817 -0.1066
  933TIP3   OH224289   5.652   5.099   1.609  0.0976  0.2200 -0.2077
  933TIP3    H124290   5.566   5.140   1.616  0.8841  2.0029 -0.3762
  933TIP3    H224291   5.660   5.047   1.689 -0.9733  0.3633  0.0068
  934TIP3   OH224292   4.623   0.242   0.525  0.3131  0.0713  0.1869
  934TIP3    H124293   4.661   0.251   0.437  0.2891  0.8481  0.2510
  934TIP3    H224294   4.699   0.233   0.583  0.3419 -0.0849  0.1239
  935TIP3   OH224295   0.568   0.353   0.455  0.0421 -0.1819 -0.1316
  935TIP3    H124296   0.636   0.415   0.427  0.4919 -1.3671 -1.8271
  935TIP3    H224297   0.590   0.332   0.546  1.5808 -0.0323 -0.4471
  936TIP3   OH224298   5.280   3.577  13.061 -0.3016 -0.4298  0.1959
  936TIP3    H124299   5.194   3.538  13.078 -0.1685 -0.6245  0.4430
  936TIP3    H224300   5.272   3.667  13.090 -0.3273 -0.5358  0.5189
  937TIP3   OH224301   1.694   2.826  13.827  0.1642 -0.6931  0.2139
  937TIP3    H124302   1.604   2.797  13.839  0.1770 -0.5626  0.6189
  937TIP3    H224303   1.710   2.887  13.898 -0.8651  2.7633 -2.2304
  938TIP3   OH224304   5.036   3.477  16.903  0.4621  0.1970 -0.3799
  938TIP3    H124305   5.130   3.476  16.920  0.9455 -0.4590 -2.7538
  938TIP3    H224306   5.025   3.536  16.829 -0.7522 -1.1521 -1.3262
  939TIP3   OH224307   3.188   1.052   2.497 -0.1299 -0.7059 -0.2653
  939TIP3    H124308   3.246   0.976   2.492  0.5971 -0.2582  0.8191
  939TIP3    H224309   3.182   1.084   2.408  1.2408 -0.8136 -0.4144
  940TIP3   OH224310   5.776   3.401  14.953 -0.2930  0.1187 -0.2784
  940TIP3    H124311   5.847   3.337  14.945 -0.1966 -0.0804  1.7100
  940TIP3    H224312   5.819   3.483  14.973 -0.5846  0.0674  0.6002
  941TIP3   OH224313   0.003   4.054   5.069  0.3509  0.2274  0.8511
  941TIP3    H124314   0.044   3.992   5.009 -0.5868  1.8296 -1.5578
  941TIP3    H224315   0.072   4.117   5.088  0.6204 -0.2307  1.4566
  942TIP3   OH224316   2.997   0.856  15.449 -0.1816 -0.1821  0.6947
  942TIP3    H124317   2.921   0.911  15.470 -0.0058 -0.2470  1.4974
  942TIP3    H224318   3.000   0.857  15.353 -1.3834 -0.4416  0.6402
  943TIP3   OH224319   0.257   5.932   5.291 -0.1612 -0.7413 -0.3659
  943TIP3    H124320   0.313   5.954   5.366 -2.2467 -1.6008  1.5822
  943TIP3    H224321   0.171   5.918   5.330 -1.1618 -2.0696 -2.8593
  944TIP3   OH224322   0.329   1.575  13.607  0.6358 -0.4171  0.1538
  944TIP3    H124323   0.240   1.598  13.580  0.9283  1.0381  0.3304
  944TIP3    H224324   0.382   1.587  13.528  0.8712 -0.0003  0.3692
  945TIP3   OH224325   4.578   3.037   0.654 -0.0258  0.5782 -0.3149
  945TIP3    H124326   4.584   2.947   0.624 -1.7048  0.5322 -0.6219
  945TIP3    H224327   4.558   3.087   0.575 -2.8050  0.6837  0.3598
  946TIP3   OH224328   2.401   1.266  15.900 -0.1067  0.2824  0.2555
  946TIP3    H124329   2.489   1.249  15.866 -1.1265  0.2561 -2.6405
  946TIP3    H224330   2.392   1.361  15.894 -0.4823  0.2286 -0.0338
  947TIP3   OH224331   1.641   0.944   5.615  0.0299 -0.1835  0.0194
  947TIP3    H124332   1.661   0.946   5.521 -0.8417  1.3343 -0.1628
  947TIP3    H224333   1.712   0.893   5.653  1.4105  0.7345 -1.2317
  948TIP3   OH224334   3.273   5.876  14.543  0.0524  0.2403  0.3994
  948TIP3    H124335   3.258   5.821  14.466  2.0317 -1.0093  0.8490
  948TIP3    H224336   3.205   5.944  14.537 -0.1196 -0.0425 -2.2107
  949TIP3   OH224337   6.737   3.346   1.351  0.3115 -0.4139  0.6570
  949TIP3    H124338   6.733   3.296   1.433 -1.8666 -2.1420 -0.3966
  949TIP3    H224339   6.646   3.357   1.325  0.9348  0.5138 -1.3168
  950TIP3   OH224340   2.036   0.631  15.322 -0.2304 -0.3780  0.6595
  950TIP3    H124341   1.996   0.674  15.398 -0.8273  1.4280 -0.6266
  950TIP3    H224342   2.125   0.610  15.351 -0.3555  0.5135  1.7597
  951TIP3   OH224343   2.377   6.595   0.712 -0.1816 -0.2622 -0.6634
  951TIP3    H124344   2.335   6.534   0.651 -0.9117  1.5695 -2.0624
  951TIP3    H224345   2.464   6.557   0.727 -1.0393 -2.3031 -0.4396
  952TIP3   OH224346   2.758   5.891  12.644  0.1365 -0.1001  0.2448
  952TIP3    H124347   2.723   5.810  12.607  0.4358 -0.3761  0.5598
  952TIP3    H224348   2.761   5.952  12.570 -2.2009  0.3533  0.4246
  953TIP3   OH224349   5.791   3.540  16.944  0.2560 -0.9437  0.2186
  953TIP3    H124350   5.711   3.556  16.994  0.3424 -0.5585  0.2349
  953TIP3    H224351   5.787   3.603  16.872  0.6580 -0.7682  0.3496
  954TIP3   OH224352   5.234   6.289   3.278  0.9042  0.3268  0.4670
  954TIP3    H124353   5.260   6.320   3.191  1.6162  1.2327  0.9853
  954TIP3    H224354   5.259   6.360   3.337 -3.0686  1.4856  1.0246
  955TIP3   OH224355   2.569   6.697   5.321  0.5069 -0.1694 -0.2583
  955TIP3    H124356   2.488   6.715   5.273  0.3537 -0.5292 -0.1460
  955TIP3    H224357   2.544   6.708   5.413  0.5760 -0.3097 -0.2220
  956TIP3   OH224358   6.641   5.140  12.832 -0.8493 -0.0243 -0.1237
  956TIP3    H124359   6.725   5.106  12.863 -0.2827  0.6852 -0.8123
  956TIP3    H224360   6.663   5.184  12.750 -1.8661  0.3752 -0.1905
  957TIP3   OH224361   1.402   3.027  13.963  0.3757 -0.0307 -0.7932
  957TIP3    H124362   1.347   3.005  13.888  1.0805 -2.3634 -0.6932
  957TIP3    H224363   1.468   3.086  13.927 -0.6902  0.7907 -1.4574
  958TIP3   OH224364   4.554   0.303  12.345 -0.0789 -0.2902 -0.0064
  958TIP3    H124365   4.582   0.395  12.344 -0.5764 -0.1268  0.4753
  958TIP3    H224366   4.473   0.304  12.396  0.3136 -1.1067  0.6445
  959TIP3   OH224367   2.949   2.385  17.433  0.6006  0.1732  0.3301
  959TIP3    H124368   3.039   2.354  17.422  0.7868  1.2793 -1.8085
  959TIP3    H224369   2.895   2.308  17.418  1.0775  0.4202 -3.8796
  960TIP3   OH224370   1.449   3.946  16.666 -0.1860  0.4923 -0.3895
  960TIP3    H124371   1.543   3.964  16.670 -0.1873  0.2474  0.9615
  960TIP3    H224372   1.426   3.916  16.753 -0.5622 -4.2661 -1.8456
  961TIP3   OH224373   4.807   0.061   4.883 -0.4372 -0.4865  0.5572
  961TIP3    H124374   4.886   0.054   4.936  0.7393 -1.3312 -1.1952
  961TIP3    H224375   4.819   0.142   4.833 -1.5884  0.3695  1.6216
  962TIP3   OH224376   5.781   5.276  16.942 -0.4340 -0.0666  0.1408
  962TIP3    H124377   5.802   5.243  17.030  1.1660  0.7323  0.0802
  962TIP3    H224378   5.805   5.204  16.884  1.7556  0.6167  0.1202
  963TIP3   OH224379   5.436   1.887  15.095 -0.6486 -0.5937  0.3578
  963TIP3    H124380   5.420   1.854  15.184 -0.0835  1.2771  1.2027
  963TIP3    H224381   5.350   1.884  15.053 -0.7418 -2.4059  0.6131
  964TIP3   OH224382   5.766   2.318   2.243 -0.2153  0.4351  0.2334
  964TIP3    H124383   5.858   2.335   2.222  0.1246  0.2365  1.4980
  964TIP3    H224384   5.717   2.370   2.180  0.7533  0.2468 -0.7102
  965TIP3   OH224385   5.200   0.555  15.782 -0.0995 -0.2053 -0.2077
  965TIP3    H124386   5.227   0.475  15.735  1.1546  0.8060 -1.3026
  965TIP3    H224387   5.218   0.626  15.720 -1.0803  0.9442  0.7860
  966TIP3   OH224388   6.546   2.080   4.492  0.1142 -0.6480 -0.5628
  966TIP3    H124389   6.458   2.093   4.527 -0.1879 -1.1335 -1.1254
  966TIP3    H224390   6.583   2.168   4.487 -0.8659 -0.2704 -1.6775
  967TIP3   OH224391   4.019   5.191   2.923 -0.5816 -0.5721 -0.4055
  967TIP3    H124392   4.004   5.277   2.963 -0.2155 -1.1520  1.0692
  967TIP3    H224393   3.932   5.158   2.904 -0.7405 -0.0120 -0.6601
  968TIP3   OH224394   2.924   3.493   4.382 -0.0408  0.1732 -0.1245
  968TIP3    H124395   2.962   3.420   4.431  0.0713  0.7177  0.6239
  968TIP3    H224396   2.872   3.540   4.447  1.6594  2.0354 -0.0154
  969TIP3   OH224397   6.441   4.413   5.960 -0.1783  0.2460 -0.3344
  969TIP3    H124398   6.383   4.489   5.967  1.3061  1.3618  0.3634
  969TIP3    H224399   6.525   4.450   5.934  0.0503 -1.4358 -2.1800
  970TIP3   OH224400   0.657   2.970   4.008  0.1025 -0.1210  0.1799
  970TIP3    H124401   0.699   2.941   4.089  0.7637 -1.5716 -0.6395
  970TIP3    H224402   0.702   3.051   3.985  1.9471 -1.2204 -0.2544
  971TIP3   OH224403   5.490   3.064   0.932  0.1543  1.1486  0.4347
  971TIP3    H124404   5.509   3.098   0.845 -1.0575  1.8161  0.4149
  971TIP3    H224405   5.442   2.982   0.915  0.9013  0.6940  0.4838
  972TIP3   OH224406   6.561   0.137  10.960 -0.7814  0.5497 -0.5415
  972TIP3    H124407   6.505   0.083  10.903  1.5143  0.0735 -2.5196
  972TIP3    H224408   6.521   0.224  10.957 -2.0121 -0.0032 -0.9808
  973TIP3   OH224409   2.336   6.750   5.157  0.0064  0.6023  0.4035
  973TIP3    H124410   2.320   6.834   5.112  0.1160  1.7551  2.3934
  973TIP3    H224411   2.255   6.732   5.204  0.1270 -0.2321  0.3079
  974TIP3   OH224412   0.474   5.752  15.951  0.2634  0.3408  0.1742
  974TIP3    H124413   0.478   5.664  15.987  1.0247  0.3987  0.2589
  974TIP3    H224414   0.559   5.791  15.973  0.0878  0.9583 -0.2011
  975TIP3   OH224415   0.256   6.576  11.726  0.6641 -0.0994 -0.1889
  975TIP3    H124416   0.249   6.494  11.774 -1.2350  0.4532  0.5557
  975TIP3    H224417   0.278   6.641  11.793 -1.0883  0.5171 -0.1567
  976TIP3   OH224418   3.841   6.773  11.065 -0.0041  0.5632 -0.2428
  976TIP3    H124419   3.798   6.690  11.044  1.0503 -0.3738  1.1101
  976TIP3    H224420   3.784   6.840  11.028 -0.5019 -0.7828 -2.0465
  977TIP3   OH224421   4.720   2.468  15.695 -0.1804  0.7128  1.0511
  977TIP3    H124422   4.760   2.418  15.623 -0.1389  0.3599  1.3173
  977TIP3    H224423   4.795   2.500  15.746 -0.2356 -0.5216  1.9414
  978TIP3   OH224424   5.913   0.627   5.982 -0.4716 -0.1879 -0.2620
  978TIP3    H124425   5.927   0.708   5.933  0.9433  0.7762  1.5920
  978TIP3    H224426   5.960   0.560   5.931  0.2799  0.6160 -0.6584
  979TIP3   OH224427   0.082   2.507  16.972  0.0575 -0.8401  0.1550
  979TIP3    H124428   0.118   2.593  16.953 -2.3019  0.1321 -0.3297
  979TIP3    H224429   0.098   2.494  17.066 -0.9609  0.9081  0.6221
  980TIP3   OH224430   4.747   4.143   0.962 -0.2416 -0.4355 -0.5066
  980TIP3    H124431   4.730   4.050   0.980  0.8548 -0.5575 -0.0101
  980TIP3    H224432   4.684   4.190   1.018 -1.1785 -0.8608 -1.1720
  981TIP3   OH224433   0.222   6.775   2.891 -0.3322 -0.2803 -0.2797
  981TIP3    H124434   0.132   6.808   2.889  0.3672  1.8618  0.9558
  981TIP3    H224435   0.225   6.718   2.968 -0.7669 -0.8549 -0.6782
  982TIP3   OH224436   1.850   1.134  14.851  0.0882 -0.1588  0.0198
  982TIP3    H124437   1.819   1.049  14.820  1.8480 -1.1694  0.8889
  982TIP3    H224438   1.856   1.124  14.946 -2.6097  1.9927  0.5471
  983TIP3   OH224439   5.561   0.691   1.659 -0.0106 -0.7367 -0.1729
  983TIP3    H124440   5.603   0.696   1.745 -0.2975  0.2704 -0.0853
  983TIP3    H224441   5.601   0.763   1.609  1.6346 -2.4962 -1.5589
  984TIP3   OH224442   5.980   5.065  11.847  0.1326  0.1741  0.4053
  984TIP3    H124443   5.951   5.155  11.834 -0.7152 -0.1156  0.2131
  984TIP3    H224444   5.956   5.044  11.937 -0.9555 -0.3065  0.0192
  985TIP3   OH224445   5.706   4.259   3.257 -0.5449  0.2845  0.0128
  985TIP3    H124446   5.767   4.330   3.235  0.6565 -0.8863 -0.5048
  985TIP3    H224447   5.730   4.232   3.345  1.0565 -1.4804 -0.8873
  986TIP3   OH224448   3.605   6.038   4.576  0.5580  0.4913 -0.4283
  986TIP3    H124449   3.582   6.063   4.666  0.3402 -1.1309  0.0122
  986TIP3    H224450   3.701   6.037   4.575  0.5630  0.0173 -0.0429
  987TIP3   OH224451   4.610   2.648  11.644 -1.1921 -0.3512 -0.1459
  987TIP3    H124452   4.660   2.656  11.563 -0.4233  3.2690  0.5350
  987TIP3    H224453   4.617   2.555  11.667  1.7962 -0.7753 -2.1992
  988TIP3   OH224454   5.836   3.188  11.138  0.2735 -0.2523  0.0040
  988TIP3    H124455   5.916   3.242  11.136  0.5293 -0.6462 -0.6113
  988TIP3    H224456   5.773   3.242  11.186  0.4170  0.7387 -0.8859
  989TIP3   OH224457   2.813   1.157   1.893  0.3395  1.0493  0.6496
  989TIP3    H124458   2.889   1.185   1.842  0.6422  1.4605  1.3135
  989TIP3    H224459   2.747   1.224   1.876 -0.2602  0.1528 -0.7504
  990TIP3   OH224460   5.665   1.410  12.499 -0.4069  0.2581  0.2226
  990TIP3    H124461   5.617   1.347  12.445 -1.7262  2.0921 -0.8422
  990TIP3    H224462   5.667   1.369  12.586 -0.5033 -1.5976 -0.6036
  991TIP3   OH224463   3.491   4.666  15.744  0.4177  0.1177  0.1641
  991TIP3    H124464   3.518   4.711  15.664 -4.1642  1.4562 -0.9353
  991TIP3    H224465   3.493   4.734  15.812 -1.5361  0.6999 -0.3106
  992TIP3   OH224466   0.001   1.330  13.393 -0.0002 -0.6139 -0.3558
  992TIP3    H124467  -0.035   1.254  13.440  1.0551 -1.0988 -0.3054
  992TIP3    H224468   0.006   1.300  13.302  2.0017 -1.2586 -0.0874
  993TIP3   OH224469   5.549   5.358  14.659 -0.7363  0.0943 -0.2547
  993TIP3    H124470   5.490   5.416  14.611  1.3189  1.5528 -1.1534
  993TIP3    H224471   5.575   5.409  14.736 -1.3518 -0.9097  0.6468
  994TIP3   OH224472   0.411   2.133   2.530 -0.5883  0.1141 -0.3479
  994TIP3    H124473   0.493   2.152   2.576 -1.8559  0.9260  1.7049
  994TIP3    H224474   0.399   2.206   2.470  2.0203 -1.8356 -3.6216
  995TIP3   OH224475   3.867   1.828   1.380  0.1587  0.2104 -0.0665
  995TIP3    H124476   3.947   1.775   1.375 -0.5281 -1.1994  2.2607
  995TIP3    H224477   3.897   1.918   1.369  1.8509 -0.3932 -0.7111
  996TIP3   OH224478   4.789   3.735  11.475 -0.4502  0.1945  0.3815
  996TIP3    H124479   4.781   3.718  11.381  0.6564  1.3323  0.0575
  996TIP3    H224480   4.829   3.655  11.510 -1.1031 -0.3371 -0.0618
  997TIP3   OH224481   2.159   4.495  13.569  0.1101  0.1851 -0.0158
  997TIP3    H124482   2.180   4.497  13.662 -0.7579 -0.3806  0.2019
  997TIP3    H224483   2.207   4.419  13.535 -1.1966 -0.8798  0.4075
  998TIP3   OH224484   3.601   5.704  13.920  0.5487 -0.2828 -0.2867
  998TIP3    H124485   3.586   5.795  13.947  2.3267  0.4513 -1.5677
  998TIP3    H224486   3.695   5.700  13.902  1.0962 -3.1470  2.4144
  999TIP3   OH224487   6.369   2.159   0.508  0.4848  0.3271  0.1722
  999TIP3    H124488   6.355   2.162   0.414 -1.7858  2.3780  0.4994
  999TIP3    H224489   6.464   2.149   0.517  0.7507 -0.0704 -2.2890
 1000TIP3   OH224490   2.045   5.426   5.055 -0.3092  0.7035 -0.5106
 1000TIP3    H124491   2.105   5.388   4.990 -1.6989  1.4799 -2.3459
 1000TIP3    H224492   2.071   5.387   5.138  2.0212  0.2035 -1.4033
 1001TIP3   OH224493   2.296   5.328   5.447 -0.2533 -0.4931 -0.7078
 1001TIP3    H124494   2.222   5.281   5.406 -0.0241  0.2448 -2.0263
 1001TIP3    H224495   2.263   5.417   5.461 -0.1605 -0.6070  0.2973
 1002TIP3   OH224496   4.932   6.314   6.502 -0.0324  0.0311  0.0887
 1002TIP3    H124497   5.008   6.340   6.450 -0.1682 -0.4785 -0.3737
 1002TIP3    H224498   4.865   6.379   6.480  0.8085  1.6089  1.9125
 1003TIP3   OH224499   2.759   2.934  17.341 -0.0397 -0.0174  0.1405
 1003TIP3    H124500   2.738   2.963  17.429  0.2933 -0.0149  0.2216
 1003TIP3    H224501   2.674   2.917  17.300 -0.1769 -1.2266  0.8705
 1004TIP3   OH224502   3.384   2.188   5.645 -0.4176  0.3198  0.0882
 1004TIP3    H124503   3.368   2.119   5.709 -0.0146 -0.6813 -0.8569
 1004TIP3    H224504   3.475   2.176   5.619 -0.1825  1.5450  0.2729
 1005TIP3   OH224505   5.412   2.657  16.347 -0.5961 -0.5825 -0.4092
 1005TIP3    H124506   5.470   2.590  16.311  0.3211 -1.2413  2.0788
 1005TIP3    H224507   5.372   2.615  16.423  0.3014  1.7744  1.4639
 1006TIP3   OH224508   0.526   4.411  12.418  0.4007 -0.0336 -0.0497
 1006TIP3    H124509   0.577   4.392  12.497  2.4546 -0.4772 -1.4068
 1006TIP3    H224510   0.559   4.497  12.389  0.1723 -0.1953 -0.8075
 1007TIP3   OH224511   5.110   5.055   6.239  0.2741 -0.1198  0.0925
 1007TIP3    H124512   5.018   5.069   6.263  0.0061 -0.5513 -0.6518
 1007TIP3    H224513   5.116   4.960   6.225  0.5220  0.0666 -1.0973
 1008TIP3   OH224514   0.026   6.232  16.698 -0.0105 -0.3831  0.1914
 1008TIP3    H124515   0.121   6.238  16.694 -0.0047 -0.7804 -3.2764
 1008TIP3    H224516   0.008   6.172  16.770  2.5062 -1.9716 -0.3915
 1009TIP3   OH224517   5.845   5.461   1.918  0.1508  0.3621  0.2319
 1009TIP3    H124518   5.939   5.455   1.897  0.5305  0.0459  1.8764
 1009TIP3    H224519   5.839   5.535   1.979 -0.7439  0.6319 -0.1661
 1010TIP3   OH224520   5.064   1.201   3.307 -0.3808  0.1080  0.3984
 1010TIP3    H124521   5.130   1.160   3.363  0.6348  0.8536 -0.2072
 1010TIP3    H224522   5.032   1.129   3.252  0.2131 -0.1974  0.4373
 1011TIP3   OH224523   3.316   4.586  11.584 -0.4174  0.7424 -0.2746
 1011TIP3    H124524   3.359   4.551  11.506 -1.0972  1.0773 -0.8062
 1011TIP3    H224525   3.366   4.549  11.657 -0.3014 -0.2654 -0.8455
 1012TIP3   OH224526   3.649   3.921  16.949 -0.4459 -0.7359  0.1053
 1012TIP3    H124527   3.734   3.957  16.974 -1.3146  3.4852 -2.0358
 1012TIP3    H224528   3.661   3.893  16.859 -0.8678 -2.0143  0.4339
 1013TIP3   OH224529   2.601   6.678  16.621  0.3532  0.0709 -0.6412
 1013TIP3    H124530   2.609   6.604  16.681 -1.6333  1.3092  1.3103
 1013TIP3    H224531   2.540   6.649  16.554  0.1976 -0.3260 -0.3311
 1014TIP3   OH224532   0.850   2.818   0.372 -0.4823 -0.2533  0.0964
 1014TIP3    H124533   0.879   2.910   0.374  0.3177 -0.4874 -0.5445
 1014TIP3    H224534   0.763   2.820   0.413 -0.4183  0.7695  0.2103
 1015TIP3   OH224535   4.065   4.893  12.454 -0.1918 -0.5656  0.2552
 1015TIP3    H124536   4.139   4.906  12.513 -0.8803  0.2684  0.9628
 1015TIP3    H224537   4.031   4.981  12.438  1.2361 -0.5012 -3.1226
 1016TIP3   OH224538   1.390   4.231   6.160 -0.2926  0.0964  0.5955
 1016TIP3    H124539   1.427   4.305   6.112 -1.3089 -0.0295 -0.4430
 1016TIP3    H224540   1.455   4.162   6.152 -0.1761  0.2772 -0.0916
 1017TIP3   OH224541   5.151   1.085  14.972  0.3256 -0.4443  0.1028
 1017TIP3    H124542   5.230   1.139  14.975  1.3986 -1.9252 -0.2377
 1017TIP3    H224543   5.086   1.133  15.023  1.1277  1.2958 -0.4529
 1018TIP3   OH224544   2.303   1.323   1.941 -0.2905  0.2535 -0.0833
 1018TIP3    H124545   2.306   1.282   1.855  2.2659 -0.0039  0.0546
 1018TIP3    H224546   2.213   1.355   1.949 -0.5135  0.6625 -3.0196
 1019TIP3   OH224547   6.104   2.829  16.371  0.4646  0.0368 -0.0771
 1019TIP3    H124548   6.146   2.754  16.414  0.3395 -0.3766 -0.6578
 1019TIP3    H224549   6.046   2.865  16.438  0.7458 -0.2065  0.3026
 1020TIP3   OH224550   5.528   1.189  13.332 -0.1017 -0.2596  0.5723
 1020TIP3    H124551   5.598   1.185  13.267 -0.3454 -1.7491  0.3705
 1020TIP3    H224552   5.564   1.146  13.409 -0.6807 -0.7733  0.5638
 1021TIP3   OH224553   3.858   4.060  13.775  0.3162  0.1630  0.2215
 1021TIP3    H124554   3.874   3.970  13.803  0.4203  0.1601  0.1505
 1021TIP3    H224555   3.845   4.108  13.857  3.0672  0.6479  0.4703
 1022TIP3   OH224556   0.832   2.957  13.831  0.1918  0.0384  0.1855
 1022TIP3    H124557   0.833   2.899  13.907 -0.7024 -1.0537 -0.5937
 1022TIP3    H224558   0.781   3.033  13.859 -1.1104 -0.8656  0.3497
 1023TIP3   OH224559   3.492   0.215  11.313 -0.2555 -0.6337 -0.0940
 1023TIP3    H124560   3.504   0.228  11.407 -1.6893  0.0533  0.0298
 1023TIP3    H224561   3.503   0.303  11.276  0.2426 -0.8916 -0.5671
 1024TIP3   OH224562   6.377   1.407  16.515 -0.8646 -0.7172 -0.0427
 1024TIP3    H124563   6.315   1.343  16.480 -1.0130 -0.8290  0.4210
 1024TIP3    H224564   6.322   1.468  16.565 -0.9525  0.6899 -1.7497
 1025TIP3   OH224565   0.775   1.423  11.185 -0.1332  0.8256 -0.1396
 1025TIP3    H124566   0.710   1.398  11.120 -0.7625 -0.9913  1.1221
 1025TIP3    H224567   0.857   1.386  11.153 -0.3965  0.1295 -0.0141
 1026TIP3   OH224568   4.893   4.660  14.515 -0.5076 -0.0332 -0.4407
 1026TIP3    H124569   4.870   4.613  14.596  0.4004  0.2551 -0.0001
 1026TIP3    H224570   4.970   4.614  14.482  0.4872  1.2020  0.0766
 1027TIP3   OH224571   0.405   4.350  14.318  0.6850  1.0786 -0.4308
 1027TIP3    H124572   0.330   4.384  14.367  0.8423  0.6162  0.1465
 1027TIP3    H224573   0.479   4.401  14.350  0.6997  1.1676 -0.6071
 1028TIP3   OH224574   4.699   4.040   4.931  0.0082  0.1517 -0.0080
 1028TIP3    H124575   4.742   4.125   4.921  2.1390 -0.8340  0.1752
 1028TIP3    H224576   4.657   4.044   5.017  1.4621  0.4976  0.7188
 1029TIP3   OH224577   4.099   3.106   2.361 -0.5231  0.6296 -0.3930
 1029TIP3    H124578   4.101   3.028   2.417  1.2320  0.3145 -0.8393
 1029TIP3    H224579   4.095   3.070   2.272 -1.2463  1.0957 -0.5554
 1030TIP3   OH224580   4.955   4.015  12.210  0.5310  0.4012  0.1324
 1030TIP3    H124581   4.970   4.074  12.285 -1.0336  0.4388  0.4606
 1030TIP3    H224582   4.995   4.060  12.136  0.4183  1.3126  0.6013
 1031TIP3   OH224583   2.701   1.605  15.410  0.3595  0.2361  0.0463
 1031TIP3    H124584   2.697   1.695  15.377 -2.1419 -0.3363 -1.5013
 1031TIP3    H224585   2.775   1.566  15.363 -0.7875  0.5319 -2.1389
 1032TIP3   OH224586   0.894   5.906   5.179  0.1037 -0.1164  0.4640
 1032TIP3    H124587   0.803   5.877   5.175 -0.2443  0.8068  1.3419
 1032TIP3    H224588   0.943   5.837   5.134 -1.0767 -0.3584 -0.5027
 1033TIP3   OH224589   0.829   4.690   1.101 -0.2286 -0.1505 -0.3372
 1033TIP3    H124590   0.813   4.782   1.122  0.3830  0.2765 -1.6142
 1033TIP3    H224591   0.759   4.643   1.145 -2.2079  1.1967 -1.8571
 1034TIP3   OH224592   2.449   0.695   2.397  0.3637  0.2850  0.1082
 1034TIP3    H124593   2.424   0.633   2.465 -1.8508  0.1520 -0.7488
 1034TIP3    H224594   2.524   0.741   2.433  0.0800 -0.7064  2.0772
 1035TIP3   OH224595   5.259   1.598   5.536 -0.3820  0.7767  0.2248
 1035TIP3    H124596   5.272   1.671   5.475  1.1691 -0.4893 -1.0809
 1035TIP3    H224597   5.216   1.530   5.483 -1.5641  0.6218  1.3381
 1036TIP3   OH224598   1.718   0.525  11.600  0.4535  0.0315  0.3301
 1036TIP3    H124599   1.626   0.523  11.628 -0.0232  0.2040 -1.1266
 1036TIP3    H224600   1.734   0.616  11.575  0.2741 -0.4243 -1.6370
 1037TIP3   OH224601   6.179   1.758   2.695  0.4117  0.4852 -0.1269
 1037TIP3    H124602   6.168   1.676   2.647 -0.3769  0.7550 -0.4398
 1037TIP3    H224603   6.258   1.797   2.658  0.7324 -0.0888 -0.0465
 1038TIP3   OH224604   1.383   0.035  15.726 -0.0542  0.3632 -0.2061
 1038TIP3    H124605   1.318   0.105  15.722 -1.4983 -0.8006  1.4740
 1038TIP3    H224606   1.388   0.002  15.636  0.2359  2.2176 -0.9059
 1039TIP3   OH224607   5.228   2.861   6.182  0.0617 -0.1505  0.2307
 1039TIP3    H124608   5.267   2.818   6.259  0.0029 -1.0978 -0.2554
 1039TIP3    H224609   5.231   2.794   6.114  2.1708  1.3545 -1.2730
 1040TIP3   OH224610   5.638   2.941   5.207 -0.4579 -0.1868 -0.1781
 1040TIP3    H124611   5.555   2.926   5.160 -1.3553 -0.0492  1.3103
 1040TIP3    H224612   5.629   2.892   5.288  1.7560 -1.7995 -0.8102
 1041TIP3   OH224613   5.501   0.450   2.656 -0.1161  0.6576 -0.0808
 1041TIP3    H124614   5.552   0.374   2.627 -0.0603  0.4579  0.5424
 1041TIP3    H224615   5.561   0.523   2.647 -0.4966  0.8134 -1.7098
 1042TIP3   OH224616   1.018   4.472  13.065 -0.3426  0.1817  0.6769
 1042TIP3    H124617   0.935   4.441  13.102 -1.5532 -0.1816 -2.1332
 1042TIP3    H224618   0.993   4.548  13.013  0.9890 -0.2962 -0.7104
 1043TIP3   OH224619   4.437   0.938  16.762 -0.1305  0.3015  0.1557
 1043TIP3    H124620   4.461   0.925  16.670  0.2667 -0.0849  0.3092
 1043TIP3    H224621   4.354   0.893  16.772  0.4911 -0.8459  0.3115
 1044TIP3   OH224622   4.362   1.373  13.957 -0.1445  0.1814  0.1247
 1044TIP3    H124623   4.330   1.360  13.867  0.2825  0.7566 -0.1145
 1044TIP3    H224624   4.458   1.374  13.948 -0.1138  1.2130  0.4461
 1045TIP3   OH224625   0.871   0.220   0.549  0.2896  0.4780  0.3210
 1045TIP3    H124626   0.836   0.133   0.529 -0.4960  0.6936  0.6971
 1045TIP3    H224627   0.907   0.252   0.466 -1.2870  0.6350 -0.3403
 1046TIP3   OH224628   6.430   5.438   1.565  0.2790  0.6791 -0.1013
 1046TIP3    H124629   6.424   5.351   1.604  1.1043  0.2734 -0.8605
 1046TIP3    H224630   6.426   5.498   1.640 -1.4684  0.0682  0.3522
 1047TIP3   OH224631   1.337   0.038   0.362  0.5787  0.0066 -0.4200
 1047TIP3    H124632   1.319   0.085   0.443 -2.1834 -3.6852  1.3978
 1047TIP3    H224633   1.320   0.102   0.293 -1.6059  2.0516  1.8332
 1048TIP3   OH224634   5.304   4.631   4.702 -0.3844  0.0785 -0.1720
 1048TIP3    H124635   5.342   4.543   4.704 -0.9593 -0.1888 -0.6606
 1048TIP3    H224636   5.222   4.620   4.654  0.5707  1.2759 -2.2072
 1049TIP3   OH224637   4.149   5.270  11.514 -0.4217  0.1148  0.5225
 1049TIP3    H124638   4.212   5.276  11.586 -0.2838 -1.0152  0.5157
 1049TIP3    H224639   4.138   5.176  11.500 -2.1415  0.2779  0.5438
 1050TIP3   OH224640   3.059   3.434   4.819 -0.2548 -0.3283  0.0709
 1050TIP3    H124641   3.107   3.507   4.859  1.8754 -1.2728 -0.5940
 1050TIP3    H224642   3.073   3.361   4.878 -0.3911 -0.7643 -0.4279
 1051TIP3   OH224643   1.884   4.705   3.704  0.2372  0.1573  0.0525
 1051TIP3    H124644   1.864   4.768   3.635  0.7101 -0.6916 -0.9010
 1051TIP3    H224645   1.806   4.648   3.707  1.1605 -1.3119 -1.5604
 1052TIP3   OH224646   4.884   6.440  13.487  0.3217  0.0381 -0.0099
 1052TIP3    H124647   4.789   6.436  13.502  0.2772  0.3383 -0.2013
 1052TIP3    H224648   4.908   6.350  13.466  0.6748 -0.8103  3.3882
 1053TIP3   OH224649   5.835   3.937  15.119 -0.1323  0.1708  0.0689
 1053TIP3    H124650   5.829   4.026  15.084  1.1852 -0.1692 -1.1419
 1053TIP3    H224651   5.788   3.883  15.056 -1.5571  0.0757  1.1806
 1054TIP3   OH224652   0.322   1.852  14.174 -0.1493 -0.3690 -0.2618
 1054TIP3    H124653   0.331   1.865  14.268 -1.1377 -1.4162  0.0070
 1054TIP3    H224654   0.329   1.757  14.162 -1.8329 -0.4469 -0.9821
 1055TIP3   OH224655   4.327   4.878  11.294  0.7485 -0.5722  0.2319
 1055TIP3    H124656   4.412   4.843  11.321  0.7264 -0.3052  0.6490
 1055TIP3    H224657   4.274   4.877  11.374  0.0386 -1.6619 -0.2171
 1056TIP3   OH224658   2.758   1.745  13.357 -0.1696  0.1629  0.1561
 1056TIP3    H124659   2.773   1.682  13.287 -2.1686 -1.3548  0.9848
 1056TIP3    H224660   2.766   1.693  13.437 -0.0362  1.3920  0.9615
 1057TIP3   OH224661   0.628   1.598  15.426 -0.4834  0.5884 -0.2764
 1057TIP3    H124662   0.649   1.684  15.463 -0.6210  0.5212 -0.0447
 1057TIP3    H224663   0.548   1.612  15.376  0.1553  0.8713 -1.2580
 1058TIP3   OH224664   5.049   4.137   5.594  0.1769 -0.3114  0.2896
 1058TIP3    H124665   4.975   4.157   5.537  0.2438 -0.9818 -0.0340
 1058TIP3    H224666   5.015   4.073   5.656  0.6545 -1.1264 -0.2698
 1059TIP3   OH224667   5.435   5.644  12.193  0.0990  0.0161  0.4064
 1059TIP3    H124668   5.397   5.729  12.214  0.3548  0.0727  0.6548
 1059TIP3    H224669   5.374   5.605  12.130 -1.1046 -0.4553  1.7878
 1060TIP3   OH224670   6.120   5.367  15.627 -0.5091  0.1805 -0.0950
 1060TIP3    H124671   6.144   5.452  15.591 -0.7528  0.7760  1.0686
 1060TIP3    H224672   6.068   5.325  15.559 -1.3171  1.4302 -0.2722
 1061TIP3   OH224673   1.921   3.530   3.088 -0.3717 -0.2181  0.6202
 1061TIP3    H124674   2.008   3.491   3.096 -0.7565 -1.5032 -0.8885
 1061TIP3    H224675   1.936   3.624   3.091  0.9108 -0.4307  1.6914
 1062TIP3   OH224676   3.496   3.685   0.804 -0.1109 -0.0530  0.3292
 1062TIP3    H124677   3.505   3.621   0.734  0.4140 -0.6260  0.9094
 1062TIP3    H224678   3.407   3.672   0.837  0.2920 -1.1486  1.0579
 1063TIP3   OH224679   2.236   0.198  15.769  0.6223 -0.9807  0.2030
 1063TIP3    H124680   2.308   0.148  15.808  0.8541 -0.1388  0.8838
 1063TIP3    H224681   2.244   0.285  15.807 -0.7319 -0.8566  0.2653
 1064TIP3   OH224682   1.704   3.847   2.899  0.0522 -0.1772 -0.1651
 1064TIP3    H124683   1.772   3.833   2.965  0.0489  1.2132  0.1704
 1064TIP3    H224684   1.749   3.841   2.815  0.3021 -0.6813 -0.0000
 1065TIP3   OH224685   3.542   0.199  11.589  0.3267 -0.1912 -0.0299
 1065TIP3    H124686   3.529   0.110  11.557  1.6829  0.0566 -1.3744
 1065TIP3    H224687   3.559   0.189  11.683  1.5741 -1.4724 -0.3544
 1066TIP3   OH224688   1.227   5.324  17.110  0.5495 -0.5156  0.0126
 1066TIP3    H124689   1.161   5.367  17.163  1.6371  0.2373  0.8027
 1066TIP3    H224690   1.237   5.237  17.149  0.7581 -0.2582  0.5362
 1067TIP3   OH224691   5.431   3.125   4.973 -0.1775 -0.1301  0.1598
 1067TIP3    H124692   5.391   3.058   5.029 -0.0764  0.9419  1.5929
 1067TIP3    H224693   5.395   3.208   5.005 -0.6478  0.5015 -1.8662
 1068TIP3   OH224694   1.690   2.717  13.562 -0.4952  0.6444  0.4650
 1068TIP3    H124695   1.659   2.628  13.577  1.5455  0.0608  1.5608
 1068TIP3    H224696   1.687   2.759  13.648 -0.7220  1.4009  0.0951
 1069TIP3   OH224697   3.745   0.332  15.832 -0.1254 -0.3963  0.2596
 1069TIP3    H124698   3.656   0.301  15.843  0.3469 -1.6542  0.6543
 1069TIP3    H224699   3.753   0.406  15.893 -1.0175  0.0188 -0.1167
 1070TIP3   OH224700   5.343   1.695   1.044  0.0880  0.0579 -0.0280
 1070TIP3    H124701   5.302   1.692   1.131 -1.2862  0.2515 -0.6316
 1070TIP3    H224702   5.351   1.603   1.018 -1.6759  0.0341 -0.6295
 1071TIP3   OH224703   5.423   1.884   4.121 -0.2230 -0.6352  0.1533
 1071TIP3    H124704   5.348   1.903   4.178 -0.4618  1.2332 -0.6976
 1071TIP3    H224705   5.499   1.891   4.178 -0.6229 -2.7643  1.0825
 1072TIP3   OH224706   4.612   5.489  11.333 -0.3207 -0.5133  0.4577
 1072TIP3    H124707   4.600   5.582  11.349 -0.8406 -0.5535  0.3402
 1072TIP3    H224708   4.523   5.455  11.324 -0.1184 -0.9114 -0.0988
 1073TIP3   OH224709   6.005   1.769  12.464  0.2203 -0.5173 -0.2574
 1073TIP3    H124710   5.914   1.743  12.479  0.1513 -0.5648 -0.7574
 1073TIP3    H224711   6.049   1.751  12.547 -0.6262  1.2881  0.6348
 1074TIP3   OH224712   3.948   4.072  11.326  0.1111  0.1590  0.0849
 1074TIP3    H124713   3.871   4.025  11.291  0.1046 -0.2335  0.6039
 1074TIP3    H224714   3.969   4.024  11.406 -1.2572  2.3641  1.8668
 1075TIP3   OH224715   3.504   2.585  15.531 -0.0914 -0.1612  0.1681
 1075TIP3    H124716   3.559   2.513  15.563  0.0553  0.1560  0.6556
 1075TIP3    H224717   3.440   2.544  15.474 -1.0037 -0.9159  1.6596
 1076TIP3   OH224718   0.666   3.566  16.704  0.0458 -0.2200  0.6038
 1076TIP3    H124719   0.684   3.477  16.676 -1.1410  0.2221 -1.8071
 1076TIP3    H224720   0.621   3.556  16.788 -1.2019 -1.9833 -0.2082
 1077TIP3   OH224721   0.360   3.532  13.132  0.0282  0.0771  0.2444
 1077TIP3    H124722   0.411   3.585  13.194 -0.6592 -0.2602  1.1259
 1077TIP3    H224723   0.279   3.581  13.120 -0.3069 -0.4100  0.4874
 1078TIP3   OH224724   3.141   2.842   6.113  0.9828  0.3852 -0.4534
 1078TIP3    H124725   3.108   2.852   6.024  0.8860  0.6801 -0.3824
 1078TIP3    H224726   3.131   2.928   6.153  0.7377  0.1775 -0.0574
 1079TIP3   OH224727   6.452   1.959  12.981 -0.0999  0.0066 -0.2950
 1079TIP3    H124728   6.527   1.988  13.034  0.5810  0.4711 -1.4718
 1079TIP3    H224729   6.391   2.032  12.984 -1.2583 -0.9489  1.9279
 1080TIP3   OH224730   1.786   3.371   2.470 -0.4877 -0.3722  0.7589
 1080TIP3    H124731   1.755   3.288   2.507 -1.0803  0.2641  1.7061
 1080TIP3    H224732   1.727   3.437   2.505 -0.4210  0.3952 -0.4972
 1081TIP3   OH224733   3.351   2.202   0.187 -0.3216  0.2730  0.2679
 1081TIP3    H124734   3.314   2.134   0.243 -0.4089  1.4440  1.6697
 1081TIP3    H224735   3.428   2.161   0.148 -0.1904 -0.5332  1.3319
 1082TIP3   OH224736   4.612   0.173  15.776 -0.3236  0.2063  0.1096
 1082TIP3    H124737   4.612   0.124  15.859 -0.2888 -2.3905 -1.3018
 1082TIP3    H224738   4.524   0.211  15.770 -0.1494  0.8873  1.5459
 1083TIP3   OH224739   0.444   3.048   6.606 -0.4718  0.0263  1.0092
 1083TIP3    H124740   0.480   3.103   6.536 -0.4200 -0.1481  0.8987
 1083TIP3    H224741   0.380   2.992   6.562  1.4541 -1.9728  0.5804
 1084TIP3   OH224742   0.770   3.550  14.843  0.2926  0.2265  0.2336
 1084TIP3    H124743   0.727   3.513  14.766 -0.7281  3.6009 -1.0169
 1084TIP3    H224744   0.725   3.510  14.918  0.6162 -2.3622 -0.8340
 1085TIP3   OH224745   6.715   2.222  13.956 -0.4635 -0.2308 -0.6827
 1085TIP3    H124746   6.737   2.176  14.037  0.1648  0.6724 -0.3284
 1085TIP3    H224747   6.795   2.268  13.932 -0.2046 -1.5298 -2.5687
 1086TIP3   OH224748   0.778   5.873  11.510  0.1607 -0.3557  0.0112
 1086TIP3    H124749   0.788   5.787  11.551  0.8558 -0.0833  0.4096
 1086TIP3    H224750   0.770   5.854  11.416 -1.0734 -0.9502  0.2107
 1087TIP3   OH224751   1.810   4.504   1.204  0.2518 -0.3274 -1.3668
 1087TIP3    H124752   1.904   4.507   1.224  0.5271 -1.3969 -2.3951
 1087TIP3    H224753   1.791   4.411   1.193 -0.9302 -0.1184 -1.2175
 1088TIP3   OH224754   0.018   4.538   5.046  0.7116  0.3158 -0.0235
 1088TIP3    H124755   0.003   4.455   5.001 -0.8743  0.7397 -0.3167
 1088TIP3    H224756   0.113   4.542   5.059  0.8562 -1.2829 -0.4857
 1089TIP3   OH224757   1.663   2.212  14.419  0.2296  0.1564 -0.6280
 1089TIP3    H124758   1.619   2.246  14.341 -0.6215 -0.8843 -0.6275
 1089TIP3    H224759   1.700   2.129  14.391  0.0352 -0.1619  0.0352
 1090TIP3   OH224760   3.211   0.510   6.680 -0.4352 -0.2913  0.1867
 1090TIP3    H124761   3.287   0.567   6.684 -1.6294  1.3989 -0.1145
 1090TIP3    H224762   3.241   0.433   6.632  1.0626  0.3540  0.0416
 1091TIP3   OH224763   5.731   4.699  11.756 -0.4671 -0.2631  0.0689
 1091TIP3    H124764   5.757   4.656  11.674 -0.9039 -1.5123  0.5639
 1091TIP3    H224765   5.814   4.731  11.793 -0.3764  1.2496 -1.3393
 1092TIP3   OH224766   4.958   0.652  15.934  0.3795  0.1166  0.5969
 1092TIP3    H124767   4.891   0.584  15.944  0.2318  0.4574  2.0241
 1092TIP3    H224768   5.022   0.613  15.874 -0.2426 -0.8657  0.5467
 1093TIP3   OH224769   2.161   4.539   5.658  0.9263  0.1406  0.5257
 1093TIP3    H124770   2.256   4.525   5.660  0.8771 -0.5424 -0.8298
 1093TIP3    H224771   2.129   4.494   5.735  1.5633 -0.9551  0.1771
 1094TIP3   OH224772   6.650   3.405   3.835  0.4751 -0.1599  0.0870
 1094TIP3    H124773   6.627   3.477   3.776  2.1538 -0.1033 -0.5652
 1094TIP3    H224774   6.709   3.350   3.783  0.6497 -1.0238  1.1719
 1095TIP3   OH224775   5.229   0.496  13.526  0.1042 -0.7107 -0.2335
 1095TIP3    H124776   5.280   0.427  13.483  0.9523 -0.0110 -0.3826
 1095TIP3    H224777   5.291   0.568  13.535 -0.6835 -0.0865  0.2132
 1096TIP3   OH224778   3.407   0.272   6.172 -0.2025 -0.3070  0.4700
 1096TIP3    H124779   3.341   0.307   6.231  0.6605  1.6906  0.3233
 1096TIP3    H224780   3.460   0.214   6.228 -0.6199 -0.0371  1.1647
 1097TIP3   OH224781   2.539   4.699  15.628 -0.0891 -0.1099 -0.4348
 1097TIP3    H124782   2.497   4.754  15.563 -0.2244  1.7163  1.1167
 1097TIP3    H224783   2.467   4.654  15.672  0.0435 -1.9258 -1.9669
 1098TIP3   OH224784   5.182   2.582  16.509  0.7819 -0.3837 -0.7260
 1098TIP3    H124785   5.182   2.487  16.513  0.4900 -0.3532  0.3017
 1098TIP3    H224786   5.097   2.608  16.546  0.8425  0.2741 -1.0250
 1099TIP3   OH224787   3.541   4.319   1.740 -0.1027  0.1392  0.0296
 1099TIP3    H124788   3.501   4.307   1.826  0.6294  0.8532  0.4967
 1099TIP3    H224789   3.600   4.244   1.730  0.0913  0.2480  0.3267
 1100TIP3   OH224790   4.492   0.354   0.740  1.0353 -0.1273 -0.5436
 1100TIP3    H124791   4.552   0.418   0.778  2.1936 -1.2802 -0.3895
 1100TIP3    H224792   4.526   0.340   0.651  0.9980 -0.7800 -0.4579
 1101TIP3   OH224793   0.324   5.135   1.238 -0.2459  0.0471 -0.0722
 1101TIP3    H124794   0.403   5.081   1.248 -0.2607 -0.0709 -0.5674
 1101TIP3    H224795   0.271   5.088   1.173 -1.7607 -1.0628  1.8573
 1102TIP3   OH224796   3.384   6.448  16.511 -0.1434  0.5759 -0.4399
 1102TIP3    H124797   3.300   6.407  16.529 -0.2461  1.1752  0.5514
 1102TIP3    H224798   3.445   6.405  16.570 -0.0707  1.1765 -0.0609
 1103TIP3   OH224799   6.284   5.482   2.183  0.8320  0.4605 -0.3926
 1103TIP3    H124800   6.317   5.406   2.134 -0.1531 -0.6270  0.5733
 1103TIP3    H224801   6.327   5.557   2.141  1.0054 -0.5139 -2.0768
 1104TIP3   OH224802   5.520   6.172   2.168 -0.1366 -0.2484 -0.2908
 1104TIP3    H124803   5.575   6.115   2.222 -0.2269 -1.6693 -1.6473
 1104TIP3    H224804   5.570   6.254   2.162  0.3987 -0.4531  0.9724
 1105TIP3   OH224805   0.140   0.874   1.567 -0.4423 -0.1933  0.2979
 1105TIP3    H124806   0.212   0.828   1.609 -0.3766 -0.7645 -0.4372
 1105TIP3    H224807   0.076   0.806   1.547  0.3056 -0.2590 -2.1900
 1106TIP3   OH224808   3.077   6.495   3.501 -0.0795  0.3033  0.0032
 1106TIP3    H124809   3.074   6.551   3.423 -0.8198  1.2991  0.7258
 1106TIP3    H224810   3.137   6.424   3.477  1.2148  1.6055 -0.8082
 1107TIP3   OH224811   2.947   2.164  15.719  0.4818  1.0293 -0.1259
 1107TIP3    H124812   2.892   2.218  15.663 -0.8129  1.1004  1.1598
 1107TIP3    H224813   3.008   2.121  15.659 -2.8812 -1.4715 -2.1529
 1108TIP3   OH224814   1.180   1.919  12.154  0.2563  0.8013 -0.6271
 1108TIP3    H124815   1.177   1.956  12.066  2.0632 -2.7841 -2.3903
 1108TIP3    H224816   1.140   1.832  12.145  0.5375  0.3082  2.0829
 1109TIP3   OH224817   3.293   0.837  15.496 -0.0386  0.3106 -0.7534
 1109TIP3    H124818   3.326   0.788  15.571  1.8988  0.8730 -1.1906
 1109TIP3    H224819   3.198   0.821  15.497  0.0309 -0.2970  1.3515
 1110TIP3   OH224820   3.843   3.813   1.729  0.1602  0.0489 -0.2447
 1110TIP3    H124821   3.849   3.840   1.637 -0.7865 -3.2017 -1.4023
 1110TIP3    H224822   3.925   3.768   1.746 -0.2840 -0.7100 -0.0388
 1111TIP3   OH224823   0.996   3.764   3.292  0.0057  0.2333  0.3769
 1111TIP3    H124824   0.957   3.840   3.248 -1.0332  0.4948  1.6853
 1111TIP3    H224825   0.921   3.709   3.315  0.6858 -0.7814  0.2031
 1112TIP3   OH224826   3.089   1.992  13.779  0.3080  0.5350  0.1113
 1112TIP3    H124827   3.181   1.993  13.805  0.8322  0.8532 -1.6124
 1112TIP3    H224828   3.058   2.081  13.796  1.0026  1.1117 -1.4297
 1113TIP3   OH224829   6.715   4.555  11.216 -0.2923 -0.1633 -0.2639
 1113TIP3    H124830   6.790   4.606  11.185  0.2095 -1.2063 -0.8083
 1113TIP3    H224831   6.749   4.507  11.292 -1.0082  0.9588  0.8200
 1114TIP3   OH224832   4.561   2.108   0.332 -0.3449 -0.3530 -0.1125
 1114TIP3    H124833   4.654   2.087   0.328 -0.0434  1.0412 -0.8030
 1114TIP3    H224834   4.538   2.099   0.424  0.9604  1.2764  0.4145
 1115TIP3   OH224835   2.507   2.997   5.861 -0.4593  0.0856  0.0904
 1115TIP3    H124836   2.570   2.965   5.925 -0.4449  1.7758  0.9547
 1115TIP3    H224837   2.422   2.984   5.902 -0.4687  0.8624  0.3320
 1116TIP3   OH224838   3.479   6.762  11.179  0.3073  0.6498  0.3095
 1116TIP3    H124839   3.555   6.771  11.122  0.1828  0.8168  0.1681
 1116TIP3    H224840   3.479   6.840  11.234  2.2681 -0.9460  2.8133
 1117TIP3   OH224841   0.393   0.455   2.643  0.8115 -0.0321  0.0073
 1117TIP3    H124842   0.392   0.546   2.670  0.4804  0.0499 -0.2799
 1117TIP3    H224843   0.346   0.453   2.560 -0.0760 -0.6194  0.5102
 1118TIP3   OH224844   3.600   0.274  16.744  0.0254 -0.0690  0.1777
 1118TIP3    H124845   3.656   0.216  16.693 -1.3822 -0.8866 -0.5022
 1118TIP3    H224846   3.623   0.362  16.715 -0.6710 -0.5057 -1.8726
 1119TIP3   OH224847   1.816   0.092   1.539 -0.0959 -0.0897 -0.4621
 1119TIP3    H124848   1.753   0.106   1.609  1.0769  2.3513  0.2180
 1119TIP3    H224849   1.882   0.033   1.577  0.1600  0.6503  0.2595
 1120TIP3   OH224850   5.124   1.960  15.717  0.2966  0.5648 -0.5834
 1120TIP3    H124851   5.148   1.985  15.628 -0.3865 -0.8522 -1.2042
 1120TIP3    H224852   5.043   2.009  15.735 -0.0456  0.1952 -1.0905
 1121TIP3   OH224853   5.837   3.934  17.069  0.3636 -0.2454  0.1838
 1121TIP3    H124854   5.811   3.935  17.161  0.9143  2.3207  0.4035
 1121TIP3    H224855   5.929   3.910  17.071  0.0793 -1.3602  0.1763
 1122TIP3   OH224856   2.195   6.069   1.442 -0.4844  0.4855 -0.1256
 1122TIP3    H124857   2.287   6.093   1.433 -0.5907  1.3652  0.9626
 1122TIP3    H224858   2.179   6.010   1.368  1.6948 -2.1136  1.2876
 1123TIP3   OH224859   0.476   6.087  15.438  0.0720 -0.3729 -0.2325
 1123TIP3    H124860   0.404   6.106  15.378 -1.1494 -2.6404  0.3819
 1123TIP3    H224861   0.456   6.136  15.517  0.4167  0.7444 -0.8191
 1124TIP3   OH224862   3.492   0.380  17.038  0.5193 -0.2805  0.2776
 1124TIP3    H124863   3.529   0.450  17.092 -0.8441  1.8227 -1.3570
 1124TIP3    H224864   3.562   0.358  16.976  0.6091  0.4413  0.1073
 1125TIP3   OH224865   2.641   1.320   1.284  0.1807  0.0692 -0.2446
 1125TIP3    H124866   2.728   1.359   1.292  0.5807 -0.9497  0.6723
 1125TIP3    H224867   2.608   1.352   1.200  2.1654 -0.9209 -1.4754
 1126TIP3   OH224868   1.172   3.655  17.126  0.0980  0.0321 -0.6973
 1126TIP3    H124869   1.153   3.580  17.070 -0.8654  0.9895 -1.6936
 1126TIP3    H224870   1.265   3.671  17.113  0.2503 -0.7845 -0.7066
 1127TIP3   OH224871   3.632   0.095   3.783  0.3267 -0.1413 -0.3085
 1127TIP3    H124872   3.665   0.051   3.861 -1.8723 -2.2482 -0.4618
 1127TIP3    H224873   3.606   0.182   3.813 -0.1227 -0.7876  1.2559
 1128TIP3   OH224874   3.042   4.565  13.384 -0.3916 -0.0012  0.0150
 1128TIP3    H124875   3.137   4.564  13.384 -0.3657 -0.2460  1.3267
 1128TIP3    H224876   3.017   4.579  13.293  0.9031  1.0766 -0.1965
 1129TIP3   OH224877   5.513   2.410   1.784 -0.4789  0.3983  0.0476
 1129TIP3    H124878   5.501   2.373   1.871  3.0491  1.3155  1.0869
 1129TIP3    H224879   5.509   2.505   1.798  1.0091  0.5797 -0.5448
 1130TIP3   OH224880   0.355   0.209  15.070  0.2509  0.5640  0.1818
 1130TIP3    H124881   0.320   0.260  14.996  0.6913 -0.4876 -0.7919
 1130TIP3    H224882   0.441   0.181  15.040 -0.1811 -1.1640  0.4648
 1131TIP3   OH224883   2.351   6.332   3.834 -0.0655 -0.4971  0.1742
 1131TIP3    H124884   2.384   6.244   3.812 -1.8014 -1.1479  0.0386
 1131TIP3    H224885   2.405   6.391   3.782 -0.9493 -1.7022 -2.2839
 1132TIP3   OH224886   3.911   5.574  14.523  0.0026 -0.3831  0.3094
 1132TIP3    H124887   3.839   5.561  14.586 -0.3178  1.6492  0.4267
 1132TIP3    H224888   3.871   5.621  14.450  1.4706  2.4313  1.1574
 1133TIP3   OH224889   3.461   4.841   6.144  0.5330 -0.3224 -0.2262
 1133TIP3    H124890   3.498   4.831   6.231  0.3467 -1.6635 -0.2740
 1133TIP3    H224891   3.367   4.852   6.159  0.3557 -1.5786 -0.2655
 1134TIP3   OH224892   2.019   3.294  10.829  0.1744  0.2553  1.0752
 1134TIP3    H124893   2.090   3.234  10.855  0.3649 -0.8316 -1.6408
 1134TIP3    H224894   2.061   3.355  10.769 -1.2224 -0.7490 -1.0294
 1135TIP3   OH224895   1.408   1.323  14.822  0.1746 -0.2088 -0.2555
 1135TIP3    H124896   1.445   1.298  14.737 -0.4316 -0.0630 -0.5695
 1135TIP3    H224897   1.384   1.415  14.811 -1.1201 -0.5383 -0.3767
 1136TIP3   OH224898   1.537   3.606  14.362  0.2060  0.4750  0.2367
 1136TIP3    H124899   1.628   3.591  14.336 -0.5367 -4.6289 -0.5406
 1136TIP3    H224900   1.521   3.543  14.432 -2.4986  1.9707  1.1237
 1137TIP3   OH224901   5.413   3.802   2.522 -0.0305 -0.0044 -0.5286
 1137TIP3    H124902   5.349   3.829   2.456  0.1602 -1.6373 -1.4401
 1137TIP3    H224903   5.395   3.709   2.536  1.3470 -0.2047  0.1165
 1138TIP3   OH224904   4.270   2.517  13.842  0.4703 -0.1793 -0.3610
 1138TIP3    H124905   4.201   2.529  13.907 -0.1840  0.6308 -1.1824
 1138TIP3    H224906   4.291   2.423  13.847 -0.7748 -0.4678 -0.1825
 1139TIP3   OH224907   2.881   6.652   4.639  0.0419 -0.3652 -0.3582
 1139TIP3    H124908   2.965   6.607   4.627  0.1963 -0.4652  0.9402
 1139TIP3    H224909   2.900   6.724   4.699 -0.6177  0.2074 -0.8157
 1140TIP3   OH224910   3.153   4.212   0.046  0.3101  0.5626  0.3597
 1140TIP3    H124911   3.095   4.280   0.081 -0.1120 -0.1444  1.0701
 1140TIP3    H224912   3.105   4.176  -0.029  0.9808  1.7152 -0.6624
 1141TIP3   OH224913   0.968   3.477  12.238  0.2671 -0.2175  0.4146
 1141TIP3    H124914   0.968   3.561  12.285 -1.4523 -0.8885  1.7489
 1141TIP3    H224915   1.058   3.467  12.207  0.2120  2.7560 -1.0267
 1142TIP3   OH224916   1.233   4.167  15.541  0.0622 -0.1298  0.1348
 1142TIP3    H124917   1.300   4.101  15.526  0.7826  0.5019  0.5315
 1142TIP3    H224918   1.151   4.123  15.519  0.1350 -2.2820  3.5471
 1143TIP3   OH224919   3.915   2.379   0.311 -0.1047  0.0357 -0.2877
 1143TIP3    H124920   3.960   2.455   0.275 -0.6869  0.6265  0.2001
 1143TIP3    H224921   3.962   2.304   0.276  0.6549  0.6241 -0.5523
 1144TIP3   OH224922   4.488   3.746   1.733 -0.6772  0.0242 -0.1680
 1144TIP3    H124923   4.553   3.712   1.794 -1.3092 -0.7958  0.0748
 1144TIP3    H224924   4.464   3.832   1.768  1.1014  0.8805 -0.9036
 1145TIP3   OH224925   4.958   2.423   5.473 -0.2984  0.3092 -0.0395
 1145TIP3    H124926   5.043   2.422   5.429 -1.0782  0.4724 -1.6465
 1145TIP3    H224927   4.962   2.499   5.532  0.5722  0.4685 -0.2887
 1146TIP3   OH224928   4.948   2.763   2.601  0.1397  0.0728 -0.1769
 1146TIP3    H124929   4.897   2.693   2.558 -0.4397  0.5225 -0.2356
 1146TIP3    H224930   4.903   2.778   2.684  1.7558 -1.4014  1.0651
 1147TIP3   OH224931   2.663   1.029  11.236  0.3917  0.5563  0.4310
 1147TIP3    H124932   2.617   0.947  11.218 -3.4500  2.3654  1.1042
 1147TIP3    H224933   2.684   1.064  11.149  0.0227 -0.0718  0.0831
 1148TIP3   OH224934   5.085   4.107   4.847 -0.1102  0.4568 -0.9463
 1148TIP3    H124935   5.139   4.124   4.923  0.3871 -2.4234 -0.5453
 1148TIP3    H224936   5.040   4.024   4.867 -2.1861  1.0779 -2.6053
 1149TIP3   OH224937   2.470   3.580   1.365 -0.1288 -0.3462  0.4314
 1149TIP3    H124938   2.376   3.577   1.348  0.0212 -1.0290 -0.3412
 1149TIP3    H224939   2.489   3.501   1.415  0.3933 -1.5190 -1.4913
 1150TIP3   OH224940   4.382   1.580  12.702  0.3784 -0.5634  0.0211
 1150TIP3    H124941   4.451   1.611  12.644  1.5169 -1.7195  0.7183
 1150TIP3    H224942   4.300   1.605  12.658  1.2093  1.3173 -0.5470
 1151TIP3   OH224943   2.025   3.516   5.361 -0.7923 -0.1676 -0.1465
 1151TIP3    H124944   2.112   3.543   5.332 -1.7760  0.6352 -2.6660
 1151TIP3    H224945   2.036   3.424   5.386  1.6083  0.9541  3.9496
 1152TIP3   OH224946   3.300   0.438  16.265 -0.3205 -0.0496 -0.3924
 1152TIP3    H124947   3.335   0.436  16.354  1.9624  2.1053 -1.1358
 1152TIP3    H224948   3.304   0.530  16.240 -3.4801 -0.1656 -1.8432
 1153TIP3   OH224949   5.797   3.411   0.552 -0.3676 -0.0658 -0.2580
 1153TIP3    H124950   5.735   3.438   0.620  0.8687  0.8503  0.5732
 1153TIP3    H224951   5.854   3.347   0.595  0.1469  0.1853 -0.5480
 1154TIP3   OH224952   0.960   6.281  16.447 -0.4366  0.0083 -0.1087
 1154TIP3    H124953   1.041   6.255  16.404  0.6426  0.6126  1.4335
 1154TIP3    H224954   0.892   6.265  16.383  1.0947  1.2435 -2.1727
 1155TIP3   OH224955   5.271   5.364  17.098 -0.0419 -0.2028  0.6585
 1155TIP3    H124956   5.252   5.438  17.040 -1.5030 -1.6018 -0.7324
 1155TIP3    H224957   5.367   5.357  17.096 -0.0110 -0.0379 -1.4261
 1156TIP3   OH224958   0.745   1.312   5.138 -0.6968 -0.1880  0.5052
 1156TIP3    H124959   0.838   1.294   5.123 -0.3230  0.6370  1.6839
 1156TIP3    H224960   0.731   1.290   5.231 -1.7668 -0.6186  0.2589
 1157TIP3   OH224961   6.446   2.755   5.803  0.4134 -0.2678  0.2281
 1157TIP3    H124962   6.490   2.753   5.719  0.4519  1.3728  0.1652
 1157TIP3    H224963   6.358   2.722   5.785 -0.6149  2.8011 -1.2116
 1158TIP3   OH224964   1.790   1.718  14.634  0.1626 -0.7991  0.3222
 1158TIP3    H124965   1.831   1.804  14.626 -0.0230 -0.6953  0.4739
 1158TIP3    H224966   1.850   1.669  14.690  0.0582 -0.6333  0.5814
 1159TIP3   OH224967   1.253   3.926  11.841 -0.6936  0.2410  0.5812
 1159TIP3    H124968   1.338   3.886  11.860  0.5420  1.8863 -1.0552
 1159TIP3    H224969   1.217   3.873  11.770 -0.6340  0.0370  0.7023
 1160TIP3   OH224970   1.770   3.244   4.136 -0.7042 -0.1267 -0.4839
 1160TIP3    H124971   1.686   3.245   4.090  0.5614 -0.5692 -3.0400
 1160TIP3    H224972   1.819   3.317   4.098  0.6315 -0.8748 -0.2751
 1161TIP3   OH224973   4.717   2.566  13.036 -0.1513  0.1409 -0.1132
 1161TIP3    H124974   4.731   2.511  13.113  2.3796 -0.6174 -1.0248
 1161TIP3    H224975   4.625   2.552  13.013 -0.8935  0.1649  2.5307
 1162TIP3   OH224976   3.375   0.682  12.811 -0.4321  0.3117  0.1217
 1162TIP3    H124977   3.304   0.623  12.836 -0.6299  0.3637 -0.3109
 1162TIP3    H224978   3.388   0.737  12.888  0.0004 -0.5250  0.6648
 1163TIP3   OH224979   0.655   6.715  16.476 -0.0379 -0.2645 -0.3564
 1163TIP3    H124980   0.736   6.744  16.520  0.4933 -0.6335 -1.0727
 1163TIP3    H224981   0.656   6.761  16.392  0.9044 -2.3860 -1.5989
 1164TIP3   OH224982   1.607   1.534   3.521 -0.3457  0.3591  0.4427
 1164TIP3    H124983   1.528   1.567   3.478 -1.3303  1.3069  2.7803
 1164TIP3    H224984   1.591   1.549   3.614  1.4723 -1.9250  1.2179
 1165TIP3   OH224985   2.776   5.782   2.474  0.0600  0.5647 -0.5510
 1165TIP3    H124986   2.777   5.731   2.555  1.9594  1.1124 -0.1809
 1165TIP3    H224987   2.694   5.831   2.478  0.6454  1.5207  1.6988
 1166TIP3   OH224988   5.710   2.346  13.382 -0.3618 -0.5229  0.2293
 1166TIP3    H124989   5.781   2.376  13.438 -1.6853  0.8307  1.2504
 1166TIP3    H224990   5.631   2.382  13.422 -1.3478  1.0537 -2.8131
 1167TIP3   OH224991   5.660   1.597   1.869  0.0390  0.0604 -0.1528
 1167TIP3    H124992   5.622   1.681   1.895  2.1575  0.6030  1.5637
 1167TIP3    H224993   5.680   1.608   1.776 -2.8686  0.0994 -0.8637
 1168TIP3   OH224994   0.894   6.425  11.706  0.3291  0.4429 -0.7238
 1168TIP3    H124995   0.798   6.429  11.703  0.2726  0.0438  0.2095
 1168TIP3    H224996   0.918   6.491  11.771  0.6201 -0.1653 -0.2093
 1169TIP3   OH224997   4.647   4.773   4.416 -0.4731 -0.5085  0.5066
 1169TIP3    H124998   4.652   4.822   4.334 -0.2527 -0.9673  0.2448
 1169TIP3    H224999   4.554   4.752   4.426 -0.1612 -3.0402 -1.1650
 1170TIP3   OH225000   3.017   0.698   3.794  0.0178 -0.3715  1.2436
 1170TIP3    H125001   2.993   0.769   3.735  3.0500 -0.3128 -0.1023
 1170TIP3    H225002   3.024   0.739   3.881 -1.9470  0.0979  1.2107
 1171TIP3   OH225003   0.919   4.203  11.354  0.0182  0.1527  0.1080
 1171TIP3    H125004   0.924   4.226  11.447  1.7321  0.7067 -0.0856
 1171TIP3    H225005   0.903   4.109  11.353  3.8390 -0.6508  1.0758
 1172TIP3   OH225006   0.886   1.296  15.621  0.0924  0.2961  0.1558
 1172TIP3    H125007   0.802   1.287  15.665 -0.2969  1.0064 -0.4204
 1172TIP3    H225008   0.865   1.337  15.537  0.8496 -0.8301 -0.6108
 1173TIP3   OH225009   6.090   5.793  15.985 -0.0118 -0.1254  0.2090
 1173TIP3    H125010   6.019   5.853  16.003 -0.5523  0.0929 -2.2783
 1173TIP3    H225011   6.158   5.847  15.944 -0.6394 -1.1312 -2.3735
 1174TIP3   OH225012   3.864   1.129   3.468  0.0967 -0.3633 -0.0690
 1174TIP3    H125013   3.910   1.078   3.401 -1.0375 -1.7039  0.1203
 1174TIP3    H225014   3.790   1.074   3.493 -1.8543  1.8720 -0.6334
 1175TIP3   OH225015   4.663   3.138   0.146 -0.0260 -0.1674 -0.3970
 1175TIP3    H125016   4.739   3.084   0.127  1.1144  1.5230 -0.7791
 1175TIP3    H225017   4.644   3.183   0.064  0.8829  2.2007  0.6127
 1176TIP3   OH225018   6.542   3.876   3.425 -0.0811 -0.5016 -0.0635
 1176TIP3    H125019   6.539   3.918   3.511 -1.5104 -1.4733  0.4005
 1176TIP3    H225020   6.506   3.942   3.365  1.4003  0.3720 -0.0309
 1177TIP3   OH225021   6.185   4.304   1.546  0.1590 -0.2760  0.5225
 1177TIP3    H125022   6.274   4.332   1.526  0.5233 -1.2474  0.7046
 1177TIP3    H225023   6.193   4.210   1.562 -0.8659 -0.3351  0.7557
 1178TIP3   OH225024   3.377   0.359   2.873 -0.3211  0.6199  0.3056
 1178TIP3    H125025   3.309   0.308   2.828  0.3586 -0.3894  0.3731
 1178TIP3    H225026   3.449   0.363   2.810 -0.7011  2.3613 -0.0747
 1179TIP3   OH225027   3.179   5.501   1.156 -0.3385  0.2806  0.4335
 1179TIP3    H125028   3.096   5.534   1.190 -0.2555  0.4901  0.4328
 1179TIP3    H225029   3.156   5.460   1.072 -0.5166 -0.0897  0.6590
 1180TIP3   OH225030   3.707   1.637  15.088  0.0469  0.1319 -0.1005
 1180TIP3    H125031   3.624   1.601  15.059 -0.0085 -1.4155  1.7896
 1180TIP3    H225032   3.760   1.561  15.110  1.0791  1.1273  1.0158
 1181TIP3   OH225033   0.357   4.987   2.158 -0.1367  0.3396  0.0657
 1181TIP3    H125034   0.435   5.008   2.107  0.3383 -1.5838 -0.0814
 1181TIP3    H225035   0.295   5.057   2.138  2.1012  2.9908  1.5833
 1182TIP3   OH225036   2.077   2.239  14.853 -0.1587  0.4014  0.0473
 1182TIP3    H125037   2.064   2.162  14.909  2.1560  1.2088  1.8571
 1182TIP3    H225038   2.161   2.224  14.810  0.0798  1.6727  0.0207
 1183TIP3   OH225039   5.091   5.089   0.831  0.2472  0.3673  0.4377
 1183TIP3    H125040   5.030   5.020   0.854  0.0526  0.2582 -0.3591
 1183TIP3    H225041   5.041   5.170   0.840  0.6473  0.4746  1.9546
 1184TIP3   OH225042   5.721   2.332   0.587 -0.1656  0.2478  0.1024
 1184TIP3    H125043   5.751   2.413   0.629  1.1735  0.2174 -0.7356
 1184TIP3    H225044   5.626   2.338   0.589 -0.0930  1.6657  0.4088
 1185TIP3   OH225045   1.701   2.804  16.147 -0.2191 -0.4079  0.7513
 1185TIP3    H125046   1.796   2.809  16.140 -0.2743  0.1206  0.3221
 1185TIP3    H225047   1.670   2.892  16.124 -0.8250 -0.6609  0.5639
 1186TIP3   OH225048   3.793   0.331   1.679 -0.1571 -0.5773 -0.2625
 1186TIP3    H125049   3.807   0.388   1.754 -0.6675 -0.6220 -0.1246
 1186TIP3    H225050   3.803   0.388   1.603  0.6204 -0.5883 -0.1745
 1187TIP3   OH225051   3.802   1.398  15.894  0.1020  0.1371  0.0192
 1187TIP3    H125052   3.757   1.467  15.846  0.9133  0.4027 -0.3745
 1187TIP3    H225053   3.732   1.343  15.929 -0.5752  1.3097  0.5796
 1188TIP3   OH225054   0.741   5.724  13.985  0.2618 -0.2007 -0.2962
 1188TIP3    H125055   0.826   5.747  13.950  0.2207 -0.1568 -0.3676
 1188TIP3    H225056   0.680   5.784  13.942  0.3064  0.3525  0.3952
 1189TIP3   OH225057   0.214   4.000  16.705  0.1799 -0.6888 -0.2688
 1189TIP3    H125058   0.203   3.978  16.797 -3.0150  0.2433 -0.2974
 1189TIP3    H225059   0.163   3.934  16.658  0.5172 -0.2776 -1.2463
 1190TIP3   OH225060   4.457   6.460  12.408 -0.5263 -0.0660  0.6740
 1190TIP3    H125061   4.518   6.499  12.470 -1.7760  1.2551  1.1380
 1190TIP3    H225062   4.511   6.431  12.335  0.6761  0.7420  1.2202
 1191TIP3   OH225063   2.145   0.691   3.168 -0.7085 -0.0457  0.4766
 1191TIP3    H125064   2.150   0.601   3.135  0.3357 -0.8017  2.5105
 1191TIP3    H225065   2.087   0.685   3.244  0.1991  0.7485  1.2700
 1192TIP3   OH225066   0.391   6.189   4.328  0.1900  0.4106  0.1467
 1192TIP3    H125067   0.370   6.113   4.383 -1.9011  0.2766 -0.7799
 1192TIP3    H225068   0.429   6.151   4.249  0.7689  0.4704  0.3826
 1193TIP3   OH225069   4.332   5.967   2.750  0.0588 -0.6513  0.4668
 1193TIP3    H125070   4.254   5.927   2.712 -0.4139 -0.0372  0.7814
 1193TIP3    H225071   4.309   5.983   2.841  1.0127 -1.6568  0.9065
 1194TIP3   OH225072   5.750   5.380   3.833  0.0402 -0.4752  0.1560
 1194TIP3    H125073   5.805   5.391   3.911  0.1478  1.4017 -0.1425
 1194TIP3    H225074   5.716   5.291   3.841  3.7076 -2.0955 -0.0473
 1195TIP3   OH225075   2.067   3.256   0.057 -0.1210  0.4569  0.3181
 1195TIP3    H125076   2.041   3.305   0.135 -0.3192  1.2407 -0.2249
 1195TIP3    H225077   2.020   3.173   0.064 -0.2331  0.5662  0.9645
 1196TIP3   OH225078   2.118   5.732   0.927 -0.3365 -0.1129  0.1376
 1196TIP3    H125079   2.149   5.645   0.900 -1.5352  0.0330 -1.9264
 1196TIP3    H225080   2.034   5.715   0.971 -0.5943 -0.0196 -0.3085
 1197TIP3   OH225081   0.584   1.553   1.311  0.0269  0.1382  0.4316
 1197TIP3    H125082   0.540   1.591   1.387  0.7734  2.0080 -0.0108
 1197TIP3    H225083   0.513   1.526   1.253 -0.5385  0.0939  1.1310
 1198TIP3   OH225084   1.378   5.551  11.977 -0.1153  0.5568  0.7751
 1198TIP3    H125085   1.313   5.481  11.987  0.4521  0.0318  0.8668
 1198TIP3    H225086   1.400   5.551  11.884  0.6321 -0.0850  0.9394
 1199TIP3   OH225087   6.693   6.124   4.689 -0.2038 -0.2303  0.0002
 1199TIP3    H125088   6.622   6.156   4.745 -0.7670 -0.3285 -0.6298
 1199TIP3    H225089   6.750   6.200   4.676 -0.7218  0.1234 -0.2631
 1200TIP3   OH225090   1.309   3.474  13.446  0.0129 -0.0388 -0.4681
 1200TIP3    H125091   1.256   3.412  13.397  0.0283 -0.7545  0.3876
 1200TIP3    H225092   1.247   3.541  13.476  0.0385  0.5202 -1.6051
 1201TIP3   OH225093   5.242   2.967  12.522  0.4116 -0.4645 -0.2299
 1201TIP3    H125094   5.175   3.024  12.559  0.1630 -0.9143  0.0179
 1201TIP3    H225095   5.321   3.021  12.520  0.6334 -0.6613  1.6538
 1202TIP3   OH225096   4.437   1.709  13.838 -0.5000 -0.1249  0.1921
 1202TIP3    H125097   4.461   1.704  13.931  1.0875  1.9531 -0.0260
 1202TIP3    H225098   4.470   1.628  13.800  0.5739 -0.1338  1.0998
 1203TIP3   OH225099   4.521   6.117  14.756  0.2271  0.5055 -0.2168
 1203TIP3    H125100   4.456   6.083  14.817  1.8433 -0.3025  1.1419
 1203TIP3    H225101   4.493   6.207  14.738 -0.1365  0.8755  1.9801
 1204TIP3   OH225102   1.330   1.652  10.818 -0.4131  0.5263  0.3194
 1204TIP3    H125103   1.359   1.571  10.777 -0.9665  0.7987 -0.6712
 1204TIP3    H225104   1.238   1.636  10.840 -0.2960  0.6050  0.8662
 1205TIP3   OH225105   0.915   5.838   5.992  0.2927  0.0944 -0.0319
 1205TIP3    H125106   0.931   5.823   6.086 -0.2688 -0.8160 -0.0662
 1205TIP3    H225107   0.993   5.802   5.949  0.0473 -0.5216  0.0286
 1206TIP3   OH225108   4.095   0.561  14.556 -0.0540  0.0926  0.3425
 1206TIP3    H125109   4.184   0.529  14.573 -0.8951 -2.0318  1.1583
 1206TIP3    H225110   4.066   0.511  14.481 -0.8683  0.1256  0.6292
 1207TIP3   OH225111   4.260   0.740   1.080  0.0134  0.0628  0.2341
 1207TIP3    H125112   4.329   0.758   1.144 -0.7294  2.2092  0.5041
 1207TIP3    H225113   4.179   0.741   1.132 -0.4984  0.7764 -0.5602
 1208TIP3   OH225114   0.476   5.114  14.323  0.1225  0.4296 -0.1982
 1208TIP3    H125115   0.545   5.127  14.259  1.3671  2.0104  1.3530
 1208TIP3    H225116   0.490   5.025  14.356  0.7077  0.3306 -0.7007
 1209TIP3   OH225117   5.116   3.467  15.182 -0.0142 -0.4039 -0.1914
 1209TIP3    H125118   5.053   3.420  15.128 -0.9472  2.1379 -1.4916
 1209TIP3    H225119   5.075   3.471  15.269  0.5740 -2.7567  0.2651
 1210TIP3   OH225120   0.993   1.755   2.202  0.3137 -0.2876  0.3165
 1210TIP3    H125121   0.993   1.696   2.127 -2.5151 -0.3108  0.2311
 1210TIP3    H225122   0.991   1.697   2.279 -1.2503 -0.3606  0.2566
 1211TIP3   OH225123   5.790   1.903   4.048 -0.3297 -0.1783  1.1785
 1211TIP3    H125124   5.857   1.835   4.040  0.7786  1.0000 -0.0673
 1211TIP3    H225125   5.819   1.957   4.122  0.9990  1.2288 -0.3061
 1212TIP3   OH225126   6.579   3.637   4.570  0.1074  0.4076 -0.3709
 1212TIP3    H125127   6.526   3.558   4.558  0.6271  0.0802 -0.5365
 1212TIP3    H225128   6.540   3.700   4.509 -0.5168  0.3887  0.0006
 1213TIP3   OH225129   0.616   4.666  16.981 -0.0802  0.6013 -0.0471
 1213TIP3    H125130   0.702   4.705  17.000  1.2007 -1.9794 -0.0354
 1213TIP3    H225131   0.596   4.614  17.059 -1.1179  0.3087 -0.4948
 1214TIP3   OH225132   3.641   5.270  10.984 -0.0648 -0.1494 -0.3082
 1214TIP3    H125133   3.613   5.189  10.943 -1.4784 -0.0380  0.3779
 1214TIP3    H225134   3.562   5.304  11.026  0.7442  1.0457  0.2971
 1215TIP3   OH225135   3.005   2.528   3.314  0.1642  0.4005 -0.2837
 1215TIP3    H125136   3.039   2.461   3.374 -0.2046  0.5695  0.1195
 1215TIP3    H225137   3.062   2.522   3.237 -0.1847 -0.7308 -0.4725
 1216TIP3   OH225138   0.773   2.023   0.619 -0.5638  0.1928  0.3569
 1216TIP3    H125139   0.783   2.107   0.664  2.5798 -0.0976  0.3994
 1216TIP3    H225140   0.731   2.045   0.536 -2.1164  1.3967  1.4050
 1217TIP3   OH225141   0.371   3.847  12.962  0.0222  0.4376  0.5005
 1217TIP3    H125142   0.276   3.846  12.958  0.0118  1.6284  0.0655
 1217TIP3    H225143   0.391   3.898  13.041  0.3106  0.1189  0.6385
 1218TIP3   OH225144   1.400   5.485   4.165 -0.3394 -0.8588 -0.2117
 1218TIP3    H125145   1.468   5.527   4.219  0.7693 -4.8975  1.9673
 1218TIP3    H225146   1.441   5.404   4.134 -3.3455 -2.1941 -1.0249
 1219TIP3   OH225147   0.299   1.104  11.393  0.1928 -0.2450 -0.2045
 1219TIP3    H125148   0.350   1.023  11.392 -0.7496 -0.8743 -2.0030
 1219TIP3    H225149   0.213   1.077  11.425  0.9178  0.8524  3.0760
 1220TIP3   OH225150   4.329   4.047  14.293  0.5659 -0.5908 -0.2135
 1220TIP3    H125151   4.390   4.056  14.366  1.1200 -1.0224 -0.6082
 1220TIP3    H225152   4.307   4.136  14.268  3.6099 -0.2362 -2.1748
 1221TIP3   OH225153   3.579   0.702  16.454 -0.1307 -0.1881  0.0253
 1221TIP3    H125154   3.531   0.715  16.373  0.8690 -0.8665 -0.7070
 1221TIP3    H225155   3.632   0.781  16.464 -0.4788  0.0255  0.1756
 1222TIP3   OH225156   2.571   6.712   3.580  0.5896  0.2285 -0.3599
 1222TIP3    H125157   2.625   6.790   3.588  0.5001  0.3060 -0.5132
 1222TIP3    H225158   2.482   6.745   3.570  0.3990  0.0911  0.7137
 1223TIP3   OH225159   3.744   4.097  11.992 -0.0370 -0.3881  0.1359
 1223TIP3    H125160   3.739   4.006  11.963  0.5975  0.0655 -1.5725
 1223TIP3    H225161   3.838   4.117  11.989 -0.2248  0.4948 -0.1541
 1224TIP3   OH225162   1.427   2.869  11.455 -0.1758  0.7427 -0.4170
 1224TIP3    H125163   1.349   2.854  11.402 -0.9461  0.3936  0.7834
 1224TIP3    H225164   1.394   2.882  11.544  1.1623 -0.0282  0.2287
 1225TIP3   OH225165   6.171   1.844  13.282  0.2880 -0.6266  0.5543
 1225TIP3    H125166   6.190   1.870  13.372  1.0697 -0.1689  0.2677
 1225TIP3    H225167   6.141   1.924  13.239  2.1904 -0.2638 -0.1915
 1226TIP3   OH225168   1.773   1.326  14.625  0.1123  0.4123  0.3296
 1226TIP3    H125169   1.843   1.390  14.613 -1.6723  2.7515  1.5093
 1226TIP3    H225170   1.794   1.282  14.708  0.8331  0.1332  0.0104
 1227TIP3   OH225171   2.794   0.523  14.396  0.1227  0.3725 -0.0105
 1227TIP3    H125172   2.804   0.598  14.455 -1.1996  0.1487  0.5418
 1227TIP3    H225173   2.699   0.513  14.387  0.2143 -2.1238  1.0736
 1228TIP3   OH225174   2.095   1.049   4.882 -0.0032 -0.0969 -0.1573
 1228TIP3    H125175   2.024   1.098   4.923  1.7780  1.9155  0.7403
 1228TIP3    H225176   2.072   0.958   4.894 -2.0037  0.4912  0.8622
 1229TIP3   OH225177   0.276   3.103  11.567 -0.4189 -0.3233 -0.6035
 1229TIP3    H125178   0.366   3.071  11.570  0.1637  1.1305 -1.5407
 1229TIP3    H225179   0.268   3.159  11.645 -1.1385 -1.9063  0.5125
 1230TIP3   OH225180   1.110   6.167  13.759  0.2415  0.2623 -0.3491
 1230TIP3    H125181   1.202   6.190  13.751 -0.3149  2.3211 -1.5990
 1230TIP3    H225182   1.064   6.235  13.710 -1.8561 -1.5653 -1.0884
 1231TIP3   OH225183   3.751   0.264   6.713  0.0881  0.0120  0.1050
 1231TIP3    H125184   3.738   0.345   6.663  4.3846  1.3840  0.7819
 1231TIP3    H225185   3.788   0.203   6.650 -2.5776 -1.3649 -0.2542
 1232TIP3   OH225186   6.186   5.274  14.729  0.5366 -0.7461 -0.1720
 1232TIP3    H125187   6.127   5.347  14.749 -0.1899 -1.6819  1.2541
 1232TIP3    H225188   6.144   5.227  14.658  0.0619 -0.8169  0.1481
 1233TIP3   OH225189   5.684   1.616   3.507  0.4691  0.2227 -0.6373
 1233TIP3    H125190   5.593   1.615   3.535  0.3397 -0.6091 -1.0447
 1233TIP3    H225191   5.690   1.689   3.446 -0.6675 -1.4299 -2.8964
 1234TIP3   OH225192   3.986   2.662  15.579  0.4685  0.1318  0.8803
 1234TIP3    H125193   3.906   2.634  15.624 -0.0479 -2.2304 -1.2787
 1234TIP3    H225194   4.054   2.603  15.612  1.0384  1.1332  1.5679
 1235TIP3   OH225195   3.497   2.609  16.399 -0.1862 -0.2729 -0.0605
 1235TIP3    H125196   3.445   2.593  16.477 -0.9458  0.8263 -0.3251
 1235TIP3    H225197   3.587   2.591  16.426  0.1951  3.8901  2.3472
 1236TIP3   OH225198   4.377   0.903  14.861 -0.2163  0.0082  0.0043
 1236TIP3    H125199   4.410   0.815  14.881  0.9786  0.4276 -0.0485
 1236TIP3    H225200   4.377   0.908  14.766 -1.5133 -0.3664 -0.0362
 1237TIP3   OH225201   4.406   4.501  16.541 -0.2896  0.0652  0.1505
 1237TIP3    H125202   4.377   4.489  16.631  0.4054 -0.1914  0.3498
 1237TIP3    H225203   4.329   4.534  16.494  0.1220  3.2166  1.4742
 1238TIP3   OH225204   1.016   2.474  12.816 -0.1818  0.7751  0.0942
 1238TIP3    H125205   1.037   2.551  12.764  0.0575 -0.0960 -1.1380
 1238TIP3    H225206   0.954   2.425  12.762 -1.3962  0.7432  1.4371
 1239TIP3   OH225207   6.128   2.155  12.161  0.1150  0.1285  0.0063
 1239TIP3    H125208   6.129   2.110  12.077  0.5906 -1.6144  0.9046
 1239TIP3    H225209   6.151   2.088  12.225 -0.0448  1.4515  1.5210
 1240TIP3   OH225210   4.572   6.401   4.486  0.3080  0.5409 -0.1016
 1240TIP3    H125211   4.639   6.433   4.425 -0.2899  1.0627 -0.4885
 1240TIP3    H225212   4.557   6.474   4.546 -0.6491  0.7983 -0.6403
 1241TIP3   OH225213   0.719   5.987   3.371  0.2575 -0.3011  0.5619
 1241TIP3    H125214   0.695   5.980   3.464  0.7547 -0.2901  0.6970
 1241TIP3    H225215   0.684   5.907   3.331 -0.0456 -0.2585  0.7388
 1242TIP3   OH225216   6.584   0.016  15.292 -0.2758 -0.4058 -0.3346
 1242TIP3    H125217   6.514   0.028  15.356 -0.8573  1.7151 -1.2898
 1242TIP3    H225218   6.664   0.041  15.339 -0.6884  1.0566 -0.3563
 1243TIP3   OH225219   3.005   4.561   4.562  0.2994 -0.1085 -0.2355
 1243TIP3    H125220   3.068   4.549   4.632 -1.1378  0.0844  1.1543
 1243TIP3    H225221   2.988   4.473   4.529  0.8935 -0.2153 -0.2663
 1244TIP3   OH225222   4.998   4.211  17.021 -0.0298  0.2455 -0.0007
 1244TIP3    H125223   5.086   4.241  16.997  0.3102 -0.6396  0.0803
 1244TIP3    H225224   4.977   4.146  16.955 -0.5192  0.2661  0.1349
 1245TIP3   OH225225   2.386   4.739  15.983 -0.2120  0.1953  0.0877
 1245TIP3    H125226   2.367   4.661  15.932 -0.6064  1.9925 -2.7365
 1245TIP3    H225227   2.481   4.738  15.994 -0.2203 -0.6741  0.1213
 1246TIP3   OH225228   3.569   2.246  11.371  0.1433  0.5169 -0.2685
 1246TIP3    H125229   3.518   2.292  11.438 -0.9710  0.6155 -1.1485
 1246TIP3    H225230   3.509   2.238  11.297  0.6531 -1.3697 -0.5424
 1247TIP3   OH225231   0.528   6.598   1.154  0.5516 -0.2118  0.0716
 1247TIP3    H125232   0.477   6.625   1.231  2.2937  1.1165  0.8331
 1247TIP3    H225233   0.534   6.502   1.161  0.1992 -0.1572  1.2777
 1248TIP3   OH225234   0.825   4.671   5.854 -0.5528 -0.0999 -0.1113
 1248TIP3    H125235   0.731   4.688   5.852 -0.1710  2.9700  1.5002
 1248TIP3    H225236   0.851   4.694   5.943  1.9160  0.2549 -0.8491
 1249TIP3   OH225237   1.897   0.002   6.360  0.6880 -0.4350  0.2991
 1249TIP3    H125238   1.961   0.052   6.411  1.4268 -0.8106 -0.2404
 1249TIP3    H225239   1.918   0.023   6.269 -1.4625  1.2949  0.1159
 1250TIP3   OH225240   2.827   5.226   0.007  0.6005  0.2136  0.1313
 1250TIP3    H125241   2.827   5.301   0.066  2.4060 -0.3809  0.9563
 1250TIP3    H225242   2.744   5.233  -0.041  0.2474  2.1179  0.9336
 1251TIP3   OH225243   4.357   6.044   3.007  0.0192 -0.0975  0.3492
 1251TIP3    H125244   4.450   6.054   3.029 -0.0392 -1.4180  1.3084
 1251TIP3    H225245   4.312   6.044   3.091 -0.8739  0.5987 -0.1176
 1252TIP3   OH225246   5.378   3.079  14.774 -0.0715 -0.0713  0.2454
 1252TIP3    H125247   5.375   3.098  14.680 -1.1615 -1.0463  0.0559
 1252TIP3    H225248   5.471   3.080  14.796  0.5449 -3.0315 -1.5896
 1253TIP3   OH225249   2.538   3.882   2.408 -0.4730 -0.1726  0.0093
 1253TIP3    H125250   2.487   3.898   2.329  1.3338  0.7967 -1.0051
 1253TIP3    H225251   2.472   3.868   2.476 -2.0715 -0.1366 -1.4621
 1254TIP3   OH225252   2.382   5.479   4.553 -0.0383  0.9627  0.4169
 1254TIP3    H125253   2.395   5.570   4.579 -0.8294  0.6243  2.1431
 1254TIP3    H225254   2.470   5.443   4.545  0.2668  1.6497  0.6510
 1255TIP3   OH225255   3.475   5.274   2.271  0.8999  0.6421  0.4483
 1255TIP3    H125256   3.539   5.216   2.229 -1.3517 -1.1137 -0.7405
 1255TIP3    H225257   3.489   5.359   2.228  1.7178  0.0305 -0.5370
 1256TIP3   OH225258   4.700   3.372  16.297  0.6648  0.0514  0.0204
 1256TIP3    H125259   4.697   3.466  16.310 -0.6551  0.1349 -0.6944
 1256TIP3    H225260   4.784   3.356  16.254  0.3554  1.0711 -0.9933
 1257TIP3   OH225261   2.237   3.395  16.832 -0.3570 -0.1723  0.1336
 1257TIP3    H125262   2.332   3.385  16.841 -0.2178 -0.6878 -1.5182
 1257TIP3    H225263   2.226   3.466  16.769 -0.9644 -1.6755 -1.5606
 1258TIP3   OH225264   2.904   0.445   3.611 -0.0895  0.1242 -0.2248
 1258TIP3    H125265   2.859   0.434   3.527  1.0500 -0.0737 -0.8309
 1258TIP3    H225266   2.972   0.511   3.594  1.3268 -1.2044  0.0358
 1259TIP3   OH225267   3.844   2.790   1.269 -0.0592 -0.0555  0.3106
 1259TIP3    H125268   3.795   2.747   1.339  2.0490 -3.3786 -0.0923
 1259TIP3    H225269   3.789   2.779   1.191 -0.1938 -0.7433  0.4992
 1260TIP3   OH225270   4.758   4.032   1.782 -0.2691  0.1630 -0.1336
 1260TIP3    H125271   4.720   4.070   1.861  0.1626 -0.6748  0.4874
 1260TIP3    H225272   4.851   4.019   1.803 -0.1649 -0.1622 -0.7410
 1261TIP3   OH225273   2.992   6.754  12.703  0.3362  0.3764 -0.1408
 1261TIP3    H125274   2.958   6.781  12.618 -0.2540 -0.8042 -0.3100
 1261TIP3    H225275   2.922   6.701  12.741  0.8564  0.3399  0.7896
 1262TIP3   OH225276   2.024   1.593   3.500 -0.1968 -0.1354  0.5239
 1262TIP3    H125277   2.074   1.620   3.423  0.9964 -0.8758  1.0139
 1262TIP3    H225278   1.933   1.615   3.479  0.3404  1.4113 -0.3266
 1263TIP3   OH225279   0.033   3.721   3.652 -0.9247  0.3708  0.3144
 1263TIP3    H125280  -0.058   3.725   3.622 -0.9472 -0.6635  0.2042
 1263TIP3    H225281   0.026   3.718   3.747 -1.0408 -0.4229  0.2823
 1264TIP3   OH225282   4.869   6.504  12.815  0.4841 -0.0780 -0.4842
 1264TIP3    H125283   4.834   6.463  12.894  0.4730 -0.9315 -0.9219
 1264TIP3    H225284   4.824   6.460  12.743  0.0071  1.1520 -0.9631
 1265TIP3   OH225285   3.983   2.204   2.419 -0.0470  0.0350  0.5408
 1265TIP3    H125286   3.929   2.154   2.480 -1.3536  0.8476  0.1140
 1265TIP3    H225287   4.035   2.139   2.373  0.6985 -0.6278  2.2430
 1266TIP3   OH225288   1.447   4.880   2.663  0.4039  0.4206 -0.5593
 1266TIP3    H125289   1.484   4.791   2.657  0.3262  0.2919  0.6363
 1266TIP3    H225290   1.510   4.928   2.716  0.0591  0.8767 -0.5625
 1267TIP3   OH225291   4.442   3.703   3.791  0.7234 -0.3340 -0.3890
 1267TIP3    H125292   4.403   3.690   3.877 -0.7192 -1.3081 -1.1379
 1267TIP3    H225293   4.492   3.623   3.775 -0.0597 -0.7252 -0.9570
 1268TIP3   OH225294   5.109   3.949   2.695  0.0692 -0.3105  0.4173
 1268TIP3    H125295   5.118   3.925   2.788 -0.8424  1.3665  0.9768
 1268TIP3    H225296   5.015   3.952   2.680  0.2029  0.1015 -0.3666
 1269TIP3   OH225297   0.429   1.697  11.201  0.3311 -1.0226 -0.7031
 1269TIP3    H125298   0.337   1.676  11.211 -0.2252  1.2342 -0.6279
 1269TIP3    H225299   0.472   1.656  11.277 -0.6858 -1.6320 -0.4508
 1270TIP3   OH225300   4.486   4.412  13.776 -0.1904 -0.5813 -0.0327
 1270TIP3    H125301   4.493   4.474  13.703 -0.6691 -0.5257 -0.0364
 1270TIP3    H225302   4.540   4.451  13.845  0.8885 -1.0283 -0.6152
 1271TIP3   OH225303   0.150   1.308  14.439 -0.0839  0.2469  0.2407
 1271TIP3    H125304   0.118   1.244  14.375 -1.6263 -0.6510  1.8332
 1271TIP3    H225305   0.167   1.257  14.518  1.5903  1.3697  0.6524
 1272TIP3   OH225306   3.534   2.863   2.891  0.4268 -0.7567  0.7444
 1272TIP3    H125307   3.587   2.891   2.816 -0.5304  2.1568  1.0206
 1272TIP3    H225308   3.596   2.818   2.948  1.3748 -2.2682 -1.3444
 1273TIP3   OH225309   6.208   0.888  17.203 -0.1281 -0.0404  0.2305
 1273TIP3    H125310   6.216   0.804  17.249 -2.0937 -1.4408 -1.7834
 1273TIP3    H225311   6.251   0.873  17.119  0.3669  1.3321  0.2208
 1274TIP3   OH225312   0.293   0.235  11.311  0.5487 -0.3151  0.0294
 1274TIP3    H125313   0.239   0.170  11.358  0.0018  1.3631  1.8568
 1274TIP3    H225314   0.231   0.281  11.254  1.0994 -1.9077 -1.9944
 1275TIP3   OH225315   6.217   5.353  15.883 -0.0629  0.2043  0.0487
 1275TIP3    H125316   6.161   5.403  15.942 -0.3962  3.2133 -2.5282
 1275TIP3    H225317   6.167   5.346  15.802  1.7785 -0.3605 -1.1191
 1276TIP3   OH225318   3.401   1.336  17.197  0.8471 -0.2461 -0.3869
 1276TIP3    H125319   3.426   1.244  17.206  0.8793 -0.0997  1.5530
 1276TIP3    H225320   3.329   1.335  17.134  2.3634 -1.2804 -2.2030
 1277TIP3   OH225321   0.844   2.841   3.620 -0.1060 -0.3695  0.1205
 1277TIP3    H125322   0.773   2.780   3.600 -0.3711  0.1046 -0.4002
 1277TIP3    H225323   0.800   2.925   3.637  0.1334 -0.6122  2.2224
 1278TIP3   OH225324   4.215   5.596   3.890 -0.5364  0.2488  0.4569
 1278TIP3    H125325   4.162   5.609   3.969  0.1496 -1.0742  1.1668
 1278TIP3    H225326   4.288   5.656   3.901  0.3264 -0.9444  1.5807
 1279TIP3   OH225327   5.965   6.352  11.383 -0.6854 -0.3078 -0.1507
 1279TIP3    H125328   6.060   6.353  11.382 -0.6855  0.5119 -1.1907
 1279TIP3    H225329   5.940   6.442  11.366 -1.6575 -0.5033  0.1702
 1280TIP3   OH225330   4.387   4.558   6.553 -0.5047 -0.0450  0.2777
 1280TIP3    H125331   4.463   4.509   6.521 -0.4549  0.2344 -0.0295
 1280TIP3    H225332   4.417   4.597   6.635 -0.1426  0.5109 -0.1141
 1281TIP3   OH225333   0.143   2.023   0.071  0.2793  0.0976 -0.5917
 1281TIP3    H125334   0.174   2.111   0.094 -0.0240 -0.2856  1.4731
 1281TIP3    H225335   0.064   2.038   0.019  0.7455  1.0422 -1.0435
 1282TIP3   OH225336   0.605   6.068   5.304 -0.1880 -0.0584  0.0442
 1282TIP3    H125337   0.603   6.063   5.399 -0.4251 -1.9146 -0.0178
 1282TIP3    H225338   0.571   6.155   5.283  2.4266  1.4743  1.6967
 1283TIP3   OH225339   5.966   0.632  16.254  0.3531 -0.2622 -0.2797
 1283TIP3    H125340   6.014   0.578  16.317  2.0069 -0.5630 -1.7192
 1283TIP3    H225341   5.935   0.571  16.188 -1.1808  0.0751  0.0983
 1284TIP3   OH225342   1.778   4.693   5.743  0.5878 -0.5439 -1.2056
 1284TIP3    H125343   1.692   4.653   5.747  1.6150 -2.8437 -0.1729
 1284TIP3    H225344   1.781   4.737   5.658 -1.1293 -1.5023 -1.8020
 1285TIP3   OH225345   3.040   4.532  11.661 -0.1240 -0.5951  0.5412
 1285TIP3    H125346   3.034   4.554  11.754 -2.5361  1.1226  0.0780
 1285TIP3    H225347   3.129   4.558  11.636  0.0520  0.3716  2.0309
 1286TIP3   OH225348   5.479   1.665  10.580 -0.7301 -0.0041 -0.6928
 1286TIP3    H125349   5.491   1.634  10.670 -1.8957 -1.3721 -0.9715
 1286TIP3    H225350   5.568   1.673  10.545 -0.3090 -0.8331  0.1464
 1287TIP3   OH225351   6.591   0.430  16.977 -0.2077  0.2501 -0.6270
 1287TIP3    H125352   6.656   0.368  16.943  1.7111  1.4077  0.7528
 1287TIP3    H225353   6.559   0.389  17.058  0.5940  0.7328 -0.0510
 1288TIP3   OH225354   4.324   3.195  12.280 -0.3925 -0.2890  0.3103
 1288TIP3    H125355   4.315   3.285  12.310 -1.3840 -0.1510 -0.3820
 1288TIP3    H225356   4.263   3.187  12.207  0.6723 -1.1366 -0.5201
 1289TIP3   OH225357   2.419   2.331   4.981  0.4367 -0.1448  0.3309
 1289TIP3    H125358   2.334   2.298   5.010  0.1902  1.1413  1.1705
 1289TIP3    H225359   2.433   2.410   5.033  1.6273  0.3016 -0.6116
 1290TIP3   OH225360   3.000   5.585  13.875 -0.2216 -0.6257 -0.1442
 1290TIP3    H125361   2.928   5.633  13.834  0.2811 -1.0696 -1.6292
 1290TIP3    H225362   3.078   5.619  13.832  0.4011 -0.6933  0.9044
 1291TIP3   OH225363   4.085   5.490  13.279 -0.6064  0.4191  0.3537
 1291TIP3    H125364   4.166   5.505  13.229 -0.2956 -0.5551  0.5491
 1291TIP3    H225365   4.042   5.417  13.235 -0.9319  0.3446  0.7891
 1292TIP3   OH225366   3.210   4.528  15.079  0.0838  0.3219 -0.6198
 1292TIP3    H125367   3.270   4.598  15.055 -0.2739  0.0317 -2.5412
 1292TIP3    H225368   3.179   4.493  14.995 -1.9594 -0.2194  0.2954
 1293TIP3   OH225369   1.136   3.944   0.022 -0.0775  0.0982 -0.5106
 1293TIP3    H125370   1.071   3.979   0.083  1.1780  0.4473  0.6627
 1293TIP3    H225371   1.106   3.854   0.004 -0.5860  0.0687  0.4332
 1294TIP3   OH225372   0.704   3.991  12.368 -0.3063 -0.3064 -0.2103
 1294TIP3    H125373   0.700   4.066  12.308 -0.5955 -0.4925 -0.4295
 1294TIP3    H225374   0.706   4.029  12.455 -1.9174 -0.0563 -0.2505
 1295TIP3   OH225375   3.143   1.829   3.329 -0.4701  0.3236 -0.3474
 1295TIP3    H125376   3.065   1.834   3.384 -0.0786 -0.2563  0.2783
 1295TIP3    H225377   3.113   1.786   3.249 -0.2339 -2.6753  1.0451
 1296TIP3   OH225378   4.508   5.461  17.018  0.0601  0.0593  0.4836
 1296TIP3    H125379   4.525   5.404  16.943  0.7387  0.9830 -0.0787
 1296TIP3    H225380   4.533   5.409  17.094 -0.7784 -0.9433  0.0949
 1297TIP3   OH225381   1.920   3.027   3.058 -0.1644 -0.5480 -0.3967
 1297TIP3    H125382   1.946   2.935   3.066 -1.2702 -0.9476 -1.1492
 1297TIP3    H225383   1.834   3.031   3.100  0.8295  0.6451  1.6407
 1298TIP3   OH225384   4.655   2.031   1.760  0.0121  0.5013 -0.0977
 1298TIP3    H125385   4.677   2.110   1.710  0.2727  1.0596  0.8634
 1298TIP3    H225386   4.637   1.964   1.694  1.9152  0.7671 -0.9568
 1299TIP3   OH225387   6.444   5.588  17.300 -0.2650  0.0585 -0.1111
 1299TIP3    H125388   6.374   5.626  17.354 -2.9968 -1.4999 -2.3005
 1299TIP3    H225389   6.450   5.497  17.329  0.4784  0.0390 -0.3101
 1300TIP3   OH225390   0.890   2.561   6.092 -0.4229  0.7419  0.0712
 1300TIP3    H125391   0.896   2.611   6.010 -0.0867 -3.1289 -2.5398
 1300TIP3    H225392   0.979   2.562   6.128 -0.6071  2.6150  0.5599
 1301TIP3   OH225393   4.062   1.663   3.894 -0.0692 -0.0239 -0.2860
 1301TIP3    H125394   4.089   1.586   3.842 -2.1346 -1.4285  0.6051
 1301TIP3    H225395   4.034   1.626   3.978  3.4480  2.1931  2.1189
 1302TIP3   OH225396   4.122   6.352  13.379 -0.5857 -0.3778 -0.7174
 1302TIP3    H125397   4.129   6.267  13.336 -0.6143 -1.3517  1.1406
 1302TIP3    H225398   4.211   6.371  13.408 -1.0268 -1.0660  1.1996
 1303TIP3   OH225399   2.102   2.037   6.346 -0.7613 -0.0765 -0.1355
 1303TIP3    H125400   2.082   2.021   6.253 -0.7076 -1.8672  0.1211
 1303TIP3    H225401   2.024   2.006   6.392 -0.5436  0.2575  0.4616
 1304TIP3   OH225402   0.506   4.478  12.038  0.7145 -0.0958 -0.1708
 1304TIP3    H125403   0.534   4.559  11.996 -0.4692  0.0522 -0.7021
 1304TIP3    H225404   0.587   4.428  12.051  1.6019  1.5396  1.0107
 1305TIP3   OH225405   4.582   1.965   4.414  0.8340 -0.4617  0.3181
 1305TIP3    H125406   4.564   2.058   4.402 -2.8720 -0.8119  1.8580
 1305TIP3    H225407   4.581   1.928   4.326 -0.3598  0.5725 -0.1240
 1306TIP3   OH225408   0.224   0.205  12.516 -0.1252 -0.2971  0.2573
 1306TIP3    H125409   0.219   0.128  12.573  0.0106  1.3924  2.7557
 1306TIP3    H225410   0.142   0.204  12.468 -0.6964 -1.3179  1.1925
 1307TIP3   OH225411   1.955   5.902  10.709  0.4717  0.3337 -0.6354
 1307TIP3    H125412   1.867   5.934  10.729  0.1510 -1.0780  0.4292
 1307TIP3    H225413   2.008   5.981  10.701 -0.6006  1.1775  0.1960
 1308TIP3   OH225414   1.551   3.851  11.515  0.2482 -0.4620  0.2954
 1308TIP3    H125415   1.525   3.918  11.577 -0.0964 -0.4531  0.1430
 1308TIP3    H225416   1.625   3.889  11.467  0.9229 -0.7061  1.1223
 1309TIP3   OH225417   3.867   0.823   0.629  0.2581 -0.4473  0.2434
 1309TIP3    H125418   3.852   0.779   0.713  0.7895 -0.8439  0.1360
 1309TIP3    H225419   3.961   0.840   0.627  0.1980 -0.1571 -0.1335
 1310TIP3   OH225420   4.364   5.150  11.899 -0.0529  0.0118  0.1629
 1310TIP3    H125421   4.382   5.063  11.935  1.8983  1.0603  1.9119
 1310TIP3    H225422   4.421   5.155  11.822 -1.1905 -0.7083 -0.7684
 1311TIP3   OH225423   6.554   3.742   0.066  0.3358 -0.4287 -0.1726
 1311TIP3    H125424   6.531   3.736   0.158 -0.5799  0.3495 -0.3298
 1311TIP3    H225425   6.490   3.803   0.029  0.2099 -1.2991 -1.4704
 1312TIP3   OH225426   2.219   1.325  11.619  0.0455 -0.9151  0.7512
 1312TIP3    H125427   2.174   1.305  11.538 -0.5328 -2.6907  1.4618
 1312TIP3    H225428   2.215   1.420  11.626  1.0669 -0.6188 -1.7966
 1313TIP3   OH225429   0.352   5.102   3.921  0.7951  0.2620 -0.1303
 1313TIP3    H125430   0.415   5.153   3.870  1.3950  0.6045  0.9148
 1313TIP3    H225431   0.301   5.167   3.969  1.1910 -0.0715  0.7848
 1314TIP3   OH225432   2.797   4.066   5.677 -0.2083 -0.2481  0.0249
 1314TIP3    H125433   2.743   4.029   5.607 -1.5306 -0.7203  1.2390
 1314TIP3    H225434   2.829   3.989   5.726  2.1696 -0.0290 -1.0265
 1315TIP3   OH225435   5.032   0.552  13.128 -0.4784 -0.2761 -0.9300
 1315TIP3    H125436   4.969   0.499  13.080 -0.3512 -1.6519  0.3382
 1315TIP3    H225437   5.021   0.525  13.220  0.0803  1.4172 -0.3335
 1316TIP3   OH225438   1.742   6.673   5.987  0.7950 -0.4773 -0.1531
 1316TIP3    H125439   1.711   6.629   5.908 -0.3709 -1.7562  0.9574
 1316TIP3    H225440   1.727   6.609   6.057 -1.2398  1.7304  1.6017
 1317TIP3   OH225441   2.042   6.058   3.162 -0.4414 -0.5171  0.1312
 1317TIP3    H125442   2.076   6.045   3.250  0.6160 -1.4826 -0.3921
 1317TIP3    H225443   1.948   6.044   3.170 -0.3751 -0.4384  1.1303
 1318TIP3   OH225444   3.222   4.235   5.855 -0.4282  0.4173 -0.4771
 1318TIP3    H125445   3.166   4.177   5.802 -1.0933 -0.1666  0.8197
 1318TIP3    H225446   3.252   4.302   5.793  0.3061 -1.2415 -2.0187
 1319TIP3   OH225447   3.071   0.346  15.557  0.4518  0.2158 -0.3882
 1319TIP3    H125448   2.982   0.323  15.582  1.3187 -1.2855  1.5990
 1319TIP3    H225449   3.083   0.436  15.587 -0.2010  0.2241 -0.1497
 1320TIP3   OH225450   1.024   0.638  12.507 -0.2399 -0.0147 -0.0254
 1320TIP3    H125451   0.953   0.584  12.473 -1.1652  1.1820 -0.0576
 1320TIP3    H225452   1.055   0.688  12.432  0.5572 -0.4302  0.0166
 1321TIP3   OH225453   6.458   1.445  15.737  0.6413  0.2856 -0.2136
 1321TIP3    H125454   6.401   1.506  15.690  1.4873  1.9805  0.8613
 1321TIP3    H225455   6.495   1.390  15.668  1.5419  2.4439 -1.5554
 1322TIP3   OH225456   3.286   5.703  12.141  0.0621  0.3316 -0.3377
 1322TIP3    H125457   3.203   5.689  12.187 -2.3081 -0.1729 -4.2608
 1322TIP3    H225458   3.310   5.793  12.162 -2.1160  0.8731  0.1366
 1323TIP3   OH225459   4.955   0.482  14.458 -0.5015 -0.4602  0.0911
 1323TIP3    H125460   4.943   0.460  14.365 -0.8872 -2.3867  0.5443
 1323TIP3    H225461   5.041   0.523  14.462  0.5941 -2.5026 -0.8421
 1324TIP3   OH225462   4.744   5.648  16.044 -0.6557 -0.3557  0.1156
 1324TIP3    H125463   4.713   5.562  16.069 -1.3046 -0.1060  0.2025
 1324TIP3    H225464   4.665   5.696  16.021 -0.3116  0.2406  0.1419
 1325TIP3   OH225465   4.426   0.055   4.850  0.6350  0.2763  0.3353
 1325TIP3    H125466   4.477   0.100   4.918  2.0122 -1.3152  0.4534
 1325TIP3    H225467   4.348   0.023   4.896  1.4852 -0.6652  1.1983
 1326TIP3   OH225468   2.791   5.566  15.101  0.7034 -0.3198  0.2348
 1326TIP3    H125469   2.705   5.560  15.144 -0.2207  2.0600 -1.1015
 1326TIP3    H225470   2.845   5.501  15.147 -1.7199 -1.7641  1.2652
 1327TIP3   OH225471   6.599   1.630  11.743  0.3221 -0.2060 -0.2302
 1327TIP3    H125472   6.575   1.548  11.785  0.4891 -0.6834 -1.0395
 1327TIP3    H225473   6.694   1.634  11.752  0.5620 -1.0942 -1.8796
 1328TIP3   OH225474   5.235   4.414  16.790  0.3385 -0.4820  0.7603
 1328TIP3    H125475   5.251   4.369  16.872  0.7404 -1.9240 -0.0697
 1328TIP3    H225476   5.294   4.372  16.727  0.9640  1.4169 -0.0159
 1329TIP3   OH225477   1.076   1.540  16.178  0.6297 -0.6208  0.1366
 1329TIP3    H125478   1.001   1.569  16.126 -0.6086  0.0721  2.2024
 1329TIP3    H225479   1.152   1.573  16.130 -0.1618 -2.8319 -2.9689
 1330TIP3   OH225480   5.910   0.648  14.986 -0.0445 -0.3899  0.8508
 1330TIP3    H125481   6.004   0.645  15.003  0.6344  2.9341 -1.3748
 1330TIP3    H225482   5.900   0.599  14.904 -0.1326 -0.1221  0.7018
 1331TIP3   OH225483   3.924   6.514  16.735  0.7704  0.6287 -0.6972
 1331TIP3    H125484   3.866   6.503  16.811  1.5990  1.1214  0.0185
 1331TIP3    H225485   4.012   6.502  16.769  1.1904  1.3207 -1.4828
 1332TIP3   OH225486   1.279   2.106   1.750 -0.0381  0.1429  0.5359
 1332TIP3    H125487   1.219   2.124   1.677 -0.0506  1.3416  0.8127
 1332TIP3    H225488   1.357   2.159   1.730  1.2372 -1.8861 -0.1578
 1333TIP3   OH225489   6.577   3.605   5.768  0.4517 -0.1647  0.1286
 1333TIP3    H125490   6.622   3.567   5.843  2.0334  0.9797 -0.2095
 1333TIP3    H225491   6.643   3.610   5.699 -0.5223  0.3783 -0.8024
 1334TIP3   OH225492   4.633   5.862  13.510 -0.8217 -0.2765 -0.6839
 1334TIP3    H125493   4.710   5.884  13.561 -1.0765  0.2582 -0.5186
 1334TIP3    H225494   4.665   5.854  13.420 -0.5849  0.0255 -0.6289
 1335TIP3   OH225495   1.918   4.807   2.394 -0.2976 -0.2577  0.7915
 1335TIP3    H125496   2.004   4.773   2.419 -0.5714 -0.3062  1.6982
 1335TIP3    H225497   1.856   4.758   2.449 -0.8742  0.1049  0.4766
 1336TIP3   OH225498   3.127   4.776  12.603  0.3580 -0.3504 -0.2337
 1336TIP3    H125499   3.089   4.836  12.540  2.5696 -0.7166 -2.0560
 1336TIP3    H225500   3.163   4.832  12.671 -0.5342  0.1568 -0.1591
 1337TIP3   OH225501   4.347   6.565  13.422  0.3537  0.6160 -0.0777
 1337TIP3    H125502   4.306   6.550  13.336  0.7143  0.3576 -0.2055
 1337TIP3    H225503   4.371   6.658  13.421  2.9885  0.0168 -1.4262
 1338TIP3   OH225504   2.245   6.275  14.521  0.5221  0.0927  0.0871
 1338TIP3    H125505   2.292   6.197  14.493  0.2958  0.0554 -0.1856
 1338TIP3    H225506   2.305   6.347  14.502  0.1491  0.1252 -1.0302
 1339TIP3   OH225507   3.457   3.052   0.071 -0.2197  0.0614 -0.1931
 1339TIP3    H125508   3.404   3.051  -0.009 -0.2362  1.7123 -0.2404
 1339TIP3    H225509   3.534   2.999   0.049  1.1553  2.6585 -2.3962
 1340TIP3   OH225510   0.678   1.142  17.025 -0.0809  0.0767  0.3814
 1340TIP3    H125511   0.714   1.226  17.054 -0.2849  0.4617 -0.4528
 1340TIP3    H225512   0.584   1.148  17.043 -0.0928  0.0170  0.3395
 1341TIP3   OH225513   3.126   5.890   2.937 -0.0079 -0.1527 -0.7631
 1341TIP3    H125514   3.070   5.968   2.933 -0.6354 -0.5602 -0.1736
 1341TIP3    H225515   3.212   5.921   2.908 -0.5906  0.4234 -1.9742
 1342TIP3   OH225516   6.161   5.629   4.362 -0.5637  0.5125  0.0459
 1342TIP3    H125517   6.224   5.562   4.335 -1.7978 -0.5806 -0.2228
 1342TIP3    H225518   6.173   5.636   4.457  0.5420  0.9553 -0.1081
 1343TIP3   OH225519   6.694   3.154  13.511  0.5189 -0.0981 -0.0801
 1343TIP3    H125520   6.647   3.075  13.484  0.0873  0.5367 -1.2653
 1343TIP3    H225521   6.778   3.148  13.466  0.7443 -0.1960  0.3504
 1344TIP3   OH225522   4.669   1.275   5.911 -0.4841  0.0063 -0.2272
 1344TIP3    H125523   4.670   1.180   5.904 -2.4119 -0.1047  0.4401
 1344TIP3    H225524   4.610   1.293   5.984  1.6809  1.6633  1.2422
 1345TIP3   OH225525   0.883   2.921   4.500  0.1432 -0.2244 -0.0659
 1345TIP3    H125526   0.862   2.964   4.583  0.2348  0.1597 -0.2398
 1345TIP3    H225527   0.839   2.974   4.434 -1.5150 -1.5978 -0.1242
 1346TIP3   OH225528   4.779   6.267   3.362 -0.1431 -0.1052  0.6191
 1346TIP3    H125529   4.765   6.331   3.432 -4.9512 -1.0666  0.9305
 1346TIP3    H225530   4.754   6.314   3.282  0.7600 -0.3332  0.1972
 1347TIP3   OH225531   2.628   0.069  12.758 -0.0607 -0.2945 -0.4139
 1347TIP3    H125532   2.703   0.075  12.699 -0.0128 -0.4640 -0.3695
 1347TIP3    H225533   2.612  -0.025  12.768 -0.9975 -0.2481 -1.3288
 1348TIP3   OH225534   6.765   1.287   2.381 -0.4912  0.3315  0.0650
 1348TIP3    H125535   6.806   1.208   2.416 -2.6228 -0.6689  0.4422
 1348TIP3    H225536   6.762   1.347   2.455 -1.1056 -0.1696  0.4515
 1349TIP3   OH225537   3.009   3.690   1.273  0.6125 -0.0138 -0.2887
 1349TIP3    H125538   3.002   3.603   1.233 -0.6041  0.9233 -2.2097
 1349TIP3    H225539   3.080   3.733   1.225  0.5493  0.4104 -0.0020
 1350TIP3   OH225540   3.340   3.107   4.357  0.0097  0.5607  0.4004
 1350TIP3    H125541   3.259   3.126   4.405  0.5907 -0.0482  1.7012
 1350TIP3    H225542   3.401   3.175   4.385 -0.2331  1.4065 -1.0872
 1351TIP3   OH225543   6.712   5.766  15.375  0.4634 -0.2199  0.3733
 1351TIP3    H125544   6.664   5.756  15.292 -0.2756  1.5607  0.5389
 1351TIP3    H225545   6.717   5.677  15.410 -0.2698 -0.8427 -0.9982
 1352TIP3   OH225546   5.491   6.172  14.715  0.1770 -0.8846 -0.0926
 1352TIP3    H125547   5.521   6.084  14.695 -0.2289 -0.8819 -0.7366
 1352TIP3    H225548   5.565   6.229  14.694  0.3761 -1.0529  0.1523
 1353TIP3   OH225549   2.399   5.678   6.456  0.5777  0.2999 -0.6882
 1353TIP3    H125550   2.393   5.632   6.373  1.7525  0.1750 -0.7213
 1353TIP3    H225551   2.489   5.712   6.459  0.1887  1.3506 -0.0201
 1354TIP3   OH225552   5.278   2.923   5.713 -0.3498 -0.0504 -0.0944
 1354TIP3    H125553   5.319   3.004   5.742  2.2074 -0.4346 -2.2716
 1354TIP3    H225554   5.204   2.951   5.659  0.1494  0.8054 -0.3457
 1355TIP3   OH225555   1.191   4.384  11.774 -0.0763  0.1847 -0.3165
 1355TIP3    H125556   1.281   4.360  11.799  0.2255  1.9091  0.3936
 1355TIP3    H225557   1.202   4.432  11.692 -0.3794  0.2214 -0.3343
 1356TIP3   OH225558   5.280   0.975  13.966  0.0097 -0.1713 -0.0744
 1356TIP3    H125559   5.371   0.952  13.986 -0.2416 -0.7088  0.4903
 1356TIP3    H225560   5.234   0.891  13.965 -0.0516 -0.1938 -2.7914
 1357TIP3   OH225561   2.659   4.603  13.937  0.0392  0.0538  0.4834
 1357TIP3    H125562   2.571   4.632  13.960 -0.4653 -2.2613  1.8698
 1357TIP3    H225563   2.715   4.635  14.008 -0.0360 -0.0615  0.5955
 1358TIP3   OH225564   1.450   1.613  17.265 -0.3905  0.0656 -0.3892
 1358TIP3    H125565   1.488   1.581  17.184 -0.6679  1.7952 -1.2578
 1358TIP3    H225566   1.522   1.610  17.329 -0.5748 -2.7687 -0.2187
 1359TIP3   OH225567   1.183   2.883   1.994  0.9237 -0.4908  0.0465
 1359TIP3    H125568   1.205   2.930   1.914  2.4553 -0.4358  0.4616
 1359TIP3    H225569   1.116   2.821   1.968 -1.4870  2.1250 -0.4531
 1360TIP3   OH225570   3.772   2.752  13.648 -0.1921  0.3255 -0.5629
 1360TIP3    H125571   3.704   2.694  13.614  1.9741 -2.0521 -1.1027
 1360TIP3    H225572   3.744   2.771  13.738 -2.6336  1.2831 -1.4525
 1361TIP3   OH225573   2.375   2.998  17.087 -0.1093 -0.2850  0.2400
 1361TIP3    H125574   2.452   3.039  17.050  0.8337 -1.1602  1.1567
 1361TIP3    H225575   2.356   3.047  17.167 -2.2494  1.7175 -1.3496
 1362TIP3   OH225576   2.980   1.237   3.636 -0.0630  0.1193 -0.3611
 1362TIP3    H125577   3.036   1.303   3.595 -0.3219  0.7566  0.2956
 1362TIP3    H225578   2.915   1.287   3.685 -0.2560 -0.6249  0.1590
 1363TIP3   OH225579   0.451   1.798  12.388  0.3370 -0.3659 -0.0264
 1363TIP3    H125580   0.519   1.747  12.342  1.1826  0.3637  0.3825
 1363TIP3    H225581   0.414   1.854  12.320 -0.8371 -1.7293 -0.5567
 1364TIP3   OH225582   0.766   0.329   2.155  0.1331  0.3986 -0.0558
 1364TIP3    H125583   0.844   0.382   2.141  0.2183  0.7205  1.4771
 1364TIP3    H225584   0.800   0.241   2.175  0.1990  0.7840  1.7204
 1365TIP3   OH225585   4.767   2.494  16.693 -0.1193  0.3269 -0.2341
 1365TIP3    H125586   4.812   2.481  16.609  1.9925 -1.9850  1.1574
 1365TIP3    H225587   4.798   2.579  16.723  2.2478 -0.5297 -0.0414
 1366TIP3   OH225588   1.086   3.328   3.697 -0.7363 -0.2380 -0.0186
 1366TIP3    H125589   1.148   3.398   3.715 -1.4232  0.4277 -0.1869
 1366TIP3    H225590   1.028   3.326   3.773 -0.2703 -1.1407  0.3315
 1367TIP3   OH225591   0.506   1.026  13.137 -0.4779 -0.0347 -0.0902
 1367TIP3    H125592   0.555   1.012  13.218  0.9901 -0.9098 -1.0815
 1367TIP3    H225593   0.436   0.961  13.140 -1.1014  0.6402  0.9339
 1368TIP3   OH225594   5.122   4.090   3.520  0.2192  0.5779  0.1895
 1368TIP3    H125595   5.217   4.102   3.512  0.2139 -0.2702 -1.5992
 1368TIP3    H225596   5.096   4.155   3.586  2.1161  0.3297  1.2767
 1369TIP3   OH225597   1.462   6.481  10.357  0.2858 -0.1472  0.3518
 1369TIP3    H125598   1.418   6.427  10.292 -0.2968  1.2067 -0.4283
 1369TIP3    H225599   1.553   6.483  10.328 -0.2821  2.0199 -1.6727
 1370TIP3   OH225600   3.188   2.023   0.375 -0.0445 -0.0278 -0.2206
 1370TIP3    H125601   3.129   2.092   0.344  1.0111  0.6337 -0.8049
 1370TIP3    H225602   3.179   2.026   0.470  0.4535  1.3657 -0.1929
 1371TIP3   OH225603   5.588   2.317   0.200  0.2756  0.2870 -0.3755
 1371TIP3    H125604   5.569   2.363   0.118  0.3185  0.1779 -0.4458
 1371TIP3    H225605   5.575   2.225   0.180  1.2790  0.1744 -0.5335
 1372TIP3   OH225606   6.087   2.249  11.745  0.1390 -0.0447  0.0753
 1372TIP3    H125607   6.071   2.155  11.737  2.6602 -0.4503 -1.2870
 1372TIP3    H225608   6.144   2.258  11.821  0.2451  0.3258 -0.0437
 1373TIP3   OH225609   3.118   0.384  15.262  0.1179  0.1972 -0.4625
 1373TIP3    H125610   3.096   0.475  15.246 -0.8714 -0.0441 -0.5887
 1373TIP3    H225611   3.107   0.373  15.357 -0.0825  0.1378 -0.4916
 1374TIP3   OH225612   2.602   2.239   0.014 -0.2689  0.1944 -0.0419
 1374TIP3    H125613   2.680   2.193  -0.019  0.6547  0.6246  1.4371
 1374TIP3    H225614   2.532   2.213  -0.045  0.1858 -3.1564  0.7084
 1375TIP3   OH225615   0.707   4.907   5.134  0.0456  0.5811 -0.1344
 1375TIP3    H125616   0.705   4.904   5.229  3.4321 -1.1708  0.0024
 1375TIP3    H225617   0.669   4.992   5.112  0.8504  1.8219  2.8516
 1376TIP3   OH225618   2.896   1.455  15.293 -0.2990 -0.5143 -0.6397
 1376TIP3    H125619   2.913   1.483  15.203  0.4270  1.0235 -0.0598
 1376TIP3    H225620   2.955   1.380  15.305  1.2005  0.5754 -0.8096
 1377TIP3   OH225621   4.315   1.852   1.017 -0.1886 -0.1264 -0.5752
 1377TIP3    H125622   4.233   1.807   1.036  0.6376 -1.4154  0.0758
 1377TIP3    H225623   4.321   1.921   1.084 -0.4289 -0.4439 -0.2241
 1378TIP3   OH225624   0.272   6.753  14.374 -0.2564 -0.2942 -0.1559
 1378TIP3    H125625   0.300   6.822  14.314  0.4263 -0.0408  0.4264
 1378TIP3    H225626   0.353   6.704  14.393 -0.1403  0.5023  1.6430
 1379TIP3   OH225627   1.138   4.719   2.786 -0.3102 -0.4926  0.5604
 1379TIP3    H125628   1.118   4.800   2.834 -0.6633 -1.2553  1.7570
 1379TIP3    H225629   1.183   4.748   2.707  0.0627  0.8356  1.2336
 1380TIP3   OH225630   1.617   4.102  16.219  0.4192 -0.3008 -0.3677
 1380TIP3    H125631   1.667   4.131  16.295 -0.2437  1.2081 -0.4701
 1380TIP3    H225632   1.537   4.065  16.255 -0.2139  1.0511 -0.3112
 1381TIP3   OH225633   3.349   0.502   3.116 -0.2172  0.5228 -0.1992
 1381TIP3    H125634   3.340   0.434   3.049  1.1514  0.3499 -0.2459
 1381TIP3    H225635   3.277   0.563   3.099 -0.2188  0.1961 -1.4782
 1382TIP3   OH225636   3.549   2.898  12.668  0.5263 -0.1156 -0.6669
 1382TIP3    H125637   3.507   2.906  12.753  0.5211 -4.2819 -0.0789
 1382TIP3    H225638   3.490   2.943  12.607 -0.9635  0.4432  1.1088
 1383TIP3   OH225639   6.183   1.052  15.326  0.1027 -0.6792  0.2697
 1383TIP3    H125640   6.150   1.022  15.242  0.5621 -1.4344  0.3449
 1383TIP3    H225641   6.209   1.143  15.311  0.1922 -0.8123 -0.4091
 1384TIP3   OH225642   3.844   4.343   2.143  0.6256 -0.2448  0.4065
 1384TIP3    H125643   3.873   4.408   2.079  0.8934  0.1179  0.8889
 1384TIP3    H225644   3.810   4.271   2.090 -1.5115  1.0998 -0.1363
 1385TIP3   OH225645   3.173   3.886   3.098 -0.0441 -0.0849 -0.2958
 1385TIP3    H125646   3.262   3.859   3.120 -0.0676 -0.6931 -0.8938
 1385TIP3    H225647   3.164   3.863   3.005 -1.4181 -1.7062  0.1977
 1386TIP3   OH225648   3.682   6.069   0.809 -0.0714 -0.1845  0.6655
 1386TIP3    H125649   3.647   6.154   0.838  0.0106 -0.4800  1.6675
 1386TIP3    H225650   3.763   6.091   0.764  0.5689  0.1866  1.9809
 1387TIP3   OH225651   1.646   2.783   2.186 -0.0837 -0.6549  0.3618
 1387TIP3    H125652   1.728   2.735   2.176 -0.5832 -1.5948  0.6174
 1387TIP3    H225653   1.603   2.742   2.261 -0.4358  0.3527  0.7239
 1388TIP3   OH225654   0.921   0.583  10.716  0.5238 -0.0767 -0.0442
 1388TIP3    H125655   0.876   0.583  10.631  1.5688  1.4743 -0.6424
 1388TIP3    H225656   0.875   0.516  10.767  0.5518 -1.8616 -2.1760
 1389TIP3   OH225657   2.864   2.328  15.541  0.1433  0.1954  0.1575
 1389TIP3    H125658   2.777   2.322  15.503 -0.2595  2.4083  0.6151
 1389TIP3    H225659   2.880   2.422  15.551  2.7180 -0.1287 -0.2028
 1390TIP3   OH225660   1.914   0.685   5.377 -0.1059  0.1250  0.1870
 1390TIP3    H125661   1.896   0.719   5.465  0.2523  2.9864 -0.7444
 1390TIP3    H225662   2.006   0.661   5.379 -0.0522  0.3563  0.5725
 1391TIP3   OH225663   1.281   1.516   5.154 -0.5313  0.0652  0.3136
 1391TIP3    H125664   1.343   1.471   5.098 -1.7000  0.4420 -1.3605
 1391TIP3    H225665   1.206   1.456   5.159  0.1005 -0.6244  2.7307
 1392TIP3   OH225666   2.403   0.781  17.051 -0.1006 -0.2580  0.2204
 1392TIP3    H125667   2.314   0.817  17.045  0.5507  1.4993  0.4664
 1392TIP3    H225668   2.405   0.711  16.986 -1.2613  0.5650 -0.7595
 1393TIP3   OH225669   4.768   1.776  16.452 -0.1715  0.4921  0.5273
 1393TIP3    H125670   4.774   1.834  16.375 -0.1455  1.1196  0.9934
 1393TIP3    H225671   4.711   1.705  16.424  0.8278  0.0514 -0.4825
 1394TIP3   OH225672   4.633   5.847   0.890 -0.0147 -0.3240 -0.4201
 1394TIP3    H125673   4.580   5.774   0.924 -0.8331  0.0844 -0.7897
 1394TIP3    H225674   4.692   5.805   0.827  0.7123 -0.9095  0.6111
 1395TIP3   OH225675   1.474   0.008   5.322 -0.2388 -0.6022  0.0817
 1395TIP3    H125676   1.405   0.021   5.387  0.3935  1.0704  0.4681
 1395TIP3    H225677   1.544   0.067   5.348  1.1588 -1.8665 -0.6055
 1396TIP3   OH225678   0.519   4.806  11.969 -0.7232  0.5324  0.5916
 1396TIP3    H125679   0.560   4.770  11.891  0.1530 -0.5619  1.5158
 1396TIP3    H225680   0.434   4.838  11.940 -0.2311  0.5454 -0.8798
 1397TIP3   OH225681   6.109   3.312   4.860  0.3265  0.4804 -0.9000
 1397TIP3    H125682   6.181   3.356   4.815 -0.4252  1.1472 -1.4702
 1397TIP3    H225683   6.145   3.289   4.946  2.2653 -2.0880 -2.2514
 1398TIP3   OH225684   3.757   6.672  17.225  0.0378  0.4378  0.2603
 1398TIP3    H125685   3.707   6.747  17.193  0.2774  0.1075 -0.9373
 1398TIP3    H225686   3.692   6.604  17.239 -0.2252  0.9408  1.6670
 1399TIP3   OH225687   2.750   1.222  13.092  0.3029  0.6693  0.4200
 1399TIP3    H125688   2.808   1.278  13.040  1.6462 -1.4188 -0.4733
 1399TIP3    H225689   2.766   1.248  13.182  1.7252  1.0033  0.0974
 1400TIP3   OH225690   2.530   3.565  14.932  0.1494 -0.2008 -0.3768
 1400TIP3    H125691   2.541   3.499  15.001  0.6222 -0.4930 -0.7229
 1400TIP3    H225692   2.522   3.648  14.978  1.6842 -0.2387  0.0026
 1401TIP3   OH225693   1.100   1.340   1.869 -0.5802  0.0229 -0.0232
 1401TIP3    H125694   1.018   1.349   1.919 -0.1977  0.2945  0.5677
 1401TIP3    H225695   1.074   1.356   1.778 -1.2708 -0.3833  0.0932
 1402TIP3   OH225696   4.299   3.980  16.642 -0.7342  0.7866  0.9280
 1402TIP3    H125697   4.327   3.889  16.652 -0.4127  0.5565 -1.4131
 1402TIP3    H225698   4.338   4.026  16.716  0.2732 -0.7298  1.3806
 1403TIP3   OH225699   2.892   4.633   2.818 -0.0364 -0.3125 -0.5146
 1403TIP3    H125700   2.972   4.585   2.798 -1.3981 -2.8769 -0.2626
 1403TIP3    H225701   2.890   4.637   2.914 -0.5058 -0.8927 -0.4890
 1404TIP3   OH225702   1.960   0.935   2.609 -0.0303 -0.6789 -0.0060
 1404TIP3    H125703   1.980   0.994   2.682 -1.1903  1.5099 -1.3324
 1404TIP3    H225704   1.984   0.848   2.641  0.1456  0.2615  2.7054
 1405TIP3   OH225705   4.372   5.403  11.687  0.1952  0.2199  0.2896
 1405TIP3    H125706   4.348   5.406  11.779  1.4171  0.3362  0.6262
 1405TIP3    H225707   4.467   5.412  11.687  0.3332 -0.8644 -0.9144
 1406TIP3   OH225708   0.423   4.053  16.171 -0.0978 -0.0758  0.3900
 1406TIP3    H125709   0.451   3.961  16.163 -0.6190 -0.1517 -0.7780
 1406TIP3    H225710   0.342   4.058  16.120  1.1929  1.5669 -1.6729
 1407TIP3   OH225711   0.200   1.131   0.641  0.2486 -0.1233  0.3773
 1407TIP3    H125712   0.192   1.222   0.612  2.4505 -0.3276 -1.1299
 1407TIP3    H225713   0.264   1.134   0.712  0.7637 -0.5401 -0.0607
 1408TIP3   OH225714   2.651   4.529   1.817  0.7311 -0.4630  0.2107
 1408TIP3    H125715   2.563   4.532   1.779  0.2910 -1.1241  1.1557
 1408TIP3    H225716   2.637   4.511   1.910  1.9120 -3.1846 -0.0317
 1409TIP3   OH225717   6.229   4.722  16.990 -0.8629 -0.1768 -0.0007
 1409TIP3    H125718   6.181   4.767  17.060 -1.7734 -1.5140  0.2733
 1409TIP3    H225719   6.291   4.665  17.037  0.9989  1.4720 -0.3482
 1410TIP3   OH225720   4.288   6.232  11.212 -0.1268  0.5327  0.6246
 1410TIP3    H125721   4.336   6.302  11.168  0.6302 -0.9352 -0.9818
 1410TIP3    H225722   4.282   6.162  11.147 -2.0595 -0.3889  1.7183
 1411TIP3   OH225723   3.579   1.441   4.126  0.2582  0.1511 -0.0146
 1411TIP3    H125724   3.598   1.457   4.034  3.2677 -0.2795  0.4157
 1411TIP3    H225725   3.619   1.514   4.173 -0.7676  0.0920  1.0237
 1412TIP3   OH225726   0.005   0.739  12.585  0.0694 -0.1043  0.4111
 1412TIP3    H125727  -0.082   0.703  12.567 -0.7232  0.8422  2.1006
 1412TIP3    H225728   0.053   0.667  12.627  0.0388 -0.5582 -0.3189
 1413TIP3   OH225729   0.656   3.963  16.383  0.3942  0.0024 -0.2768
 1413TIP3    H125730   0.594   3.913  16.437  1.0374 -1.9946 -1.2758
 1413TIP3    H225731   0.611   4.045  16.364 -0.7970 -0.2335  1.2899
 1414TIP3   OH225732   3.668   3.622   1.614  0.2267  0.7534 -0.0937
 1414TIP3    H125733   3.743   3.602   1.671  1.3309  2.0026 -1.0181
 1414TIP3    H225734   3.707   3.634   1.527 -1.1365  0.8864 -0.7107
 1415TIP3   OH225735   0.695   5.929  16.259 -0.2411 -0.6475  0.1185
 1415TIP3    H125736   0.638   5.856  16.281  1.5481 -2.4597 -0.9058
 1415TIP3    H225737   0.750   5.940  16.336  0.1241 -1.0443 -0.0811
 1416TIP3   OH225738   2.104   3.023   6.856  0.2705 -0.5457  0.7911
 1416TIP3    H125739   2.034   2.959   6.843  0.1920 -0.3077 -0.0028
 1416TIP3    H225740   2.058   3.105   6.874  0.2934 -0.1953 -0.5890
 1417TIP3   OH225741   0.182   5.662  13.874  0.1923 -0.1998  0.2153
 1417TIP3    H125742   0.242   5.591  13.896  1.4595  0.7385 -0.1372
 1417TIP3    H225743   0.130   5.628  13.801  1.4676 -0.4157 -0.6157
 1418TIP3   OH225744   5.280   5.990  17.191  0.0786  0.1069  0.1125
 1418TIP3    H125745   5.286   5.895  17.195 -0.3578  0.0743 -0.0089
 1418TIP3    H225746   5.336   6.014  17.117 -1.5624 -0.2350 -1.2842
 1419TIP3   OH225747   0.765   0.193   5.981  0.3591 -0.3946 -0.2025
 1419TIP3    H125748   0.692   0.207   6.042  1.3375  0.1212  0.8880
 1419TIP3    H225749   0.816   0.274   5.986  0.6581 -0.4907 -1.4571
 1420TIP3   OH225750   6.248   0.917   1.954  0.1231  0.1806 -0.0462
 1420TIP3    H125751   6.208   0.908   1.868  1.8874  0.4221 -0.9416
 1420TIP3    H225752   6.279   1.008   1.957  0.2619  0.1205  0.7541
 1421TIP3   OH225753   1.705   2.513  16.265  0.3485  0.2464 -0.4544
 1421TIP3    H125754   1.636   2.462  16.224  1.0717  0.5485 -2.1192
 1421TIP3    H225755   1.677   2.605  16.255  0.8164  0.3518 -0.8486
 1422TIP3   OH225756   5.582   3.305  16.862 -0.4065 -0.2311 -0.3829
 1422TIP3    H125757   5.496   3.347  16.855 -0.3255  0.4971  2.1849
 1422TIP3    H225758   5.644   3.376  16.847 -0.2389 -0.4399 -0.6890
 1423TIP3   OH225759   3.500   5.508  12.849 -0.3065  0.3579  0.1072
 1423TIP3    H125760   3.533   5.420  12.865 -0.9200  0.0632 -0.2576
 1423TIP3    H225761   3.550   5.563  12.909 -0.8551 -0.4049  1.2937
 1424TIP3   OH225762   6.073   1.351  11.507  0.3615 -0.2466  0.1989
 1424TIP3    H125763   6.013   1.356  11.432  2.7783  0.2468 -1.8728
 1424TIP3    H225764   6.044   1.274  11.556 -0.7574 -1.2166 -1.8380
 1425TIP3   OH225765   1.935   6.241   1.435 -0.4295  0.7733 -0.1822
 1425TIP3    H125766   1.873   6.181   1.392  0.3554 -0.3066  0.1575
 1425TIP3    H225767   2.004   6.184   1.468 -1.4137  1.3740  3.3677
 1426TIP3   OH225768   0.559   4.976  13.709  0.1067 -0.1118 -0.1737
 1426TIP3    H125769   0.589   4.900  13.760  0.4260 -0.1996 -0.4902
 1426TIP3    H225770   0.632   4.996  13.651  0.5005  1.1997  0.7470
 1427TIP3   OH225771   0.393   4.957  11.392 -0.3324  0.5471 -0.0355
 1427TIP3    H125772   0.325   5.021  11.413 -0.6908 -0.3231  1.5906
 1427TIP3    H225773   0.351   4.895  11.333 -0.5775  0.7175 -0.0409
 1428TIP3   OH225774   1.429   5.853   3.692 -0.1691  0.0348  0.4525
 1428TIP3    H125775   1.395   5.767   3.717 -0.5892  0.6424  2.0651
 1428TIP3    H225776   1.353   5.911   3.696  0.5672  0.9510  1.8004
 1429TIP3   OH225777   4.031   4.596   0.705 -0.0219  0.2110  0.1777
 1429TIP3    H125778   4.073   4.560   0.627 -0.2179  1.2554 -0.4380
 1429TIP3    H225779   4.065   4.544   0.777 -0.3816 -1.2533 -0.6643
 1430TIP3   OH225780   2.905   4.405  16.288 -0.0728 -0.3488 -0.1963
 1430TIP3    H125781   2.863   4.372  16.367 -1.1968  1.3371 -0.0379
 1430TIP3    H225782   2.832   4.428  16.230  0.7050 -0.2436 -1.1551
 1431TIP3   OH225783   0.532   0.460   1.660 -0.0703  0.3697  0.6818
 1431TIP3    H125784   0.586   0.411   1.723 -0.3665  0.0172  0.6680
 1431TIP3    H225785   0.445   0.462   1.700 -0.6494 -1.1760 -0.3764
 1432TIP3   OH225786   0.869   6.725   4.077 -0.2766 -0.1967  0.1334
 1432TIP3    H125787   0.919   6.663   4.131  0.8124  1.6576  1.3667
 1432TIP3    H225788   0.778   6.711   4.102  0.1304 -0.0143  1.8160
 1433TIP3   OH225789   5.987   6.005  11.820 -0.3648  0.2196 -0.3624
 1433TIP3    H125790   5.970   5.911  11.833  0.1777  0.1363 -0.2377
 1433TIP3    H225791   6.017   6.010  11.729  0.4751  0.1459 -0.0958
 1434TIP3   OH225792   3.876   0.050   5.349 -0.9635 -0.1533  0.1356
 1434TIP3    H125793   3.858   0.138   5.384  0.5854  0.1409  0.2344
 1434TIP3    H225794   3.804  -0.004   5.384 -1.4067  0.8654  0.8673
 1435TIP3   OH225795   5.936   0.473  15.334 -0.3559  0.3363 -0.5872
 1435TIP3    H125796   6.003   0.464  15.267  0.7586 -0.9311  0.6237
 1435TIP3    H225797   5.946   0.395  15.389 -1.7136  0.9543  0.6152
 1436TIP3   OH225798   6.120   5.020   6.235 -0.1717  0.1309 -0.0781
 1436TIP3    H125799   6.041   5.042   6.284 -0.6049 -1.7143  0.1144
 1436TIP3    H225800   6.181   4.986   6.300 -0.8495 -2.6049 -0.7328
 1437TIP3   OH225801   5.129   3.984  12.968 -0.1122 -0.1759 -0.5043
 1437TIP3    H125802   5.224   3.981  12.969 -0.0728  0.6129 -1.2800
 1437TIP3    H225803   5.107   4.035  12.890 -1.2135 -2.2655 -1.6822
 1438TIP3   OH225804   2.162   3.645  15.692  0.4836 -0.3618 -0.5080
 1438TIP3    H125805   2.240   3.685  15.731  0.2543 -0.6823  0.3095
 1438TIP3    H225806   2.135   3.578  15.755 -0.2133 -0.5337 -0.9716
 1439TIP3   OH225807   4.351   3.126   4.997 -0.1111  0.4377  0.2392
 1439TIP3    H125808   4.435   3.141   4.954 -0.5135  1.2393 -0.3086
 1439TIP3    H225809   4.372   3.103   5.087  0.7026  0.2086 -0.0071
 1440TIP3   OH225810   1.990   1.590  11.090 -0.4574 -0.6382 -0.4618
 1440TIP3    H125811   2.000   1.499  11.118 -1.1487 -0.0980  1.7422
 1440TIP3    H225812   1.896   1.608  11.099 -0.2736  0.3904 -0.4596
 1441TIP3   OH225813   5.246   0.563  14.505  0.1830  0.8447  0.7258
 1441TIP3    H125814   5.325   0.566  14.559  2.4569 -1.7929 -2.0582
 1441TIP3    H225815   5.268   0.616  14.428 -0.9155  0.4248  0.1033
 1442TIP3   OH225816   5.832   1.109  12.336  0.1121  0.1252 -0.0786
 1442TIP3    H125817   5.905   1.121  12.275 -0.1731  0.0646 -0.4399
 1442TIP3    H225818   5.755   1.136  12.285 -0.1756 -0.3141  0.1249
 1443TIP3   OH225819   4.298   1.627  10.678 -0.4607 -0.0454 -0.4301
 1443TIP3    H125820   4.294   1.714  10.717 -0.3539 -0.0277 -0.4609
 1443TIP3    H225821   4.262   1.569  10.745 -0.2431 -0.0199 -0.2904
 1444TIP3   OH225822   0.595   3.845  14.550  0.0302 -0.0737 -0.1237
 1444TIP3    H125823   0.502   3.845  14.526  0.2555  0.8663 -1.0791
 1444TIP3    H225824   0.640   3.824  14.468  0.7096  0.6836  0.0467
 1445TIP3   OH225825   2.307   4.575   4.062  0.6360 -0.0659 -0.0947
 1445TIP3    H125826   2.372   4.629   4.016  0.5313 -0.8115 -1.1530
 1445TIP3    H225827   2.223   4.604   4.028  0.6680 -2.9603 -3.1813
 1446TIP3   OH225828   6.251   1.059  12.558 -0.2655  0.2217  0.0743
 1446TIP3    H125829   6.313   1.102  12.500  0.7868 -0.1612  0.8817
 1446TIP3    H225830   6.279   1.085  12.646 -1.8319  0.8055  0.4375
 1447TIP3   OH225831   2.380   2.048  14.014  0.5774  0.1726  0.0723
 1447TIP3    H125832   2.355   2.132  13.974  0.3492  0.5294  0.9403
 1447TIP3    H225833   2.362   1.983  13.946 -0.4440  0.6842 -0.1710
 1448TIP3   OH225834   3.423   6.199   1.329  0.3586  0.1365  0.0827
 1448TIP3    H125835   3.472   6.139   1.272 -1.1930 -0.4278 -0.7038
 1448TIP3    H225836   3.352   6.146   1.364  0.0113  1.0696  0.8314
 1449TIP3   OH225837   2.369   3.664   1.630  0.3344 -0.7504 -0.3487
 1449TIP3    H125838   2.395   3.638   1.542  1.8520 -3.2668  0.7415
 1449TIP3    H225839   2.286   3.619   1.644  1.3652 -2.5220  0.3684
 1450TIP3   OH225840   3.732   6.385   3.592  0.3409  0.0334 -0.0230
 1450TIP3    H125841   3.713   6.479   3.592 -1.6322 -0.3012  1.4647
 1450TIP3    H225842   3.744   6.364   3.685  0.4003 -1.2429 -0.3095
 1451TIP3   OH225843   1.003   2.614  11.755  0.3462 -0.0748 -0.1202
 1451TIP3    H125844   0.959   2.559  11.820  1.3894  0.4261  1.0518
 1451TIP3    H225845   1.071   2.557  11.719  0.8998  0.1771  0.5067
 1452TIP3   OH225846   5.187   6.752   3.268  0.1643 -0.0216 -0.7441
 1452TIP3    H125847   5.176   6.754   3.363  1.7886 -1.1238 -0.4861
 1452TIP3    H225848   5.269   6.799   3.253 -0.6344  1.1124 -1.7365
 1453TIP3   OH225849   1.019   1.890   5.914  0.0550 -0.1050  0.4825
 1453TIP3    H125850   0.930   1.870   5.945 -0.2616  0.5533  0.0104
 1453TIP3    H225851   1.058   1.940   5.985 -0.8354  1.8309 -0.3314
 1454TIP3   OH225852   2.436   4.293   0.962  0.0770  0.1539  0.7048
 1454TIP3    H125853   2.370   4.226   0.982  1.5391 -1.1800  1.2624
 1454TIP3    H225854   2.475   4.264   0.879 -2.5895  3.0249 -1.8147
 1455TIP3   OH225855   4.893   3.667  13.647  0.0383  0.3255 -0.2015
 1455TIP3    H125856   4.883   3.759  13.672 -0.6649  0.8344 -2.1696
 1455TIP3    H225857   4.840   3.658  13.568  0.4160 -1.6896 -0.2656
 1456TIP3   OH225858   3.810   2.741  12.300  0.4729  0.0702 -0.2759
 1456TIP3    H125859   3.815   2.824  12.347  3.6225 -0.4108  0.4194
 1456TIP3    H225860   3.733   2.698  12.338  1.3291  0.8370  2.5921
 1457TIP3   OH225861   6.481   3.231   2.296  0.4888  0.1311  0.9851
 1457TIP3    H125862   6.489   3.148   2.344  2.3309  0.7047  1.7717
 1457TIP3    H225863   6.387   3.245   2.287  0.1346 -1.8460  1.1663
 1458TIP3   OH225864   1.670   3.579   1.653  0.2184 -0.1078 -0.3334
 1458TIP3    H125865   1.612   3.552   1.582  0.0499  1.0108 -0.6324
 1458TIP3    H225866   1.756   3.586   1.613  0.1941  0.1585 -0.3366
 1459TIP3   OH225867   3.486   1.488  14.331  0.3829 -0.3808  0.0732
 1459TIP3    H125868   3.568   1.438  14.335 -0.2315 -1.2902  2.3886
 1459TIP3    H225869   3.514   1.577  14.307  2.0624 -0.6611  0.8634
 1460TIP3   OH225870   5.188   0.748  13.885 -0.8792 -0.3386  0.3501
 1460TIP3    H125871   5.093   0.754  13.871 -0.5911  1.5789 -1.0922
 1460TIP3    H225872   5.223   0.721  13.800  0.0046  0.6349  0.3897
 1461TIP3   OH225873   0.171   3.492  11.620  0.0425  0.0764  0.6864
 1461TIP3    H125874   0.232   3.496  11.546 -0.2199 -1.1388  0.3820
 1461TIP3    H225875   0.227   3.485  11.697  0.3721 -2.7487  0.3083
 1462TIP3   OH225876   3.615   5.930   5.755  0.5452  0.4205 -0.2635
 1462TIP3    H125877   3.660   5.847   5.772 -0.0724  0.0712 -0.2938
 1462TIP3    H225878   3.523   5.910   5.771  0.3894  1.0949 -0.3122
 1463TIP3   OH225879   4.085   4.232  11.829  0.0623  0.4451  0.3340
 1463TIP3    H125880   4.058   4.246  11.920  1.1830 -0.7899  0.8853
 1463TIP3    H225881   4.108   4.320  11.798 -1.3692  1.0493  0.8675
 1464TIP3   OH225882   3.203   0.387   6.329 -0.2721  0.5052 -0.3894
 1464TIP3    H125883   3.196   0.473   6.370 -0.8533 -0.0822  0.8234
 1464TIP3    H225884   3.192   0.325   6.402 -1.1039 -0.6013 -1.4103
 1465TIP3   OH225885   3.547   0.011   2.676 -0.5681  0.1573  0.2336
 1465TIP3    H125886   3.525  -0.074   2.638  0.0209 -0.4330  1.1419
 1465TIP3    H225887   3.632   0.033   2.637 -0.8721  0.4864 -0.2444
 1466TIP3   OH225888   1.648   1.378   3.203  0.4870  0.5223  0.4281
 1466TIP3    H125889   1.646   1.287   3.233  0.7517  0.9674  1.8960
 1466TIP3    H225890   1.700   1.424   3.270 -0.8339  2.0170  0.4863
 1467TIP3   OH225891   6.169   0.331  13.639 -0.1511  0.5894 -0.3189
 1467TIP3    H125892   6.250   0.300  13.680 -0.1789 -1.5598 -1.7161
 1467TIP3    H225893   6.100   0.278  13.679 -0.5356  0.5833 -0.9650
 1468TIP3   OH225894   2.637   1.978   1.172  0.0954 -0.4211  0.4908
 1468TIP3    H125895   2.548   2.011   1.182 -0.2040 -1.2483  0.6521
 1468TIP3    H225896   2.671   1.971   1.261  0.2241 -0.3658  0.4468
 1469TIP3   OH225897   6.245   6.622   0.680  0.4891  0.0150  0.0311
 1469TIP3    H125898   6.247   6.581   0.767 -0.6157  1.9149  1.0198
 1469TIP3    H225899   6.332   6.659   0.668  0.9623 -1.1227 -0.1370
 1470TIP3   OH225900   4.371   3.347  12.836 -0.2587 -0.2419 -0.7305
 1470TIP3    H125901   4.432   3.398  12.890 -3.2501  0.8576  1.9557
 1470TIP3    H225902   4.306   3.411  12.807 -1.2308 -1.6685 -1.8481
 1471TIP3   OH225903   0.751   6.377  13.187  0.0530 -0.0515  0.5548
 1471TIP3    H125904   0.668   6.364  13.140 -0.3626  2.2959  0.5078
 1471TIP3    H225905   0.781   6.463  13.158  0.5115  0.8816  3.4843
 1472TIP3   OH225906   4.704   0.720  10.873 -0.0133 -0.5274  0.0804
 1472TIP3    H125907   4.688   0.811  10.900 -2.5254 -0.7156 -0.4628
 1472TIP3    H225908   4.739   0.728  10.784  0.9613 -0.0690  0.4999
 1473TIP3   OH225909   2.980   3.988  17.335 -0.0726 -0.2485  0.5428
 1473TIP3    H125910   3.004   3.932  17.260 -1.5827  0.5690 -0.6039
 1473TIP3    H225911   2.975   3.927  17.409 -0.2223 -1.3919 -0.3720
 1474TIP3   OH225912   2.644   0.829  13.301  0.6513 -0.1700 -0.0386
 1474TIP3    H125913   2.713   0.806  13.239  0.3478  0.9598 -0.8293
 1474TIP3    H225914   2.684   0.817  13.387  1.5526 -0.3781 -0.4711
 1475TIP3   OH225915   2.917   4.787   2.379 -0.0712 -0.4669 -0.2675
 1475TIP3    H125916   2.892   4.718   2.317  1.5612  0.4215 -2.0198
 1475TIP3    H225917   3.002   4.817   2.348  0.6229  0.3603  2.1851
 1476TIP3   OH225918   4.307   2.968  13.148  0.0268  0.1035 -0.2493
 1476TIP3    H125919   4.324   2.987  13.056 -0.4336 -1.8612 -0.7895
 1476TIP3    H225920   4.365   2.895  13.169  0.7878  1.1134  1.3096
 1477TIP3   OH225921   4.414   2.750   1.402 -0.1103  0.2457 -0.3467
 1477TIP3    H125922   4.433   2.826   1.457 -1.2204  1.0328 -0.9948
 1477TIP3    H225923   4.481   2.752   1.334 -0.8287  1.4115 -1.0731
 1478TIP3   OH225924   5.008   3.632   0.237  0.5850  0.0329  0.2727
 1478TIP3    H125925   5.062   3.706   0.208  1.7038 -1.1158 -0.7232
 1478TIP3    H225926   5.020   3.629   0.332 -1.2088  2.4066  0.6711
 1479TIP3   OH225927   0.788   3.748   1.350  0.1053 -0.1638  0.5124
 1479TIP3    H125928   0.776   3.758   1.256 -1.5442  1.3750  0.8167
 1479TIP3    H225929   0.703   3.716   1.381 -0.1115  1.4474  1.7021
 1480TIP3   OH225930   0.379   3.170  14.718  0.3181 -0.7749  0.3913
 1480TIP3    H125931   0.305   3.230  14.723  1.1897  0.3499  0.2458
 1480TIP3    H225932   0.455   3.223  14.742  1.0680 -1.9376  0.6913
 1481TIP3   OH225933   3.712   2.280   0.704 -0.3688 -0.5564 -0.2303
 1481TIP3    H125934   3.708   2.269   0.609 -0.4347 -0.6273 -0.2196
 1481TIP3    H225935   3.621   2.293   0.731 -0.6375 -2.5839  0.0649
 1482TIP3   OH225936   0.159   1.192   5.840 -0.0068  0.3474 -0.2962
 1482TIP3    H125937   0.192   1.232   5.921 -2.2524  0.1245  0.8038
 1482TIP3    H225938   0.131   1.104   5.865  0.7914 -0.3479 -1.7135
 1483TIP3   OH225939   4.747   6.353   6.153 -0.3779  0.1769 -0.4450
 1483TIP3    H125940   4.723   6.284   6.215  1.0072  0.4323  0.4151
 1483TIP3    H225941   4.720   6.320   6.068  0.0036 -1.3129 -0.0102
 1484TIP3   OH225942   0.308   2.615   2.277  0.0535  0.4032  0.1265
 1484TIP3    H125943   0.249   2.679   2.237 -0.7654  0.2417  1.0364
 1484TIP3    H225944   0.343   2.660   2.354  2.6244  1.1941 -1.3710
 1485TIP3   OH225945   6.073   4.505   0.387 -0.0949  0.5877 -0.7117
 1485TIP3    H125946   6.095   4.588   0.427 -1.1296 -0.3988  2.1224
 1485TIP3    H225947   5.977   4.503   0.387 -0.1680  0.5204 -3.3715
 1486TIP3   OH225948   4.065   5.883   1.238  0.4206 -0.1387  0.1192
 1486TIP3    H125949   4.034   5.826   1.308  0.3195  0.1065  0.2748
 1486TIP3    H225950   4.059   5.830   1.158 -0.8928  0.0857  0.0612
 1487TIP3   OH225951   0.024   1.644  12.829  0.3509  0.3276  0.0323
 1487TIP3    H125952   0.070   1.636  12.913  0.0459  0.6741  0.2318
 1487TIP3    H225953   0.058   1.725  12.791  0.1715  0.3952  0.0160
 1488TIP3   OH225954   6.116   6.277   4.441 -0.2796 -0.1406  0.0466
 1488TIP3    H125955   6.114   6.371   4.419 -3.1864 -0.0612  0.1658
 1488TIP3    H225956   6.083   6.234   4.362 -1.8219 -0.7229  0.9573
 1489TIP3   OH225957   4.548   6.427  11.382 -0.1546  0.1498  0.6042
 1489TIP3    H125958   4.507   6.512  11.365  0.2352  0.2368  0.0690
 1489TIP3    H225959   4.564   6.390  11.295  0.7645  0.0651  0.7999
 1490TIP3   OH225960   3.327   1.530   0.349  0.5691  0.1907  0.1217
 1490TIP3    H125961   3.243   1.485   0.341  0.3681  0.4823  0.6030
 1490TIP3    H225962   3.305   1.623   0.349  0.8732  0.2645  0.4978
 1491TIP3   OH225963   3.704   0.723   0.019 -1.1820 -0.0782 -0.2568
 1491TIP3    H125964   3.700   0.669  -0.060  0.4478 -0.3253 -0.2063
 1491TIP3    H225965   3.647   0.678   0.081 -0.1432 -1.5699 -0.3335
 1492TIP3   OH225966   0.353   3.731  11.899 -0.0943  0.0371  0.1150
 1492TIP3    H125967   0.325   3.677  11.973 -1.3609 -0.6407 -0.8177
 1492TIP3    H225968   0.292   3.805  11.899  0.1268  0.2208 -0.0371
 1493TIP3   OH225969   2.513   0.350   1.442 -0.6160  0.3197  0.5305
 1493TIP3    H125970   2.556   0.340   1.527  1.0368 -0.3806 -0.3477
 1493TIP3    H225971   2.585   0.352   1.378 -1.7577  1.7453 -0.7989
 1494TIP3   OH225972   0.748   4.573  11.932 -0.1387  0.0763 -0.0762
 1494TIP3    H125973   0.799   4.609  12.005  1.0853  1.1669 -1.4175
 1494TIP3    H225974   0.762   4.478  11.938  0.1103  0.1594  0.9605
 1495TIP3   OH225975   6.207   2.393   5.927  0.2628 -0.2052  0.2925
 1495TIP3    H125976   6.274   2.397   5.859  0.6567  2.5631  0.7512
 1495TIP3    H225977   6.124   2.389   5.879  0.6099 -0.5257 -0.2935
 1496TIP3   OH225978   1.041   4.258   6.407  0.0117  0.0878  0.0558
 1496TIP3    H125979   1.064   4.168   6.384  0.7799  0.2894  0.0377
 1496TIP3    H225980   1.045   4.261   6.502 -0.2504  0.0453  0.0703
 1497TIP3   OH225981   4.896   0.685   6.044 -0.3275  0.5360  0.3260
 1497TIP3    H125982   4.868   0.696   5.954  0.3270 -1.7909 -0.2367
 1497TIP3    H225983   4.849   0.607   6.074  0.6541  0.3501  1.4557
 1498TIP3   OH225984   5.038   2.869   5.905 -0.3501  0.0256  0.3138
 1498TIP3    H125985   5.113   2.820   5.939  0.2265  0.4793 -0.2661
 1498TIP3    H225986   5.068   2.902   5.821 -1.7442 -1.0448 -0.6347
 1499TIP3   OH225987   6.108   5.917  13.481 -0.0014 -0.6091  0.4395
 1499TIP3    H125988   6.123   5.825  13.504  0.7282 -0.7559 -0.5192
 1499TIP3    H225989   6.058   5.913  13.400 -1.0621 -0.1369  1.0617
 1500TIP3   OH225990   4.787   6.533   0.925 -0.1217 -0.2475  0.5168
 1500TIP3    H125991   4.778   6.623   0.894  1.4472  0.0287  0.7466
 1500TIP3    H225992   4.834   6.488   0.854 -0.2653 -0.7067  0.7081
 1501TIP3   OH225993   1.460   6.092  17.139  0.0841 -0.2331  0.0175
 1501TIP3    H125994   1.550   6.096  17.107  1.2230 -0.0763  2.9805
 1501TIP3    H225995   1.464   6.030  17.212 -1.8715  1.0000  1.2317
 1502TIP3   OH225996   3.303   0.562  11.788  0.0096  0.1041  0.4656
 1502TIP3    H125997   3.389   0.597  11.762 -0.6401  0.6546 -1.0510
 1502TIP3    H225998   3.269   0.627  11.849 -0.1634  0.9549 -0.4910
 1503TIP3   OH225999   0.573   3.394  16.951  0.1174  0.6225 -0.1186
 1503TIP3    H126000   0.660   3.364  16.976  0.6213  1.3655 -0.9164
 1503TIP3    H226001   0.537   3.432  17.031  1.3582  2.1624 -0.2343
 1504TIP3   OH226002   4.984   5.646  11.761  0.0677  0.3933  0.4684
 1504TIP3    H126003   5.023   5.563  11.789  0.2767  1.1704  2.6231
 1504TIP3    H226004   4.986   5.701  11.838 -0.9518  2.1137 -0.6644
 1505TIP3   OH226005   6.570   0.762  11.523 -0.5107  0.7981  0.2042
 1505TIP3    H126006   6.561   0.857  11.522 -0.7661  0.7760 -0.3178
 1505TIP3    H226007   6.520   0.733  11.447 -1.2743  0.1646  0.9330
 1506TIP3   OH226008   4.725   6.681  11.741  0.1038  0.1315 -0.1472
 1506TIP3    H126009   4.649   6.723  11.701  0.2639 -0.3462 -0.9727
 1506TIP3    H226010   4.692   6.598  11.775  0.3519 -0.3150 -0.9709
 1507TIP3   OH226011   5.177   2.464   6.149 -0.9126 -0.5003  0.5494
 1507TIP3    H126012   5.208   2.456   6.240  1.8020  0.0454 -0.2547
 1507TIP3    H226013   5.200   2.380   6.109  1.9675  0.7785 -0.6922
 1508TIP3   OH226014   1.830   4.955  15.974 -0.0979 -0.4953 -0.0005
 1508TIP3    H126015   1.846   4.938  16.067 -2.1088 -0.3231  0.4398
 1508TIP3    H226016   1.902   5.011  15.947 -0.2243  0.6451  1.8547
 1509TIP3   OH226017   3.589   6.695  11.532 -0.4683 -0.2340 -0.3247
 1509TIP3    H126018   3.559   6.679  11.622 -2.2822 -1.1170 -1.0526
 1509TIP3    H226019   3.602   6.608  11.495  1.1060  0.1187 -0.7007
 1510TIP3   OH226020   2.663   1.252  15.826 -0.0022 -0.0991 -0.6352
 1510TIP3    H126021   2.743   1.245  15.879 -0.0795  1.7104 -0.2118
 1510TIP3    H226022   2.669   1.338  15.785 -1.1915 -0.4185 -1.5385
 1511TIP3   OH226023   6.060   2.822   1.190  0.1970  0.7857  0.8966
 1511TIP3    H126024   5.998   2.858   1.254 -0.0301  1.7135  0.1745
 1511TIP3    H226025   6.146   2.845   1.225  0.0595  1.9136  0.5261
 1512TIP3   OH226026   1.264   6.637  13.376 -0.1764 -0.2424 -0.4391
 1512TIP3    H126027   1.209   6.560  13.392 -0.8383  0.0125 -1.3429
 1512TIP3    H226028   1.218   6.683  13.305  0.7868  0.4074 -0.6484
 1513TIP3   OH226029   6.615   4.931   0.818 -0.2770  0.1903 -0.0693
 1513TIP3    H126030   6.546   4.997   0.820 -1.4490 -0.9000 -2.0360
 1513TIP3    H226031   6.668   4.950   0.895 -0.3243  3.6420 -0.7509
 1514TIP3   OH226032   3.279   0.787   0.055 -0.2872  0.3949 -0.7040
 1514TIP3    H126033   3.329   0.866   0.078 -0.1762  0.3528 -0.8033
 1514TIP3    H226034   3.255   0.749   0.140  0.4177  0.0518 -0.6576
 1515TIP3   OH226035   2.845   2.935   5.746  0.3860  0.5149 -0.4056
 1515TIP3    H126036   2.915   2.891   5.795 -0.5626 -1.3175 -0.6245
 1515TIP3    H226037   2.856   2.904   5.656 -1.1145 -0.3905 -0.3141
 1516TIP3   OH226038   2.114   2.684  13.663  0.4355  0.0410 -0.2357
 1516TIP3    H126039   2.169   2.755  13.629  0.4113  0.4892  0.6437
 1516TIP3    H226040   2.162   2.605  13.641  1.2366  0.4078  0.1453
 1517TIP3   OH226041   3.233   0.380   2.307 -0.0935 -0.2305  0.3223
 1517TIP3    H126042   3.261   0.306   2.252 -0.1950 -0.0624  0.0420
 1517TIP3    H226043   3.139   0.366   2.320  0.0228 -0.5354  0.8646
 1518TIP3   OH226044   5.240   0.189  11.294  0.2999  0.4884 -0.0394
 1518TIP3    H126045   5.233   0.220  11.204 -0.7225  2.6298  0.7128
 1518TIP3    H226046   5.157   0.143  11.310 -1.2548  3.3403  0.8588
 1519TIP3   OH226047   0.400   4.017  15.759 -0.1527  0.4672 -0.0356
 1519TIP3    H126048   0.416   4.027  15.665  0.6827  2.9668  0.2929
 1519TIP3    H226049   0.425   3.927  15.778 -0.4117 -0.1289 -2.1932
 1520TIP3   OH226050   4.613   2.013  15.813 -0.1359 -0.0768 -0.7675
 1520TIP3    H126051   4.669   1.946  15.772  1.5350  1.2685 -0.8056
 1520TIP3    H226052   4.639   2.012  15.905 -0.1879  0.4300 -0.7473
 1521TIP3   OH226053   5.984   0.458   4.371 -0.6586  0.0046 -0.4345
 1521TIP3    H126054   5.991   0.375   4.324  2.8801  0.2357 -0.5270
 1521TIP3    H226055   5.900   0.495   4.341 -1.3921 -2.6058 -1.8754
 1522TIP3   OH226056   4.403   1.000   0.513 -0.1385  0.4390  0.5031
 1522TIP3    H126057   4.379   1.091   0.528 -0.8612 -0.1591  3.8748
 1522TIP3    H226058   4.429   0.997   0.421 -0.5461  3.9021  0.1237
 1523TIP3   OH226059   0.619   0.090  16.220 -0.1205  0.2441  0.3817
 1523TIP3    H126060   0.611   0.153  16.149  1.0000 -3.2356 -3.1592
 1523TIP3    H226061   0.535   0.046  16.223 -0.4462  0.9068  1.9027
 1524TIP3   OH226062   2.333   0.382  12.946 -0.3030  0.8339  0.6744
 1524TIP3    H126063   2.338   0.477  12.953  1.0246  0.7571  0.9749
 1524TIP3    H226064   2.329   0.352  13.037 -1.0100  0.6063  0.5736
 1525TIP3   OH226065   5.842   4.722  11.269  0.0775  0.2603  0.2831
 1525TIP3    H126066   5.902   4.795  11.251  0.5903 -0.7186 -2.2940
 1525TIP3    H226067   5.755   4.763  11.271  0.2193  0.8426 -2.3739
 1526TIP3   OH226068   3.119   3.815   6.063 -0.5083  0.5461 -0.3041
 1526TIP3    H126069   3.169   3.778   5.990 -0.6190 -0.4997  0.1321
 1526TIP3    H226070   3.184   3.851   6.122 -0.1306 -1.7266  0.7725
 1527TIP3   OH226071   1.715   6.347  13.873  0.2433  0.2040 -0.2228
 1527TIP3    H126072   1.646   6.326  13.810 -0.3097  1.7773 -0.1903
 1527TIP3    H226073   1.668   6.358  13.956  0.6843  0.1565  0.0337
 1528TIP3   OH226074   5.701   6.747  11.637  0.0998  0.2000  0.1298
 1528TIP3    H126075   5.647   6.825  11.630 -0.2999 -0.1554 -1.0509
 1528TIP3    H226076   5.786   6.773  11.601 -0.6568 -0.4315 -2.3275
 1529TIP3   OH226077   0.527   2.474  12.457  0.1679  0.0571 -0.3408
 1529TIP3    H126078   0.475   2.508  12.529 -0.5491  0.1716 -0.9009
 1529TIP3    H226079   0.555   2.387  12.485 -0.1857  0.0645  0.0319
 1530TIP3   OH226080   5.322   2.902  11.717  0.3288 -0.0862  0.6843
 1530TIP3    H126081   5.304   2.961  11.790 -0.0342  0.3102  0.2822
 1530TIP3    H226082   5.319   2.815  11.755  0.0697  0.1132  1.1306
 1531TIP3   OH226083   6.521   1.665  12.966 -0.1665 -0.4186  0.0204
 1531TIP3    H126084   6.511   1.750  13.009 -1.1224 -1.7577  2.6843
 1531TIP3    H226085   6.609   1.666  12.929  0.0568  1.4910  0.5269
 1532TIP3   OH226086   3.557   0.318  13.595 -0.1443  0.2806  0.3849
 1532TIP3    H126087   3.593   0.231  13.576 -0.9295 -0.0174  0.2095
 1532TIP3    H226088   3.502   0.338  13.519 -0.3420  0.7302  0.6421
 1533TIP3   OH226089   0.005   4.398   2.282 -0.0409  0.1867  0.3956
 1533TIP3    H126090   0.093   4.406   2.318  0.3918  0.2106 -0.6356
 1533TIP3    H226091  -0.027   4.315   2.315  1.6867 -1.5293 -1.9210
 1534TIP3   OH226092   2.076   4.250   0.312  0.0645  0.2307  0.5160
 1534TIP3    H126093   2.143   4.280   0.250  0.1558  0.0025  0.5011
 1534TIP3    H226094   2.096   4.157   0.325 -0.2338  0.1675  0.5334
 1535TIP3   OH226095   3.956   4.403   1.142 -0.2581 -0.1941 -0.2816
 1535TIP3    H126096   3.918   4.468   1.082 -1.7446 -0.5134  0.2803
 1535TIP3    H226097   3.981   4.453   1.219  0.0635 -0.0486 -0.4795
 1536TIP3   OH226098   5.716   1.114   0.897  0.4972  0.1734 -0.0119
 1536TIP3    H126099   5.790   1.135   0.954  0.4872 -1.2087  0.5452
 1536TIP3    H226100   5.756   1.095   0.812  0.5518  1.7815 -0.3730
 1537TIP3   OH226101   3.733   1.041   0.816 -0.8778  0.2278  0.1648
 1537TIP3    H126102   3.695   1.111   0.763  1.1007  1.4756  0.2933
 1537TIP3    H226103   3.750   0.971   0.753 -0.1460  1.0239 -0.5497
 1538TIP3   OH226104   3.061   3.027  12.272 -0.5163  0.3872 -0.5845
 1538TIP3    H126105   3.036   2.950  12.222  0.6351 -0.3883 -0.0128
 1538TIP3    H226106   3.120   3.075  12.215  1.3845 -0.8687  0.1980
 1539TIP3   OH226107   1.184   3.239   4.738 -0.2573  0.9202  0.0588
 1539TIP3    H126108   1.156   3.264   4.651 -0.8907 -0.5103 -0.1684
 1539TIP3    H226109   1.247   3.168   4.724 -2.0889 -0.9485  0.7817
 1540TIP3   OH226110   6.363   0.750  14.693 -0.0584 -0.0693 -0.2437
 1540TIP3    H126111   6.409   0.671  14.719 -0.7963  0.0770  1.6843
 1540TIP3    H226112   6.430   0.805  14.653  0.8556 -0.9375  0.0668
 1541TIP3   OH226113   3.159   3.451  13.829  0.5165  0.0391 -0.4352
 1541TIP3    H126114   3.071   3.457  13.867  1.2183  2.7203  1.0366
 1541TIP3    H226115   3.213   3.415  13.899  1.4149  3.0409  0.6020
 1542TIP3   OH226116   3.878   6.393   1.267  0.7869  0.2487 -0.0652
 1542TIP3    H126117   3.783   6.383   1.277  0.7446  1.3700  0.7949
 1542TIP3    H226118   3.907   6.308   1.234 -0.6478  0.2223 -1.4348
 1543TIP3   OH226119   6.376   6.366  15.984 -0.0493 -0.4833  0.3079
 1543TIP3    H126120   6.298   6.421  15.988 -0.4939 -1.1165  0.4284
 1543TIP3    H226121   6.395   6.358  15.891 -0.1119 -0.3194  0.2796
 1544TIP3   OH226122   3.009   5.933  13.941  0.2345 -0.7181  0.2655
 1544TIP3    H126123   2.949   5.878  13.891  1.2384 -0.8802 -0.8205
 1544TIP3    H226124   2.973   5.934  14.030 -3.0560  1.6592 -0.9035
 1545TIP3   OH226125   1.607   3.398  14.576 -0.1021 -0.1210  0.2809
 1545TIP3    H126126   1.696   3.383  14.607 -0.4618  0.0349  1.4302
 1545TIP3    H226127   1.600   3.345  14.496  0.2443 -2.0665  1.4923
 1546TIP3   OH226128   2.778   4.309   4.426  0.6250  0.0848  1.0003
 1546TIP3    H126129   2.873   4.304   4.441  0.3535 -1.5697  2.4159
 1546TIP3    H226130   2.741   4.240   4.481 -1.3148 -0.1527 -0.5075
 1547TIP3   OH226131   4.524   2.721  12.518 -0.2173 -0.0705 -0.9429
 1547TIP3    H126132   4.503   2.759  12.433  0.6640  0.0014 -1.1403
 1547TIP3    H226133   4.547   2.630  12.499 -2.1369 -0.7052 -0.4979
 1548TIP3   OH226134   6.547   5.800  13.784 -0.4300  0.1703 -0.3173
 1548TIP3    H126135   6.615   5.849  13.736  0.3131  1.6404  2.0704
 1548TIP3    H226136   6.500   5.867  13.834 -0.9043 -1.3145  1.3052
 1549TIP3   OH226137   1.417   1.118   2.893  0.0991  0.3779  0.1251
 1549TIP3    H126138   1.354   1.190   2.894 -1.0555 -0.6025  1.3225
 1549TIP3    H226139   1.430   1.099   2.800 -0.9197  1.0037 -0.1552
 1550TIP3   OH226140   4.716   6.100  15.853  0.0295  0.0406  0.0898
 1550TIP3    H126141   4.721   6.195  15.854 -0.5203  0.0742 -0.1614
 1550TIP3    H226142   4.727   6.076  15.761 -1.0772 -0.0591 -0.0297
 1551TIP3   OH226143   5.925   5.079  16.626  0.3053 -0.0530  0.1301
 1551TIP3    H126144   5.833   5.080  16.602  0.5241 -2.4246 -1.0498
 1551TIP3    H226145   5.929   5.023  16.704  0.8750 -1.0553 -0.6007
 1552TIP3   OH226146   5.178   6.211  12.142  0.7578  0.2068 -0.1732
 1552TIP3    H126147   5.114   6.272  12.179  1.0755  0.6116 -0.2765
 1552TIP3    H226148   5.167   6.131  12.192  1.0845  0.6999  0.7028
 1553TIP3   OH226149   6.184   1.971  11.954 -0.0528  0.1551 -0.0055
 1553TIP3    H126150   6.238   1.907  12.000  1.8302  2.1388  0.7399
 1553TIP3    H226151   6.236   1.996  11.877 -0.6912  0.8313 -0.2375
 1554TIP3   OH226152   0.680   2.057  15.128 -0.1673  0.0833 -0.0860
 1554TIP3    H126153   0.697   1.965  15.107  1.9857  0.6086 -0.8333
 1554TIP3    H226154   0.609   2.081  15.068 -0.5927 -0.9935 -0.0533
 1555TIP3   OH226155   0.595   6.731   4.133  0.0776 -0.5145 -0.3106
 1555TIP3    H126156   0.588   6.798   4.065 -0.4779  0.0754  0.3184
 1555TIP3    H226157   0.511   6.734   4.179  1.2460  0.6937  1.8924
 1556TIP3   OH226158   3.572   6.427   2.204 -0.5265  0.3918  0.5900
 1556TIP3    H126159   3.633   6.426   2.130 -1.3292 -4.7478 -0.3717
 1556TIP3    H226160   3.629   6.426   2.281  0.4945  0.0325 -0.1407
 1557TIP3   OH226161   1.346   0.156   0.900  0.2535  0.1132 -0.2414
 1557TIP3    H126162   1.354   0.064   0.925 -1.4399  0.2946  1.0924
 1557TIP3    H226163   1.356   0.156   0.804  1.9558 -1.2102 -0.1097
 1558TIP3   OH226164   6.014   0.741   1.464 -0.6849  0.3098 -0.9267
 1558TIP3    H126165   5.941   0.691   1.429 -0.6623 -0.5675  0.1959
 1558TIP3    H226166   5.989   0.832   1.451 -0.8112  0.0330 -2.8472
 1559TIP3   OH226167   3.347   2.210   4.007  0.1010  0.0095  0.0800
 1559TIP3    H126168   3.273   2.229   4.065  0.9298  1.4898  0.7290
 1559TIP3    H226169   3.325   2.253   3.925 -0.9724 -1.8989 -0.6880
 1560TIP3   OH226170   6.696   1.644   4.623  0.2502 -0.1964 -0.7900
 1560TIP3    H126171   6.615   1.663   4.575  0.0344 -0.7519 -0.6432
 1560TIP3    H226172   6.735   1.570   4.577 -1.2485 -2.4607  1.3692
 1561TIP3   OH226173   0.900   3.834  12.167 -0.5375  1.4488  0.9289
 1561TIP3    H126174   0.913   3.817  12.073 -3.0596 -0.0712  0.7683
 1561TIP3    H226175   0.812   3.871  12.172 -0.7698  0.7120  2.7816
 1562TIP3   OH226176   5.485   2.356   4.789 -0.1712  0.3382 -0.1687
 1562TIP3    H126177   5.402   2.314   4.809 -1.5405  2.1462 -1.6587
 1562TIP3    H226178   5.521   2.380   4.874 -1.9411  0.8623  0.4701
 1563TIP3   OH226179   6.646   0.347  11.862 -0.1953  0.2844  0.1817
 1563TIP3    H126180   6.707   0.342  11.789 -0.0129 -0.0194  0.3531
 1563TIP3    H226181   6.596   0.265  11.858  1.5824 -0.9864  1.9322
 1564TIP3   OH226182   2.788   3.779  15.827  0.1640  0.2576 -0.0486
 1564TIP3    H126183   2.873   3.823  15.831 -0.2629  1.0641  0.5677
 1564TIP3    H226184   2.754   3.798  15.740  0.4817  0.1814 -0.1894
 1565TIP3   OH226185   5.152   1.774   4.737 -0.9042 -0.2573 -0.9008
 1565TIP3    H126186   5.190   1.710   4.677  0.4826  0.0183 -0.3535
 1565TIP3    H226187   5.178   1.744   4.824 -0.2634  1.0133 -0.6272
 1566TIP3   OH226188   6.551   3.918  16.646 -0.2469 -0.0583  0.6758
 1566TIP3    H126189   6.598   4.001  16.639 -1.2732  0.4216 -1.4940
 1566TIP3    H226190   6.499   3.913  16.565 -2.3975 -1.4619  2.0220
 1567TIP3   OH226191   1.416   6.752  17.406 -0.6078  0.0515 -0.2209
 1567TIP3    H126192   1.355   6.798  17.463  0.7032 -0.3782  1.6251
 1567TIP3    H226193   1.442   6.675  17.456 -0.3068 -1.0194 -1.9192
 1568TIP3   OH226194   4.866   0.137  15.587  0.2902 -0.3138  0.0599
 1568TIP3    H126195   4.873   0.043  15.573  2.6209 -0.5322  2.0242
 1568TIP3    H226196   4.863   0.148  15.682  0.8682  1.6144 -0.0833
 1569TIP3   OH226197   0.471   5.971   2.898 -0.0619 -0.3249  0.5203
 1569TIP3    H126198   0.547   5.936   2.851  0.8678  1.6881  0.4296
 1569TIP3    H226199   0.396   5.930   2.855  0.8222  0.1469 -1.6229
 1570TIP3   OH226200   1.090   1.682  13.904  1.0284  0.1553  0.0463
 1570TIP3    H126201   1.045   1.699  13.821  4.5072  1.3918 -1.7714
 1570TIP3    H226202   1.097   1.767  13.946  1.6295 -0.0069  0.2950
 1571TIP3   OH226203   6.731   3.867  17.378  0.1594  0.3215 -0.1665
 1571TIP3    H126204   6.773   3.902  17.456  0.9103  0.6205 -0.7034
 1571TIP3    H226205   6.658   3.814  17.412  1.2336 -0.5782  0.7936
 1572TIP3   OH226206   0.463   5.144   0.825 -0.2205  0.1929 -0.4858
 1572TIP3    H126207   0.524   5.070   0.819 -1.3653 -0.7632 -0.5622
 1572TIP3    H226208   0.388   5.109   0.873 -1.7173  0.6550 -2.4083
 1573TIP3   OH226209   4.219   3.863  15.868 -0.0602  0.1364 -0.0201
 1573TIP3    H126210   4.220   3.904  15.782  0.2569 -0.5392 -0.3461
 1573TIP3    H226211   4.205   3.770  15.850  4.5191 -0.8531  0.2753
 1574TIP3   OH226212   1.479   0.454   4.257 -0.6291  0.3144  0.2241
 1574TIP3    H126213   1.557   0.409   4.224  1.8788  1.6595  3.5748
 1574TIP3    H226214   1.471   0.531   4.202  0.3587  0.0720 -0.2912
 1575TIP3   OH226215   2.816   4.503  11.865 -0.6291 -0.0214 -0.5747
 1575TIP3    H126216   2.802   4.482  11.773  0.2934  0.1608 -0.7707
 1575TIP3    H226217   2.821   4.419  11.909 -1.6806 -0.1026 -0.5784
 1576TIP3   OH226218   3.404   2.753  16.181  0.1181  0.5540 -0.0817
 1576TIP3    H126219   3.442   2.838  16.161  0.8104 -0.1327 -1.9609
 1576TIP3    H226220   3.422   2.740  16.274 -0.3203  2.5757  0.3299
 1577TIP3   OH226221   4.502   5.915  14.202 -0.1017  0.7602 -0.6301
 1577TIP3    H126222   4.488   5.851  14.271 -0.3250 -1.4637 -2.6170
 1577TIP3    H226223   4.414   5.937  14.171  0.0373  0.6655 -1.1092
 1578TIP3   OH226224   4.030   4.147   3.238 -0.2544 -0.2781  0.4504
 1578TIP3    H126225   4.065   4.183   3.319  1.5420 -0.7748 -0.0546
 1578TIP3    H226226   4.059   4.209   3.170 -0.1432 -0.8304 -0.0123
 1579TIP3   OH226227   1.263   4.763  17.199 -0.1958 -0.6420  0.0045
 1579TIP3    H126228   1.228   4.764  17.110 -0.9495 -0.0558  0.2926
 1579TIP3    H226229   1.199   4.713  17.249  0.0117 -0.6162  0.3002
 1580TIP3   OH226230   2.086   0.575   5.795 -0.0650  0.1417 -0.4078
 1580TIP3    H126231   2.020   0.637   5.828  0.6152  0.3272  0.6703
 1580TIP3    H226232   2.106   0.519   5.871  1.7553  0.7429 -0.3877
 1581TIP3   OH226233   5.530   4.440   4.925 -0.3713  0.0412  0.0892
 1581TIP3    H126234   5.453   4.399   4.886  0.5208 -0.9893 -0.6639
 1581TIP3    H226235   5.591   4.452   4.851  0.3768  0.3861  0.7450
 1582TIP3   OH226236   1.675   3.700  16.651 -0.1032 -0.2046  0.2887
 1582TIP3    H126237   1.733   3.625  16.658 -0.1327 -0.5397 -2.2806
 1582TIP3    H226238   1.597   3.675  16.700  0.6184 -1.0758  1.0189
 1583TIP3   OH226239   5.600   3.772   1.066  0.5110 -0.2912 -0.1012
 1583TIP3    H126240   5.548   3.852   1.075 -0.1992 -0.5690 -1.3987
 1583TIP3    H226241   5.611   3.739   1.155 -1.2837 -0.0461  0.2478
 1584TIP3   OH226242   2.565   5.190  14.242  0.4045 -0.4108  0.2911
 1584TIP3    H126243   2.509   5.112  14.245 -0.2637 -0.0137 -1.1368
 1584TIP3    H226244   2.544   5.238  14.322  0.9025 -1.7329  1.2387
 1585TIP3   OH226245   0.695   6.041   0.678  0.0767 -0.3347  0.7564
 1585TIP3    H126246   0.669   5.949   0.672  1.4481 -0.7343  0.4964
 1585TIP3    H226247   0.613   6.090   0.679 -0.6654 -1.5494  0.6329
 1586TIP3   OH226248   6.097   5.544   6.106  0.1221  0.5971  0.3533
 1586TIP3    H126249   6.155   5.599   6.159  1.8592 -0.2416 -0.5889
 1586TIP3    H226250   6.079   5.469   6.162  1.6279 -0.0942 -0.0263
 1587TIP3   OH226251   2.829   2.081  17.433  0.2254 -0.1708  0.2996
 1587TIP3    H126252   2.795   2.002  17.391 -2.9006  1.1277  0.1389
 1587TIP3    H226253   2.863   2.050  17.517 -1.6521 -1.6341  0.5923
 1588TIP3   OH226254   4.869   5.519  17.132 -0.2101 -0.5569  0.1028
 1588TIP3    H126255   4.910   5.518  17.045  1.4640  0.1984  0.8421
 1588TIP3    H226256   4.792   5.574  17.121  0.1429 -0.2339 -0.8486
 1589TIP3   OH226257   2.924   3.860  13.870  0.6080  0.1655 -0.4064
 1589TIP3    H126258   2.893   3.796  13.806  2.2351 -0.2581 -0.8081
 1589TIP3    H226259   2.883   3.942  13.843  0.1824 -0.2769 -1.1619
 1590TIP3   OH226260   0.181   6.576  12.947 -0.1651 -0.7306 -0.2251
 1590TIP3    H126261   0.166   6.520  13.024  1.1453 -0.1438  0.4880
 1590TIP3    H226262   0.100   6.625  12.937 -1.2126 -2.4335 -0.6293
 1591TIP3   OH226263   0.897   1.317  12.930  0.2388  0.0911  0.4498
 1591TIP3    H126264   0.954   1.317  12.853 -1.5094 -0.8041 -0.9229
 1591TIP3    H226265   0.895   1.226  12.959 -1.0616 -0.0599 -0.0236
 1592TIP3   OH226266   0.301   1.483   1.405 -0.1186 -0.1952 -0.2664
 1592TIP3    H126267   0.333   1.480   1.314  0.0162 -2.4435 -0.1978
 1592TIP3    H226268   0.221   1.431   1.403 -0.2585 -0.0314  0.8563
 1593TIP3   OH226269   0.507   0.554   5.197 -0.4051 -0.1167 -0.3059
 1593TIP3    H126270   0.512   0.593   5.285 -0.8552  1.0844 -0.7808
 1593TIP3    H226271   0.495   0.461   5.212  0.6584 -0.0837  0.9010
 1594TIP3   OH226272   6.197   4.830   0.647 -0.1267  0.3573  0.0709
 1594TIP3    H126273   6.106   4.810   0.627 -0.6253  1.9239  0.6633
 1594TIP3    H226274   6.236   4.853   0.562 -0.2444 -0.3661 -0.1905
 1595TIP3   OH226275   4.314   2.862  12.757  0.6281  0.6310 -0.5628
 1595TIP3    H126276   4.303   2.957  12.769 -1.3006  0.6595 -2.0418
 1595TIP3    H226277   4.359   2.854  12.673  1.6257  0.2032 -0.0142
 1596TIP3   OH226278   0.931   4.663  11.576 -0.8377 -0.3421  0.6394
 1596TIP3    H126279   0.856   4.645  11.632 -1.4245 -0.4351 -0.1477
 1596TIP3    H226280   0.895   4.715  11.504 -0.4120 -1.3827 -0.3737
 1597TIP3   OH226281   4.356   4.233  11.742  0.1359 -0.5691  0.0848
 1597TIP3    H126282   4.371   4.188  11.825  1.8698 -1.5864 -0.7411
 1597TIP3    H226283   4.337   4.163  11.679 -0.4835  0.1363 -0.5441
 1598TIP3   OH226284   4.600   5.357   0.001  0.5793  0.3059  0.0702
 1598TIP3    H126285   4.527   5.299   0.023  0.9996 -0.2641 -0.0386
 1598TIP3    H226286   4.678   5.312   0.033  0.9897  0.4141 -0.7388
 1599TIP3   OH226287   1.918   6.000  16.028 -0.3370 -0.4648  0.5004
 1599TIP3    H126288   1.970   5.946  15.969 -0.6845 -0.9267  0.6067
 1599TIP3    H226289   1.975   6.073  16.051  0.0510 -0.6557  0.1558
 1600TIP3   OH226290   1.217   3.471  15.015 -0.4209 -0.4332  0.1649
 1600TIP3    H126291   1.269   3.527  15.073  0.8786 -0.2996 -1.0573
 1600TIP3    H226292   1.198   3.526  14.939 -2.1583 -0.5788  0.4676
 1601TIP3   OH226293   1.552   5.930   0.100  0.3005 -0.1704 -0.1000
 1601TIP3    H126294   1.535   5.882   0.182  0.9570 -0.5466 -0.1808
 1601TIP3    H226295   1.502   5.882   0.034  0.5627 -0.4621 -0.0922
 1602TIP3   OH226296   2.369   1.489   6.215 -0.0263  0.2389  0.3216
 1602TIP3    H126297   2.290   1.437   6.198  0.2300 -0.0716  0.0821
 1602TIP3    H226298   2.439   1.425   6.222  0.3186  0.5653 -0.1399
 1603TIP3   OH226299   2.783   5.304  17.065  0.0294 -0.2050  0.1985
 1603TIP3    H126300   2.737   5.263  17.138  0.6426  0.1623  0.7964
 1603TIP3    H226301   2.826   5.380  17.103 -1.6653  1.4541 -1.0018
 1604TIP3   OH226302   0.978   4.454   0.086  0.2680 -0.3823  0.0550
 1604TIP3    H126303   1.061   4.438   0.040 -0.4782 -0.2637 -1.4051
 1604TIP3    H226304   0.981   4.395   0.162  1.2173 -1.1884 -0.5760
 1605TIP3   OH226305   2.185   6.440  12.019 -0.2732 -0.5195 -1.0643
 1605TIP3    H126306   2.239   6.516  12.037 -1.1246 -0.0029 -0.6359
 1605TIP3    H226307   2.161   6.448  11.927 -0.0857 -0.4612 -1.1090
 1606TIP3   OH226308   1.954   0.237   6.017 -0.1238  0.3216 -0.4694
 1606TIP3    H126309   1.913   0.301   6.074  1.2937 -0.3975  1.4544
 1606TIP3    H226310   2.035   0.279   5.986 -0.7273  0.5933 -1.7587
 1607TIP3   OH226311   4.628   3.875  14.345 -0.0312  0.7936 -0.2602
 1607TIP3    H126312   4.670   3.796  14.311  1.9914  1.3757  0.7607
 1607TIP3    H226313   4.580   3.846  14.422  0.8887  0.5824  0.2417
 1608TIP3   OH226314   4.494   3.864   1.058  0.1708 -0.5689  0.2181
 1608TIP3    H126315   4.445   3.785   1.036  0.5590 -0.5252 -0.8653
 1608TIP3    H226316   4.503   3.861   1.153  1.4162 -2.5772  0.0866
 1609TIP3   OH226317   0.880   5.418  11.222  0.4791  0.3543 -0.1230
 1609TIP3    H126318   0.799   5.466  11.203 -1.3024 -1.4114  2.4013
 1609TIP3    H226319   0.916   5.397  11.136 -1.2955  1.8605 -1.3245
 1610TIP3   OH226320   6.546   5.355   2.340 -0.5341 -0.3612 -0.8911
 1610TIP3    H126321   6.607   5.320   2.276  0.9598  3.8331 -2.0758
 1610TIP3    H226322   6.464   5.307   2.325  1.2598 -3.2837 -2.0777
 1611TIP3   OH226323   4.272   0.660   2.166 -0.2655 -0.4371  0.3536
 1611TIP3    H126324   4.342   0.672   2.102 -0.9286  2.2612  0.0141
 1611TIP3    H226325   4.270   0.742   2.215 -1.5115 -1.4327  2.1016
 1612TIP3   OH226326   3.045   4.924  14.373  0.0556 -0.2267 -0.2015
 1612TIP3    H126327   3.134   4.960  14.365  0.3056 -0.8204 -0.1129
 1612TIP3    H226328   3.007   4.973  14.446  0.8005 -0.9326  0.6823
 1613TIP3   OH226329   5.120   1.356   0.211  0.0956 -1.0572  0.3790
 1613TIP3    H126330   5.073   1.369   0.128  0.2932 -1.4840  0.1950
 1613TIP3    H226331   5.209   1.386   0.193 -0.2414  0.2969  0.9014
 1614TIP3   OH226332   2.369   1.749   5.534  0.0238  0.3771 -0.5358
 1614TIP3    H126333   2.381   1.833   5.577 -0.6435  1.2096 -1.9199
 1614TIP3    H226334   2.451   1.733   5.487  0.8397 -0.6380  1.1106
 1615TIP3   OH226335   0.976   1.322   5.713 -0.1469 -0.0998  0.3875
 1615TIP3    H126336   0.935   1.346   5.796 -0.4857 -2.0631  0.8375
 1615TIP3    H226337   0.920   1.252   5.678  1.1756 -0.7905 -0.4257
 1616TIP3   OH226338   2.293   5.829   3.197 -0.5246 -0.0066  0.1054
 1616TIP3    H126339   2.296   5.763   3.265 -0.3264  1.1070  1.2104
 1616TIP3    H226340   2.309   5.912   3.242 -0.4441  0.7737 -1.2787
 1617TIP3   OH226341   3.965   2.054   1.271  0.0405 -0.1870 -0.8113
 1617TIP3    H126342   3.981   2.149   1.271 -0.0431 -0.1713 -1.1574
 1617TIP3    H226343   3.907   2.040   1.197  0.1762 -0.5311 -0.8527
 1618TIP3   OH226344   2.846   5.405   2.519  0.3872 -0.7496  0.2290
 1618TIP3    H126345   2.904   5.340   2.479 -0.4835 -2.4631  1.5949
 1618TIP3    H226346   2.763   5.394   2.473  0.5495  0.2507 -0.3234
 1619TIP3   OH226347   1.674   5.038  16.380  0.1072  0.7304 -0.0452
 1619TIP3    H126348   1.615   4.998  16.317  0.2505  0.4717 -0.0165
 1619TIP3    H226349   1.617   5.089  16.438 -0.2750 -0.7322  0.9231
 1620TIP3   OH226350   3.443   0.828   2.223 -0.4110 -0.2924 -0.0573
 1620TIP3    H126351   3.385   0.775   2.168  0.3923 -1.1315 -0.1302
 1620TIP3    H226352   3.493   0.880   2.162 -1.7974  1.2397  0.0486
 1621TIP3   OH226353   5.647   2.205   3.443 -0.3993 -0.0940 -0.3914
 1621TIP3    H126354   5.701   2.277   3.411 -0.4112 -0.7113 -1.8527
 1621TIP3    H226355   5.681   2.128   3.397 -0.9598 -0.8845  0.4902
 1622TIP3   OH226356   1.499   5.521   0.139 -0.4146  0.0254  0.0428
 1622TIP3    H126357   1.482   5.518   0.045  0.1965 -1.0365 -0.0515
 1622TIP3    H226358   1.413   5.510   0.180 -0.5508 -0.5891 -0.3970
 1623TIP3   OH226359   6.672   1.145  13.555  0.2563 -0.2845  0.1507
 1623TIP3    H126360   6.668   1.077  13.488  1.4203  0.3554 -0.6026
 1623TIP3    H226361   6.741   1.116  13.615  0.0436 -0.2691  0.4047
 1624TIP3   OH226362   6.738   4.445  13.019  0.0976 -0.6320 -0.0713
 1624TIP3    H126363   6.650   4.453  13.056  0.7536  0.5384  1.3317
 1624TIP3    H226364   6.797   4.454  13.094  1.4374 -1.1957 -1.0031
 1625TIP3   OH226365   2.964   3.098  16.254  0.4045 -0.3368  0.5937
 1625TIP3    H126366   2.903   3.116  16.326  0.3659 -2.1073  1.0463
 1625TIP3    H226367   3.043   3.065  16.297  0.4833 -1.1538 -0.1599
 1626TIP3   OH226368   5.436   0.474   4.348  0.1239 -0.0027 -0.0643
 1626TIP3    H126369   5.366   0.414   4.321 -0.6471  1.2207 -0.8755
 1626TIP3    H226370   5.411   0.500   4.437 -0.4917  0.4672 -0.3686
 1627TIP3   OH226371   2.695   6.648  13.713 -0.6260 -0.5012 -0.1903
 1627TIP3    H126372   2.775   6.697  13.735 -0.3566 -0.4295 -1.2591
 1627TIP3    H226373   2.677   6.595  13.791  0.2777 -0.2622  0.1965
 1628TIP3   OH226374   4.140   3.109   2.715 -0.1835  0.1550 -0.2717
 1628TIP3    H126375   4.221   3.160   2.704  0.8242 -1.4459 -0.6707
 1628TIP3    H226376   4.080   3.169   2.759  1.8317  0.8527  1.7956
 1629TIP3   OH226377   5.527   2.047  12.438 -0.0662  0.5288  0.0505
 1629TIP3    H126378   5.448   2.052  12.491 -0.1059 -0.9126  0.1745
 1629TIP3    H226379   5.567   2.133  12.445 -0.5960  0.6728  1.5903
 1630TIP3   OH226380   4.685   5.097  16.515  0.1591  0.5313 -0.3316
 1630TIP3    H126381   4.753   5.084  16.449 -1.0150 -1.6146 -1.2107
 1630TIP3    H226382   4.709   5.036  16.585 -0.9871 -0.5000 -0.7986
 1631TIP3   OH226383   0.936   1.278   3.637 -0.3506  0.0080 -0.3717
 1631TIP3    H126384   0.859   1.227   3.613 -0.6182  0.5180 -0.6161
 1631TIP3    H226385   0.947   1.262   3.731 -0.2907 -0.6741 -0.4919
 1632TIP3   OH226386   4.512   3.647   2.304  0.0163 -0.4614 -0.1341
 1632TIP3    H126387   4.432   3.683   2.266  0.7816  0.5493 -0.8780
 1632TIP3    H226388   4.538   3.578   2.243 -1.4712 -2.3941  1.3123
 1633TIP3   OH226389   1.821   3.306   0.509  0.2145  0.1791  0.2661
 1633TIP3    H126390   1.892   3.268   0.561 -0.8109 -1.0072  0.8417
 1633TIP3    H226391   1.764   3.349   0.573 -1.1170 -1.3870  0.1899
 1634TIP3   OH226392   4.429   3.049  12.533  0.3707 -0.0715  0.4385
 1634TIP3    H126393   4.515   3.089  12.546  0.6763 -0.3222 -0.7290
 1634TIP3    H226394   4.390   3.098  12.461  0.4699 -1.4022 -0.5521
 1635TIP3   OH226395   5.138   6.664   0.838  0.1768  0.0387 -0.1570
 1635TIP3    H126396   5.210   6.688   0.895  0.4717 -1.2624  0.0410
 1635TIP3    H226397   5.153   6.572   0.817 -0.9141  0.0010 -0.8684
 1636TIP3   OH226398   4.804   5.029  14.750  0.3891 -0.4736 -0.0570
 1636TIP3    H126399   4.837   4.949  14.790 -0.0871 -0.0376  1.2740
 1636TIP3    H226400   4.784   5.086  14.824  1.6176  1.2535 -0.9676
 1637TIP3   OH226401   4.705   4.460   1.581  0.7607  0.0911  0.5135
 1637TIP3    H126402   4.796   4.486   1.569  0.8892 -0.5292  0.1262
 1637TIP3    H226403   4.705   4.365   1.567  0.0774  0.0711  0.6243
 1638TIP3   OH226404   5.857   1.732   4.326  0.3846  0.1922  0.6027
 1638TIP3    H126405   5.909   1.801   4.367 -0.0585  0.3446  0.9171
 1638TIP3    H226406   5.867   1.747   4.232  2.9866 -1.3014  0.5108
 1639TIP3   OH226407   4.957   1.922  14.469  0.0929 -1.2574 -0.1893
 1639TIP3    H126408   4.870   1.904  14.434 -0.2256  1.5366 -1.1209
 1639TIP3    H226409   4.944   1.925  14.564 -1.2319  0.5111 -0.3630
 1640TIP3   OH226410   0.005   2.912   3.014  0.1954 -0.7721 -0.0130
 1640TIP3    H126411   0.042   2.832   3.050 -0.5038 -0.4049  1.6215
 1640TIP3    H226412  -0.090   2.902   3.026  0.1255  0.4874  0.6515
 1641TIP3   OH226413   2.268   6.652  13.889 -0.3017 -0.4622  0.1559
 1641TIP3    H126414   2.255   6.745  13.875  0.7611 -0.3516 -0.2198
 1641TIP3    H226415   2.247   6.612  13.804 -2.0714 -0.7280  0.6924
 1642TIP3   OH226416   3.069   5.512  11.999  0.0940  0.4977  0.1701
 1642TIP3    H126417   3.120   5.569  11.941  0.1137  2.4515  1.9708
 1642TIP3    H226418   2.979   5.546  11.992  0.3157  1.6852  2.1983
 1643TIP3   OH226419   5.866   1.462  11.969  0.7890 -0.1222  0.0752
 1643TIP3    H126420   5.843   1.498  12.054  0.5538  0.7697 -0.3516
 1643TIP3    H226421   5.961   1.475  11.962  0.5944  1.2855 -0.4341
 1644TIP3   OH226422   2.687   2.884  12.239  0.6417 -0.3789  0.2227
 1644TIP3    H126423   2.597   2.901  12.213 -0.0409 -1.8505  1.4373
 1644TIP3    H226424   2.687   2.892  12.334  1.5744 -1.2943  0.3217
 1645TIP3   OH226425   2.340   1.277   3.980  0.1265 -0.4085  0.1480
 1645TIP3    H126426   2.381   1.240   4.058  1.3315 -0.8308 -0.6733
 1645TIP3    H226427   2.262   1.223   3.967  0.0503 -0.4940  0.9031
 1646TIP3   OH226428   4.323   6.572  13.164 -0.1181 -0.0332 -0.2346
 1646TIP3    H126429   4.357   6.659  13.181  0.3456 -0.3866  0.6973
 1646TIP3    H226430   4.271   6.582  13.084 -0.9090  1.2969  0.4226
 1647TIP3   OH226431   1.769   5.407   5.000 -0.0070  0.4570 -0.1984
 1647TIP3    H126432   1.860   5.429   5.021  0.1042  0.0243 -0.2200
 1647TIP3    H226433   1.721   5.422   5.081 -0.0935  1.6323 -0.4449
 1648TIP3   OH226434   5.328   2.831  17.393 -0.1453 -0.1559 -0.0932
 1648TIP3    H126435   5.372   2.778  17.328 -0.1310  0.2974 -0.4599
 1648TIP3    H226436   5.344   2.922  17.366 -0.4165  0.0327  0.3514
 1649TIP3   OH226437   2.470   3.905  15.041 -0.0648 -0.1561 -0.0301
 1649TIP3    H126438   2.565   3.894  15.046  0.1131  1.4290  0.9483
 1649TIP3    H226439   2.451   3.972  15.107 -1.7081  0.4545 -1.0746
 1650TIP3   OH226440   5.955   4.066   1.553 -0.1478 -0.0094  0.1166
 1650TIP3    H126441   5.916   4.140   1.600 -0.1766  0.1006 -0.0771
 1650TIP3    H226442   5.929   4.080   1.462  1.2939  0.6783 -0.2135
 1651TIP3   OH226443   3.610   0.902  17.159  0.4760 -0.5402 -0.1855
 1651TIP3    H126444   3.610   0.816  17.201  2.2161  0.1707  1.4258
 1651TIP3    H226445   3.612   0.884  17.066  3.1611 -2.3381  0.1118
 1652TIP3   OH226446   6.329   4.852  13.733  0.2688 -0.0841  0.0802
 1652TIP3    H126447   6.269   4.796  13.685  0.4857 -0.4320  0.2147
 1652TIP3    H226448   6.289   4.864  13.818  0.1152  0.1477 -0.0233
 1653TIP3   OH226449   5.728   0.898  11.508  0.6038 -0.1285 -0.1768
 1653TIP3    H126450   5.723   0.811  11.549 -0.8548  0.0379  0.0611
 1653TIP3    H226451   5.662   0.896  11.438 -0.4604  1.2044  0.7167
 1654TIP3   OH226452   1.129   5.072   1.284 -0.0679 -0.3002  0.1268
 1654TIP3    H126453   1.160   5.144   1.340 -1.2790  0.1408  0.2691
 1654TIP3    H226454   1.137   5.105   1.195  0.1379 -0.3067  0.1416
 1655TIP3   OH226455   0.202   1.371  15.216 -0.1041 -0.2473 -0.2413
 1655TIP3    H126456   0.118   1.337  15.187 -0.2349  0.4832 -0.7441
 1655TIP3    H226457   0.180   1.437  15.282  0.0576  0.1620 -0.5953
 1656TIP3   OH226458   6.749   3.311   5.224 -0.2753  0.2772 -0.5520
 1656TIP3    H126459   6.667   3.277   5.188 -1.5077  1.6144  0.8482
 1656TIP3    H226460   6.733   3.317   5.318  0.3058  3.4090 -0.5544
 1657TIP3   OH226461   3.792   1.065   4.551 -0.6505 -1.2454  0.3773
 1657TIP3    H126462   3.857   1.030   4.490 -1.6459 -0.3843 -1.2436
 1657TIP3    H226463   3.799   1.009   4.628  2.1525 -1.0461  0.3625
 1658TIP3   OH226464   1.539   2.010  15.895  0.1271 -0.0491  0.1782
 1658TIP3    H126465   1.460   1.964  15.867 -1.1298  2.0233  0.0965
 1658TIP3    H226466   1.534   2.095  15.851  0.7296  1.3522  2.6110
 1659TIP3   OH226467   4.756   1.871   6.038  0.1686 -0.1521  0.6071
 1659TIP3    H126468   4.839   1.872   5.989  0.7179  1.9547  1.4216
 1659TIP3    H226469   4.771   1.933   6.110 -2.5717  1.4212 -0.0198
 1660TIP3   OH226470   6.037   0.289  16.983  0.0668 -0.1662  0.0700
 1660TIP3    H126471   6.091   0.219  17.020 -0.4296 -1.0559 -0.8514
 1660TIP3    H226472   5.957   0.288  17.036  0.0062 -0.3891 -0.0244
 1661TIP3   OH226473   0.056   5.929   6.294 -0.1473  0.7386 -0.6332
 1661TIP3    H126474   0.103   6.007   6.322 -1.3385  2.3185 -2.7346
 1661TIP3    H226475  -0.021   5.926   6.350 -1.2022  2.3813 -1.9137
 1662TIP3   OH226476   6.709   2.210   0.048  0.0197  0.1866  0.2139
 1662TIP3    H126477   6.713   2.298   0.012  0.9165 -0.0035 -0.1855
 1662TIP3    H226478   6.654   2.217   0.126 -1.0715  0.8209 -0.5882
 1663TIP3   OH226479   4.288   0.245   0.010  0.1287  0.6680  0.5153
 1663TIP3    H126480   4.208   0.275  -0.033  0.3307  0.1859 -0.2255
 1663TIP3    H226481   4.284   0.149   0.003  1.5986  0.6629 -1.1199
 1664TIP3   OH226482   3.717   5.771  15.123 -0.2792 -0.2889 -0.6589
 1664TIP3    H126483   3.667   5.796  15.045 -0.8479 -1.7621 -0.7936
 1664TIP3    H226484   3.661   5.708  15.168  1.2647 -1.6929 -0.6117
 1665TIP3   OH226485   1.815   5.496   2.145  0.0275 -0.1430 -0.0100
 1665TIP3    H126486   1.907   5.488   2.120  0.0385  1.2053 -0.4854
 1665TIP3    H226487   1.810   5.576   2.196 -0.9044 -0.1266 -0.1008
 1666TIP3   OH226488   3.048   6.598  15.194  0.1202  0.1816 -0.0192
 1666TIP3    H126489   3.079   6.656  15.124  1.4473  0.2867  0.6465
 1666TIP3    H226490   3.108   6.524  15.193  0.2112  0.2231  1.0653
 1667TIP3   OH226491   2.393   6.359   0.196  0.0090  0.0907 -0.2022
 1667TIP3    H126492   2.484   6.338   0.175  0.4183  0.8597  0.7399
 1667TIP3    H226493   2.347   6.275   0.189  0.7618 -0.2881 -0.7779
 1668TIP3   OH226494   3.792   6.408  15.583 -0.2568 -0.0606 -0.1375
 1668TIP3    H126495   3.791   6.504  15.578  0.1566  0.2683  3.1999
 1668TIP3    H226496   3.879   6.384  15.552 -0.4307  0.6002 -1.1935
 1669TIP3   OH226497   1.392   1.800  12.450  0.2115  0.3657  0.0304
 1669TIP3    H126498   1.427   1.728  12.398  0.1398 -0.2855  0.8660
 1669TIP3    H226499   1.309   1.766  12.485 -0.1923  1.1203 -0.1664
 1670TIP3   OH226500   3.133   1.513  16.870 -0.4882 -0.0350  0.1050
 1670TIP3    H126501   3.218   1.556  16.859 -0.9880  0.5659 -1.7523
 1670TIP3    H226502   3.132   1.445  16.803 -1.5024  0.0359  0.0299
 1671TIP3   OH226503   6.146   0.696   3.324 -0.4354 -0.3238  0.3385
 1671TIP3    H126504   6.226   0.748   3.314 -1.3169  1.3632  1.5527
 1671TIP3    H226505   6.140   0.680   3.418 -2.5078  1.3096  0.5573
 1672TIP3   OH226506   1.839   0.595  16.764  0.4862 -0.8606  0.5504
 1672TIP3    H126507   1.933   0.583  16.758  0.7146  0.1460  1.7562
 1672TIP3    H226508   1.802   0.522  16.715  1.8924 -0.9180 -0.4742
 1673TIP3   OH226509   4.227   2.871   2.632 -0.0163  0.7077  0.0111
 1673TIP3    H126510   4.205   2.956   2.668 -1.6106 -0.3750  1.7972
 1673TIP3    H226511   4.150   2.846   2.581 -0.2108 -0.2447  0.7296
 1674TIP3   OH226512   0.375   5.174  15.834  0.1713 -0.0131  0.2159
 1674TIP3    H126513   0.328   5.117  15.773 -0.7024  1.3919 -0.4625
 1674TIP3    H226514   0.448   5.120  15.864 -1.3882 -1.9990  0.6995
 1675TIP3   OH226515   4.592   5.669   3.747  0.5149 -0.2955 -0.0789
 1675TIP3    H126516   4.510   5.708   3.779  0.0460 -0.4120 -1.1072
 1675TIP3    H226517   4.658   5.736   3.763  0.2593 -0.2600  0.9117
 1676TIP3   OH226518   3.031   1.326  13.887 -0.2361  0.0606  0.4063
 1676TIP3    H126519   3.061   1.258  13.948  1.2464  0.5685  0.2780
 1676TIP3    H226520   3.063   1.408  13.925 -1.1694  0.6157  0.0484
 1677TIP3   OH226521   3.857   2.041   5.679  0.6674 -0.4368  0.2855
 1677TIP3    H126522   3.889   1.954   5.704  0.9501 -0.3300  0.2963
 1677TIP3    H226523   3.765   2.027   5.659  0.4503 -0.5457  1.2852
 1678TIP3   OH226524   0.966   1.979  14.252  0.3505 -0.1983 -0.2355
 1678TIP3    H126525   0.960   2.067  14.216 -0.2519 -0.0704  0.1726
 1678TIP3    H226526   1.057   1.970  14.279  0.2006  0.6440  0.5810
 1679TIP3   OH226527   6.544   4.032  16.370  0.0668 -0.0084 -0.2801
 1679TIP3    H126528   6.543   4.127  16.378 -1.6619 -0.0180 -0.1320
 1679TIP3    H226529   6.621   4.014  16.315  2.4285  1.1890  2.3523
 1680TIP3   OH226530   5.206   3.635  12.720 -0.2063 -0.8563 -0.2135
 1680TIP3    H126531   5.299   3.657  12.731 -0.5576  0.7536 -0.2078
 1680TIP3    H226532   5.201   3.596  12.633  0.2507  0.6014 -0.9312
 1681TIP3   OH226533   0.261   5.224   1.795  0.1084  0.3234 -0.3110
 1681TIP3    H126534   0.223   5.308   1.772 -0.0738  0.2939 -0.1215
 1681TIP3    H226535   0.314   5.200   1.720 -1.3383 -0.2888 -1.1758
 1682TIP3   OH226536   0.026   3.898   0.212 -0.7850 -0.1605  0.5257
 1682TIP3    H126537   0.011   3.976   0.266  2.3938 -1.0064  2.9443
 1682TIP3    H226538  -0.022   3.828   0.256 -4.0459  0.2924 -1.9143
 1683TIP3   OH226539   2.208   5.615  13.157 -0.2520 -0.1830  0.6449
 1683TIP3    H126540   2.248   5.583  13.076  0.6496  2.5144 -0.0991
 1683TIP3    H226541   2.199   5.537  13.212  3.4462 -1.4888 -0.2634
 1684TIP3   OH226542   6.749   5.205   5.346  0.4072  0.9313  0.1301
 1684TIP3    H126543   6.776   5.271   5.281  0.4626  0.8753  0.0959
 1684TIP3    H226544   6.718   5.131   5.293 -1.7310  1.7542  0.1283
 1685TIP3   OH226545   1.772   3.595  16.405 -0.0894 -0.0844 -0.0258
 1685TIP3    H126546   1.832   3.527  16.435 -1.4201 -1.2269  0.1775
 1685TIP3    H226547   1.758   3.651  16.482  1.1216  0.5268 -0.2339
 1686TIP3   OH226548   3.286   4.449   1.052  0.2617 -0.3596  0.0514
 1686TIP3    H126549   3.253   4.486   1.134 -0.8789  0.2345 -0.6578
 1686TIP3    H226550   3.273   4.355   1.062 -1.2377 -0.1836 -0.0043
 1687TIP3   OH226551   2.610   1.316  17.294  0.4843  0.2239  0.1877
 1687TIP3    H126552   2.647   1.239  17.252  0.1344  0.5057 -0.6553
 1687TIP3    H226553   2.686   1.367  17.322  0.8186 -1.7174  3.3461
 1688TIP3   OH226554   0.408   4.729   3.545  0.0641 -0.1201  0.2390
 1688TIP3    H126555   0.492   4.775   3.543 -0.8108  1.5808 -2.8549
 1688TIP3    H226556   0.344   4.793   3.516 -1.6608 -2.4813 -1.5770
 1689TIP3   OH226557   2.143   6.205   5.584 -0.3757  0.0412  0.0935
 1689TIP3    H126558   2.106   6.122   5.557  1.5171 -0.2610 -1.9066
 1689TIP3    H226559   2.210   6.182   5.649  1.8805 -0.4101 -2.2182
 1690TIP3   OH226560   5.320   2.241   5.924  0.0705 -0.1803  0.4630
 1690TIP3    H126561   5.384   2.283   5.982  0.2873 -0.9547  0.7932
 1690TIP3    H226562   5.321   2.295   5.845  2.6304 -1.2735 -0.3604
 1691TIP3   OH226563   2.371   3.265   1.389 -0.2409 -0.0167 -0.3168
 1691TIP3    H126564   2.411   3.317   1.459 -1.4130 -0.3121  0.6100
 1691TIP3    H226565   2.412   3.297   1.309 -0.4212  1.8617  0.2936
 1692TIP3   OH226566   6.561   3.392  13.446 -0.9336 -0.3716 -0.0208
 1692TIP3    H126567   6.485   3.369  13.501 -0.9113  1.2167  0.7318
 1692TIP3    H226568   6.626   3.325  13.466 -0.9019  0.1843  2.0060
 1693TIP3   OH226569   6.043   5.501   1.535 -0.2990 -0.2163  0.3451
 1693TIP3    H126570   6.093   5.422   1.554  2.0433  0.9436 -0.5618
 1693TIP3    H226571   6.055   5.556   1.613 -0.1313  0.0485  0.1385
 1694TIP3   OH226572   4.981   2.401   1.254 -0.4807 -0.1578  0.0726
 1694TIP3    H126573   5.043   2.358   1.313 -0.2362  0.8123  0.5464
 1694TIP3    H226574   5.030   2.474   1.216 -1.0727  0.0965 -0.2197
 1695TIP3   OH226575   1.912   0.315   1.719  0.0344 -0.1628  0.0582
 1695TIP3    H126576   1.927   0.280   1.806  2.2138  0.9252  0.2107
 1695TIP3    H226577   1.924   0.241   1.660 -1.1560 -0.8391  0.6474
 1696TIP3   OH226578   1.242   1.188  14.997  0.4177  0.5000  0.2789
 1696TIP3    H126579   1.151   1.180  14.968  1.0020 -3.9844 -1.1365
 1696TIP3    H226580   1.286   1.234  14.926 -0.4960  1.6648  0.4416
 1697TIP3   OH226581   4.162   3.204  12.067  0.4115 -0.0401  0.1777
 1697TIP3    H126582   4.225   3.189  11.997  0.0619  0.5241 -0.2615
 1697TIP3    H226583   4.092   3.140  12.051  0.2907  0.1455 -0.0416
 1698TIP3   OH226584   3.703   3.671   3.108  0.7673 -0.4405 -0.5175
 1698TIP3    H126585   3.673   3.647   3.020 -1.9652  1.0702 -0.1076
 1698TIP3    H226586   3.774   3.609   3.126 -1.3660 -3.6745 -2.1191
 1699TIP3   OH226587   2.235   2.909  12.649 -0.2147 -0.6606 -0.2764
 1699TIP3    H126588   2.259   2.947  12.564 -0.8309  0.6858  0.1290
 1699TIP3    H226589   2.144   2.882  12.639 -1.0845  1.6753  0.6199
 1700TIP3   OH226590   3.758   5.514   3.759  0.3054 -0.4249 -0.0956
 1700TIP3    H126591   3.815   5.518   3.682 -0.4665  0.0448 -0.6552
 1700TIP3    H226592   3.814   5.476   3.827  0.3006 -3.4049 -1.5385
 1701TIP3   OH226593   5.028   1.200  16.868 -0.0062  0.5803 -0.3025
 1701TIP3    H126594   4.959   1.239  16.815 -0.4181  0.3419  0.0549
 1701TIP3    H226595   4.982   1.155  16.938  0.4426 -0.6602 -0.7667
 1702TIP3   OH226596   3.663   0.270   4.359 -0.3658 -0.4080 -0.5445
 1702TIP3    H126597   3.675   0.346   4.417  0.1881  1.4539 -2.9173
 1702TIP3    H226598   3.678   0.194   4.415 -0.8177  1.2162  1.9334
 1703TIP3   OH226599   2.404   4.363   6.043 -0.1924  1.0244  0.0910
 1703TIP3    H126600   2.329   4.329   5.995 -0.4093  1.8501 -0.1787
 1703TIP3    H226601   2.367   4.399   6.124  0.0117  0.7473  0.3088
 1704TIP3   OH226602   2.293   0.503  15.383  0.0696  0.0331  0.3423
 1704TIP3    H126603   2.290   0.414  15.417 -1.3147  0.4234  1.3555
 1704TIP3    H226604   2.320   0.493  15.291 -0.3972 -1.4464  0.3369
 1705TIP3   OH226605   5.465   2.152   2.721  0.4338 -0.0587 -0.1953
 1705TIP3    H126606   5.554   2.186   2.725 -0.0089  1.0919  0.2785
 1705TIP3    H226607   5.420   2.210   2.658 -0.2138 -0.0489  0.2655
 1706TIP3   OH226608   4.750   5.321   5.669  0.1589 -0.4809  0.1140
 1706TIP3    H126609   4.744   5.236   5.626  0.6080 -0.2337 -0.4654
 1706TIP3    H226610   4.745   5.384   5.597  1.1534 -0.0626  0.3872
 1707TIP3   OH226611   1.921   1.294  11.261 -0.0793 -0.3834 -0.1339
 1707TIP3    H126612   1.851   1.248  11.216 -2.5956  1.6283  1.4616
 1707TIP3    H226613   1.993   1.295  11.199 -1.8821 -1.4613 -2.3716
 1708TIP3   OH226614   5.011   4.032  16.742 -0.1363  0.0262  0.1441
 1708TIP3    H126615   5.002   4.027  16.646 -0.8512 -0.4413  0.2268
 1708TIP3    H226616   4.990   3.943  16.772 -0.2527  0.2634  0.7627
 1709TIP3   OH226617   6.411   1.213  16.227  0.3146 -0.4819  0.0889
 1709TIP3    H126618   6.334   1.270  16.223  0.4440  0.0246  3.0964
 1709TIP3    H226619   6.408   1.163  16.145 -1.5194  1.6266 -1.2324
 1710TIP3   OH226620   2.868   6.078   3.372  0.0141 -0.1904  0.1896
 1710TIP3    H126621   2.823   6.044   3.450  2.6092 -2.3166  0.8853
 1710TIP3    H226622   2.819   6.042   3.298  0.2558 -2.1314  0.9181
 1711TIP3   OH226623   4.962   3.151   3.099  0.0447  0.1613  0.2099
 1711TIP3    H126624   4.978   3.057   3.098  0.5744  0.2487  0.1466
 1711TIP3    H226625   4.953   3.174   3.006  0.9496  0.3362  0.1531
 1712TIP3   OH226626   3.270   6.310   5.838 -0.0268 -0.0087 -0.1048
 1712TIP3    H126627   3.318   6.365   5.900 -3.2993 -0.3626  3.0622
 1712TIP3    H226628   3.247   6.232   5.889 -2.7271 -0.4417 -1.8197
 1713TIP3   OH226629   3.480   5.758   5.480  0.1562  0.3524 -0.0503
 1713TIP3    H126630   3.418   5.758   5.408  1.7151  0.2658 -1.4639
 1713TIP3    H226631   3.445   5.821   5.543 -2.7481 -1.6947  0.5335
 1714TIP3   OH226632   4.801   4.270  15.084 -0.4995 -0.0677  0.3577
 1714TIP3    H126633   4.738   4.273  15.156  0.0652  0.3640  0.8474
 1714TIP3    H226634   4.806   4.178  15.060  1.4826 -0.7296  2.8613
 1715TIP3   OH226635   6.225   6.456   1.369  0.3177  0.1562 -0.1382
 1715TIP3    H126636   6.231   6.361   1.358  1.4811  0.2401 -0.3721
 1715TIP3    H226637   6.165   6.485   1.300  2.8858 -0.0156 -2.6359
 1716TIP3   OH226638   3.482   5.334  15.637  0.2949 -0.6525  0.4454
 1716TIP3    H126639   3.534   5.294  15.568 -0.1180  0.3711 -0.4803
 1716TIP3    H226640   3.544   5.392  15.683 -0.2509  1.6124 -1.5025
 1717TIP3   OH226641   4.880   5.967   2.578 -0.0613  0.4266 -0.0626
 1717TIP3    H126642   4.938   5.979   2.504 -0.2306  1.9059  0.0219
 1717TIP3    H226643   4.819   6.041   2.574 -2.0082 -1.0928 -0.1963
 1718TIP3   OH226644   3.401   2.144  15.635 -0.0803 -0.3593  0.4760
 1718TIP3    H126645   3.320   2.128  15.586 -0.4710 -0.5678  1.1621
 1718TIP3    H226646   3.377   2.213  15.698  0.8193  0.9949 -0.6015
 1719TIP3   OH226647   3.075   3.572   6.215  0.1389  0.1909  0.0658
 1719TIP3    H126648   3.112   3.620   6.142 -0.3713  0.5156  0.0147
 1719TIP3    H226649   3.108   3.616   6.293  0.5961 -0.0886  0.0303
 1720TIP3   OH226650   1.809   2.540  10.950 -0.4795 -0.0434  0.4730
 1720TIP3    H126651   1.808   2.591  10.869 -1.5467  0.0896  0.5575
 1720TIP3    H226652   1.717   2.527  10.971 -0.2215  0.2092  1.8472
 1721TIP3   OH226653   1.472   4.650   5.661 -0.5825 -0.4254  0.1926
 1721TIP3    H126654   1.377   4.664   5.664 -0.2093  2.7178  2.0272
 1721TIP3    H226655   1.485   4.563   5.699 -2.6712 -0.1750  1.6442
 1722TIP3   OH226656   6.619   1.228  17.043 -0.0639  0.5160 -0.1486
 1722TIP3    H126657   6.699   1.238  16.991 -0.5352  0.7411 -0.8347
 1722TIP3    H226658   6.566   1.304  17.022 -0.2967  0.5822  0.6181
 1723TIP3   OH226659   4.199   6.470   5.172 -0.1897 -0.2695  0.7626
 1723TIP3    H126660   4.228   6.402   5.232 -0.5411 -1.2041 -0.1089
 1723TIP3    H226661   4.279   6.515   5.145  0.3762 -2.1152 -0.7822
 1724TIP3   OH226662   4.802   1.104  11.382 -0.2544  0.1847  0.2105
 1724TIP3    H126663   4.875   1.163  11.364 -0.6401  0.1872 -1.5971
 1724TIP3    H226664   4.809   1.036  11.314 -2.2528  0.5158 -0.3931
 1725TIP3   OH226665   6.651   1.881  14.092  0.5045 -0.1782  0.4755
 1725TIP3    H126666   6.672   1.959  14.145 -0.1193 -1.2330  2.3726
 1725TIP3    H226667   6.735   1.855  14.055  0.5575  2.0349 -1.2125
 1726TIP3   OH226668   5.359   5.077   4.950 -0.1189  0.0114 -0.4190
 1726TIP3    H126669   5.455   5.075   4.947 -0.0919  0.7879 -0.1749
 1726TIP3    H226670   5.333   4.988   4.925  0.6900 -0.5828  0.7446
 1727TIP3   OH226671   4.737   2.339  13.231  0.5746 -0.2279  0.5379
 1727TIP3    H126672   4.769   2.323  13.142 -0.0841  0.5856  0.1380
 1727TIP3    H226673   4.661   2.282  13.241 -0.0925  0.5595  0.1181
 1728TIP3   OH226674   5.744   2.226  15.793 -0.2697  0.2680 -0.3073
 1728TIP3    H126675   5.727   2.297  15.855 -2.0967 -0.1697 -0.2556
 1728TIP3    H226676   5.670   2.229  15.732  1.7151  1.0673 -2.9070
 1729TIP3   OH226677   4.466   1.123   6.150  0.6218 -0.1835  0.1212
 1729TIP3    H126678   4.384   1.101   6.193 -0.9073 -2.7231 -3.5976
 1729TIP3    H226679   4.457   1.216   6.128 -2.1648 -0.7452 -1.6575
 1730TIP3   OH226680   3.347   1.745  15.933  0.5448  0.9988 -0.0093
 1730TIP3    H126681   3.349   1.654  15.904 -1.6641  0.7849  0.2756
 1730TIP3    H226682   3.276   1.785  15.882  2.2777  2.9535 -1.0507
 1731TIP3   OH226683   2.698   4.204  12.975 -0.0031 -0.4291 -0.3755
 1731TIP3    H126684   2.714   4.111  12.965 -0.2051 -0.5626  0.4244
 1731TIP3    H226685   2.609   4.218  12.942 -0.6210 -0.8347  1.0434
 1732TIP3   OH226686   0.080   0.227   3.856 -0.2819 -0.4510  0.1177
 1732TIP3    H126687   0.007   0.259   3.803 -1.3212 -1.8894  0.5991
 1732TIP3    H226688   0.116   0.154   3.807  1.9292  1.1773 -0.8691
 1733TIP3   OH226689   3.214   4.766   3.015 -0.2473 -0.1866 -0.1079
 1733TIP3    H126690   3.200   4.838   3.076 -1.7387  1.1828 -1.9739
 1733TIP3    H226691   3.171   4.691   3.056  1.3305 -0.1276  1.8615
 1734TIP3   OH226692   5.144   1.593   4.089 -0.3771  0.2366 -0.3726
 1734TIP3    H126693   5.189   1.636   4.162 -0.0572  1.3302 -1.1758
 1734TIP3    H226694   5.140   1.501   4.113  0.7284  0.4058  0.5219
 1735TIP3   OH226695   2.954   5.330   2.766  0.3179 -0.2107  0.4579
 1735TIP3    H126696   2.873   5.279   2.765  0.4740 -0.4884  1.1066
 1735TIP3    H226697   2.962   5.364   2.677 -1.5691  1.5535  0.9040
 1736TIP3   OH226698   3.169   6.188  13.803 -0.4150 -0.2185  0.1592
 1736TIP3    H126699   3.169   6.102  13.845 -1.3791 -0.5344 -0.4496
 1736TIP3    H226700   3.247   6.232  13.838  0.4316 -1.5484  0.0300
 1737TIP3   OH226701   2.345   3.209  13.047  0.2606  0.5327  0.4240
 1737TIP3    H126702   2.349   3.305  13.051  0.1213  0.7429 -2.2880
 1737TIP3    H226703   2.260   3.191  13.007  1.0370 -0.6087 -0.7880
 1738TIP3   OH226704   5.172   5.009  13.058 -0.7514  0.0803 -0.1974
 1738TIP3    H126705   5.193   5.100  13.041 -0.5163  0.0275 -0.1842
 1738TIP3    H226706   5.242   4.977  13.114 -2.0366  0.5245  1.7467
 1739TIP3   OH226707   5.841   5.266  14.898 -0.3894  0.4416 -0.2693
 1739TIP3    H126708   5.920   5.214  14.888 -0.2551  0.6522 -0.3226
 1739TIP3    H226709   5.815   5.254  14.989 -2.3490 -2.5283 -1.0816
 1740TIP3   OH226710   2.382   4.218  11.517 -0.2880 -0.6143 -0.3133
 1740TIP3    H126711   2.465   4.195  11.477 -0.4446 -1.2403 -0.2933
 1740TIP3    H226712   2.404   4.278  11.588  0.1198 -0.6051 -0.4500
 1741TIP3   OH226713   3.561   2.175  17.261 -0.8135  0.4296 -0.3512
 1741TIP3    H126714   3.591   2.148  17.348 -1.2117 -0.6058 -0.5280
 1741TIP3    H226715   3.470   2.147  17.257 -0.3886 -0.8961 -1.6469
 1742TIP3   OH226716   3.322   1.793   0.301 -0.1320 -0.1969 -0.1150
 1742TIP3    H126717   3.407   1.826   0.275 -0.2229  0.2307  0.1160
 1742TIP3    H226718   3.277   1.869   0.339 -0.6719 -0.3807 -0.3744
 1743TIP3   OH226719   5.051   0.187  16.117 -0.1115 -0.8300  0.8130
 1743TIP3    H126720   5.087   0.268  16.154  0.5865 -1.1394  0.8158
 1743TIP3    H226721   4.961   0.183  16.152  0.2996 -0.7585  1.9124
 1744TIP3   OH226722   5.353   2.070  15.877 -0.2307 -0.1196  0.2018
 1744TIP3    H126723   5.343   2.164  15.861 -1.8251 -0.3337 -0.1658
 1744TIP3    H226724   5.278   2.030  15.834  0.4208 -1.5752  0.3726
 1745TIP3   OH226725   3.995   2.005  14.962  0.2777 -0.4612  0.0624
 1745TIP3    H126726   4.018   2.062  15.036 -0.0456  1.9991 -1.6094
 1745TIP3    H226727   3.957   1.927  15.003  2.2045 -0.2430  2.5390
 1746TIP3   OH226728   5.065   3.267   4.564 -0.0785  0.3969  0.2078
 1746TIP3    H126729   5.092   3.267   4.472 -0.9580  2.6295 -0.1236
 1746TIP3    H226730   5.012   3.188   4.573 -1.0218  0.7621 -1.5689
 1747TIP3   OH226731   2.890   4.275  13.272  0.5723  0.1540  0.1790
 1747TIP3    H126732   2.835   4.345  13.305  0.1446  0.0981 -0.4110
 1747TIP3    H226733   2.903   4.295  13.179 -0.5774 -1.1769 -0.3128
 1748TIP3   OH226734   4.438   6.203  15.973 -0.1205 -0.2620 -0.2110
 1748TIP3    H126735   4.484   6.167  16.049  0.2720 -0.3681 -0.4973
 1748TIP3    H226736   4.345   6.198  15.997 -0.1603 -2.3612 -0.6157
 1749TIP3   OH226737   3.235   6.144  12.879  0.0590 -0.3566 -0.1428
 1749TIP3    H126738   3.223   6.056  12.914 -0.3205 -1.2794 -2.4446
 1749TIP3    H226739   3.183   6.146  12.799  1.3796  1.4158 -1.0431
 1750TIP3   OH226740   4.376   6.629   3.248  0.7707  0.6279  0.6297
 1750TIP3    H126741   4.453   6.614   3.302  0.6226 -0.4388  0.5779
 1750TIP3    H226742   4.373   6.552   3.190 -0.9320  0.0813  1.3780
 1751TIP3   OH226743   1.148   0.238   0.039  0.0493 -0.3173  0.0698
 1751TIP3    H126744   1.132   0.323  -0.002  0.5799  0.9383  2.2677
 1751TIP3    H226745   1.221   0.254   0.099  0.6373 -2.5204  0.0115
 1752TIP3   OH226746   3.637   5.458  10.724 -0.8707  0.8197  0.3215
 1752TIP3    H126747   3.684   5.511  10.789  0.1326  1.8676 -1.1783
 1752TIP3    H226748   3.700   5.448  10.652 -1.3704 -1.6675  0.1655
 1753TIP3   OH226749   1.676   0.774   1.009 -0.8077 -0.5149 -0.1257
 1753TIP3    H126750   1.705   0.685   1.027 -1.0056 -0.6371 -0.3937
 1753TIP3    H226751   1.652   0.809   1.095 -0.2357 -0.5375  0.0477
 1754TIP3   OH226752   4.174   5.013   0.496  0.1939 -0.0959 -0.0417
 1754TIP3    H126753   4.201   4.927   0.527 -0.2726  0.4141  1.9142
 1754TIP3    H226754   4.164   5.065   0.576  0.4825  1.7835 -1.1640
 1755TIP3   OH226755   3.306   6.284   4.806 -0.2656  0.0408  0.3904
 1755TIP3    H126756   3.236   6.250   4.863  0.3819 -2.7849 -0.3481
 1755TIP3    H226757   3.383   6.233   4.831  1.6332  3.1191  1.2215
 1756TIP3   OH226758   3.567   0.225   6.419 -0.5085  0.3360  0.2620
 1756TIP3    H126759   3.654   0.235   6.380 -0.0542 -0.8000  0.9444
 1756TIP3    H226760   3.536   0.141   6.387 -0.7203  0.0396  1.2265
 1757TIP3   OH226761   5.796   2.584   1.964  0.0989  0.1053  0.5112
 1757TIP3    H126762   5.769   2.519   1.899 -0.0095 -0.5457  1.1957
 1757TIP3    H226763   5.860   2.539   2.018  0.9491  0.9629  0.2481
 1758TIP3   OH226764   5.567   5.686   2.000  0.1413 -0.1336 -0.0734
 1758TIP3    H126765   5.663   5.686   2.001  0.1824  2.1542  0.4762
 1758TIP3    H226766   5.544   5.594   1.987  2.3980 -0.7345 -0.3072
 1759TIP3   OH226767   3.507   5.732  16.305 -0.1441  0.3698 -0.3312
 1759TIP3    H126768   3.537   5.643  16.327 -0.2279  0.3634 -0.2425
 1759TIP3    H226769   3.575   5.789  16.340 -1.4609  0.5174  2.2694
 1760TIP3   OH226770   0.109   2.192  10.870 -0.3487 -0.0294  0.2341
 1760TIP3    H126771   0.043   2.226  10.809 -1.6259 -2.4991  0.1112
 1760TIP3    H226772   0.065   2.192  10.955  0.1435  0.0260  0.4911
 1761TIP3   OH226773   5.386   6.294  13.406  0.2912 -0.1215  0.5262
 1761TIP3    H126774   5.400   6.386  13.385  0.2777 -0.2839 -0.2078
 1761TIP3    H226775   5.473   6.255  13.403  0.4071  0.0197  1.6349
 1762TIP3   OH226776   6.241   6.209  14.973  0.0473 -0.0215  0.0248
 1762TIP3    H126777   6.164   6.156  14.994 -0.7312  1.1984  0.3011
 1762TIP3    H226778   6.290   6.213  15.056  0.5632 -0.9990 -0.2114
 1763TIP3   OH226779   4.936   1.013   3.121 -0.2733 -0.1747 -0.5878
 1763TIP3    H126780   4.967   0.960   3.048  0.0361  0.7145 -1.1149
 1763TIP3    H226781   4.853   0.972   3.148  0.7852 -1.9399  0.1450
 1764TIP3   OH226782   4.045   2.001  13.367 -0.2953  0.4371 -0.1733
 1764TIP3    H126783   4.068   1.939  13.298  0.2911 -0.4374  0.7988
 1764TIP3    H226784   3.949   1.995  13.373 -0.5053  1.4746 -1.7666
 1765TIP3   OH226785   2.864   4.530   2.570 -0.0335 -0.0255 -0.7448
 1765TIP3    H126786   2.857   4.560   2.660  0.7047 -1.9756  0.0266
 1765TIP3    H226787   2.930   4.460   2.573 -1.6007 -1.6979 -2.3441
 1766TIP3   OH226788   3.699   3.787  15.294  0.3881 -0.5450  0.5230
 1766TIP3    H126789   3.657   3.748  15.217 -0.6877 -0.1031  0.8704
 1766TIP3    H226790   3.772   3.838  15.258  0.2938 -0.8629 -0.1394
 1767TIP3   OH226791   1.707   0.467  14.205  0.0146  0.2330 -0.1111
 1767TIP3    H126792   1.660   0.533  14.154  0.2570 -0.6891 -1.5921
 1767TIP3    H226793   1.758   0.518  14.268  1.8218  1.6739 -2.5338
 1768TIP3   OH226794   1.034   0.424   1.216 -0.1064  0.7698 -0.1454
 1768TIP3    H126795   1.005   0.487   1.282 -0.2949  0.2839  0.2438
 1768TIP3    H226796   0.957   0.368   1.202 -0.4155  1.5114 -1.5567
 1769TIP3   OH226797   1.332   5.077  12.916 -0.4060  0.2200 -0.0422
 1769TIP3    H126798   1.284   5.156  12.890 -0.0362  0.5345  0.2165
 1769TIP3    H226799   1.404   5.110  12.971 -0.4752 -0.3317  0.3828
 1770TIP3   OH226800   5.085   3.622   3.217  0.0308 -0.1405 -0.8385
 1770TIP3    H126801   5.060   3.703   3.172 -0.3755  0.4566  0.4166
 1770TIP3    H226802   5.138   3.651   3.291  1.4852 -1.1716 -1.4313
 1771TIP3   OH226803   3.359   1.901   6.572  0.1328  0.5877  0.2499
 1771TIP3    H126804   3.293   1.858   6.625  0.0408  1.1054  0.5618
 1771TIP3    H226805   3.368   1.845   6.494  0.0693 -0.0251  0.6741
 1772TIP3   OH226806   0.031   1.892  16.003  0.6227 -0.7722 -0.4577
 1772TIP3    H126807   0.124   1.908  16.017  0.5390  0.1323 -0.8860
 1772TIP3    H226808  -0.009   1.908  16.089  0.6978  0.1902 -0.5888
 1773TIP3   OH226809   0.598   1.980  15.397  0.2844  0.0031 -0.0251
 1773TIP3    H126810   0.507   1.952  15.397  0.7900 -2.2510 -3.6968
 1773TIP3    H226811   0.609   2.026  15.314  2.0341  2.3381  1.3540
 1774TIP3   OH226812   1.718   6.583   0.998 -0.0516 -0.4587  0.0708
 1774TIP3    H126813   1.785   6.577   0.931  0.9740  1.4785  0.8398
 1774TIP3    H226814   1.764   6.612   1.076 -1.7180  0.6169  0.7197
 1775TIP3   OH226815   6.030   4.426  15.643  0.3564 -0.2875 -0.5337
 1775TIP3    H126816   5.935   4.425  15.651  0.1582  2.8053 -1.3065
 1775TIP3    H226817   6.062   4.433  15.733 -0.3328  1.3478 -0.3731
 1776TIP3   OH226818   1.344   6.319  10.183 -0.5815  0.3168 -0.2249
 1776TIP3    H126819   1.403   6.243  10.180  0.1222  0.7584  1.5516
 1776TIP3    H226820   1.259   6.283  10.157  0.1659 -0.6116 -1.5272
 1777TIP3   OH226821   4.304   5.442  10.382  0.3202 -0.4814  0.3868
 1777TIP3    H126822   4.235   5.463  10.445  0.9576 -4.7845  2.9445
 1777TIP3    H226823   4.259   5.396  10.311  0.0010  1.8158 -1.0252
 1778TIP3   OH226824   3.315   6.101  16.481  0.0958  0.0487 -0.3835
 1778TIP3    H126825   3.370   6.068  16.552  0.5201  0.1675 -0.6542
 1778TIP3    H226826   3.267   6.173  16.520  2.1539  1.7718 -0.8419
 1779TIP3   OH226827   6.451   5.603  15.440  0.7607 -0.3324  0.0144
 1779TIP3    H126828   6.379   5.634  15.495  1.3192  0.3266  0.3926
 1779TIP3    H226829   6.417   5.611  15.350  0.1302 -0.6655  0.2178
 1780TIP3   OH226830   5.813   3.430   4.097 -0.3941 -0.0528 -0.2158
 1780TIP3    H126831   5.764   3.347   4.096 -2.7232  1.1800  1.5717
 1780TIP3    H226832   5.805   3.461   4.187  3.7389  0.3459  0.1709
 1781TIP3   OH226833   5.517   4.277   6.204  0.3787  0.6133  0.3910
 1781TIP3    H126834   5.466   4.355   6.184  0.6285  0.3951 -1.1680
 1781TIP3    H226835   5.530   4.234   6.120  2.1924  0.0712  0.9051
 1782TIP3   OH226836   2.427   5.616  11.851 -0.1145 -0.5482 -0.6238
 1782TIP3    H126837   2.431   5.536  11.798  1.0322  0.1589 -1.6544
 1782TIP3    H226838   2.416   5.686  11.787  3.2480  0.5452 -0.2187
 1783TIP3   OH226839   3.027   5.712  14.423  0.6669 -0.2898  0.0946
 1783TIP3    H126840   2.941   5.712  14.381  0.9536  0.7187 -0.5287
 1783TIP3    H226841   3.088   5.697  14.351  1.0447 -0.4984  0.4594
 1784TIP3   OH226842   6.624   2.414   0.692 -0.3697  0.1798  0.3135
 1784TIP3    H126843   6.538   2.453   0.708 -0.0243  0.6866  0.9827
 1784TIP3    H226844   6.649   2.447   0.605 -0.3019  1.0701  0.6549
 1785TIP3   OH226845   4.088   5.155   4.579 -0.2904 -0.3537  0.3067
 1785TIP3    H126846   4.058   5.224   4.639  2.0023  1.1413 -0.1629
 1785TIP3    H226847   4.075   5.192   4.492  2.1550  0.1432  0.0703
 1786TIP3   OH226848   0.370   1.815   3.218  0.3261  0.1085 -0.4797
 1786TIP3    H126849   0.317   1.895   3.222  2.3900  1.5067  0.6991
 1786TIP3    H226850   0.307   1.744   3.230 -1.5335  1.5440 -1.1643
 1787TIP3   OH226851   1.246   5.447   6.456 -0.4605 -0.4659 -0.4498
 1787TIP3    H126852   1.267   5.354   6.449 -0.8921 -0.5416 -0.7634
 1787TIP3    H226853   1.194   5.454   6.537  0.9139 -0.2464  0.4393
 1788TIP3   OH226854   3.452   3.183  12.837  1.0067  0.2450  0.5826
 1788TIP3    H126855   3.528   3.174  12.779 -0.1740 -2.6043 -0.7128
 1788TIP3    H226856   3.393   3.242  12.789  2.1390  2.1680  1.4263
 1789TIP3   OH226857   1.639   1.771  14.878  0.3494 -0.3988  1.1632
 1789TIP3    H126858   1.639   1.851  14.930  0.2598 -0.6459  1.5476
 1789TIP3    H226859   1.684   1.795  14.797 -0.4298  0.2633  0.9206
 1790TIP3   OH226860   0.437   2.341  16.127 -0.5998 -0.6342  0.4408
 1790TIP3    H126861   0.483   2.418  16.094 -0.8878 -1.1011 -1.1107
 1790TIP3    H226862   0.452   2.344  16.222 -0.6229  1.3303  0.4342
 1791TIP3   OH226863   1.288   0.854   0.566 -0.0800  0.2286  0.0092
 1791TIP3    H126864   1.350   0.921   0.538  0.8203 -0.3124  0.6447
 1791TIP3    H226865   1.343   0.781   0.594 -1.0320 -0.7684 -0.6419
 1792TIP3   OH226866   4.661   1.403  13.935  0.0047  0.2683 -0.7465
 1792TIP3    H126867   4.703   1.323  13.965 -2.3744 -0.9660 -0.4601
 1792TIP3    H226868   4.678   1.467  14.005  0.0343 -0.6503  0.0979
 1793TIP3   OH226869   2.993   6.501  13.599 -0.2798  0.1524  0.3937
 1793TIP3    H126870   3.048   6.577  13.615  1.0521 -1.0075  1.6553
 1793TIP3    H226871   3.041   6.451  13.533 -2.1801  1.3500 -2.0545
 1794TIP3   OH226872   4.004   1.309  16.998  0.2391  0.4584  0.3917
 1794TIP3    H126873   4.009   1.274  17.087  1.5550 -0.5861 -0.0699
 1794TIP3    H226874   4.081   1.274  16.953 -0.5413  0.7439 -1.2551
 1795TIP3   OH226875   3.965   6.329   0.967 -0.4808  0.2043  0.2446
 1795TIP3    H126876   4.044   6.276   0.961 -2.0593 -2.3266  0.0351
 1795TIP3    H226877   3.902   6.273   1.013 -1.9030  2.4615  1.2378
 1796TIP3   OH226878   5.261   0.732  14.251 -0.1985 -0.1794 -0.4383
 1796TIP3    H126879   5.194   0.768  14.308 -0.6428 -1.2525 -0.2580
 1796TIP3    H226880   5.213   0.679  14.187  0.2976  0.8585 -1.7236
 1797TIP3   OH226881   6.368   5.707   0.088  0.0743 -0.3495 -0.2079
 1797TIP3    H126882   6.276   5.691   0.111  0.2895 -1.2072  0.1101
 1797TIP3    H226883   6.411   5.722   0.172  0.0382  1.2363 -0.4309
 1798TIP3   OH226884   0.728   0.966   4.721 -0.3439  0.2606 -0.0275
 1798TIP3    H126885   0.749   0.875   4.740 -0.8028 -0.1784 -1.4213
 1798TIP3    H226886   0.662   0.990   4.786 -0.1678 -0.3884  0.3945
 1799TIP3   OH226887   1.185   5.452   1.891  0.1809  0.0664 -0.3008
 1799TIP3    H126888   1.277   5.431   1.904  0.4815  1.7531  0.6171
 1799TIP3    H226889   1.185   5.527   1.832 -0.5071  0.9144  0.7302
 1800TIP3   OH226890   1.765   4.491   2.243  0.0106 -0.0875 -0.1976
 1800TIP3    H126891   1.740   4.545   2.168  0.2922 -1.0701 -1.0268
 1800TIP3    H226892   1.696   4.425   2.249 -0.5519  0.5965  1.0662
 1801TIP3   OH226893   5.536   2.281   6.120  0.0510 -0.4513 -0.2768
 1801TIP3    H126894   5.545   2.360   6.174  0.3044 -1.1855  0.7952
 1801TIP3    H226895   5.562   2.309   6.032  2.2262  0.1764  0.4997
 1802TIP3   OH226896   4.636   2.841  11.843 -0.1300 -0.2899  0.2707
 1802TIP3    H126897   4.722   2.824  11.881 -0.4372 -0.8713  0.7139
 1802TIP3    H226898   4.631   2.781  11.768 -0.5216 -0.9366  0.8063
 1803TIP3   OH226899   5.650   0.420   0.494  0.4064 -0.0576 -0.1885
 1803TIP3    H126900   5.713   0.353   0.521 -0.8329 -1.0062  0.4392
 1803TIP3    H226901   5.695   0.503   0.509  1.2427 -0.6909  0.9172
 1804TIP3   OH226902   5.289   4.308   6.026 -0.0321  0.7311  0.4736
 1804TIP3    H126903   5.291   4.402   6.008 -0.0839  0.4410 -1.1914
 1804TIP3    H226904   5.300   4.266   5.940  1.7931 -0.7926  1.3619
 1805TIP3   OH226905   3.581   1.279   5.288 -0.5701  0.0957 -0.1178
 1805TIP3    H126906   3.553   1.328   5.211 -0.0673 -1.7862 -1.5632
 1805TIP3    H226907   3.675   1.269   5.278 -0.3950  0.3627  1.1010
 1806TIP3   OH226908   4.595   3.564   5.932 -0.2358 -0.0358 -0.1237
 1806TIP3    H126909   4.509   3.576   5.971 -0.5047  0.4038 -0.8254
 1806TIP3    H226910   4.617   3.650   5.895  0.1020 -0.3761 -0.7343
 1807TIP3   OH226911   0.680   3.154   4.627 -0.4548 -0.2589 -0.3377
 1807TIP3    H126912   0.604   3.213   4.624 -0.6409 -0.5220 -3.3848
 1807TIP3    H226913   0.735   3.182   4.554  2.0712 -0.5859  1.3053
 1808TIP3   OH226914   0.561   6.115  13.374 -0.2469  0.0364 -0.0731
 1808TIP3    H126915   0.528   6.163  13.298 -0.2910 -1.2610 -0.9123
 1808TIP3    H226916   0.484   6.067  13.407  0.3800 -1.8074 -1.1161
 1809TIP3   OH226917   5.526   5.896   3.489 -0.0389  0.4820  0.6928
 1809TIP3    H126918   5.537   5.827   3.424  0.3518 -1.6641  2.9035
 1809TIP3    H226919   5.485   5.968   3.441  1.7964 -0.2789 -2.3034
 1810TIP3   OH226920   0.467   1.054  15.295 -0.3816  0.4623 -0.1162
 1810TIP3    H126921   0.541   0.997  15.276  0.1229  0.3130  2.0206
 1810TIP3    H226922   0.402   1.034  15.227  0.1001 -2.0535  0.0756
 1811TIP3   OH226923   4.480   2.756  15.472 -0.1413  0.1016 -0.2946
 1811TIP3    H126924   4.493   2.768  15.377 -0.4674  1.7344 -0.1663
 1811TIP3    H226925   4.569   2.754  15.508 -0.0205 -0.2362 -0.6099
 1812TIP3   OH226926   3.952   6.525   5.504 -0.2825 -0.0306  0.2038
 1812TIP3    H126927   3.943   6.604   5.557 -1.7432  0.1867 -0.3276
 1812TIP3    H226928   3.902   6.459   5.552 -1.1637  0.0296 -0.6084
 1813TIP3   OH226929   4.218   4.005   3.933  0.1034 -0.5411  0.2593
 1813TIP3    H126930   4.136   3.969   3.897  0.6720 -1.4458 -0.1752
 1813TIP3    H226931   4.205   4.003   4.028 -0.6664  0.0382  0.1724
 1814TIP3   OH226932   5.229   3.801  16.157  0.0935 -0.0740  0.3247
 1814TIP3    H126933   5.279   3.764  16.229  3.4825  0.7929 -1.3642
 1814TIP3    H226934   5.236   3.737  16.087 -0.8992  0.2377 -0.0816
 1815TIP3   OH226935   5.973   6.015  13.960 -0.5222 -0.0964 -0.4877
 1815TIP3    H126936   6.042   6.061  13.912 -0.1966 -2.3901 -2.3648
 1815TIP3    H226937   5.901   6.078  13.963  0.8229  1.5358 -0.4484
 1816TIP3   OH226938   2.198   6.470  15.302  0.1636  0.3812  0.1140
 1816TIP3    H126939   2.132   6.538  15.314 -0.3373  0.1160 -1.0735
 1816TIP3    H226940   2.230   6.453  15.391 -0.9346  0.9262  0.6392
 1817TIP3   OH226941   2.120   2.535   1.160 -0.7388 -1.1937 -0.3702
 1817TIP3    H126942   2.042   2.483   1.138 -0.2494 -1.0033 -2.7726
 1817TIP3    H226943   2.137   2.587   1.082 -1.3873  2.9318  1.9651
 1818TIP3   OH226944   4.801   3.675  11.201  0.4692 -0.7363 -0.4255
 1818TIP3    H126945   4.878   3.670  11.145  0.8912 -1.5066  0.1939
 1818TIP3    H226946   4.770   3.585  11.208 -1.3142 -0.2959 -1.7432
 1819TIP3   OH226947   0.012   0.991   4.787 -0.2491  0.3030 -0.1848
 1819TIP3    H126948   0.010   1.086   4.782 -0.2304  0.2634 -1.0179
 1819TIP3    H226949   0.102   0.970   4.811 -0.2421  0.4921 -0.0479
 1820TIP3   OH226950   0.972   5.905   4.380  0.3715  0.0505  0.0543
 1820TIP3    H126951   1.014   5.867   4.456 -0.6371 -0.3758  0.4169
 1820TIP3    H226952   0.883   5.925   4.409  0.8799  2.8147 -0.0866
 1821TIP3   OH226953   0.649   5.647   5.394 -0.0182 -0.7278 -0.8676
 1821TIP3    H126954   0.737   5.608   5.392  0.0049 -0.6530 -1.5650
 1821TIP3    H226955   0.601   5.593   5.457  1.3841  1.1458  2.0089
 1822TIP3   OH226956   6.213   2.081   0.161  0.4411 -0.1243 -0.0279
 1822TIP3    H126957   6.144   2.145   0.180  1.7817  0.9584  1.6160
 1822TIP3    H226958   6.198   2.011   0.224  0.9947  0.2738  0.5650
 1823TIP3   OH226959   6.134   5.577   0.286  0.0135  1.0634 -0.1727
 1823TIP3    H126960   6.217   5.580   0.334  0.4299 -0.0392 -0.8011
 1823TIP3    H226961   6.067   5.580   0.354  0.5820  0.4313  0.4344
 1824TIP3   OH226962   2.048   2.764   6.102  0.8887  0.0898  0.3608
 1824TIP3    H126963   1.971   2.735   6.054  1.0018  2.5291 -1.5198
 1824TIP3    H226964   2.017   2.839   6.154  2.1438  2.0620 -1.5486
 1825TIP3   OH226965   0.914   3.109  14.091  0.4964  0.1004  0.3098
 1825TIP3    H126966   1.004   3.136  14.072  0.9313  2.2633  4.2789
 1825TIP3    H226967   0.859   3.171  14.042  1.2474  0.6384  0.1352
 1826TIP3   OH226968   3.105   5.682  12.343  0.3129  0.4615 -0.0917
 1826TIP3    H126969   3.150   5.734  12.409 -0.0748  0.2266  0.3663
 1826TIP3    H226970   3.139   5.593  12.354 -0.7794  0.1207  0.7663
 1827TIP3   OH226971   5.037   1.465  14.804  0.3541  0.0040  0.0444
 1827TIP3    H126972   4.987   1.428  14.878  0.4422 -0.0154  0.0950
 1827TIP3    H226973   5.003   1.553  14.794  2.1109  0.9799  1.8064
 1828TIP3   OH226974   3.915   3.529  14.412 -0.4079  0.6207  0.4847
 1828TIP3    H126975   3.917   3.613  14.458  2.3249  0.1626  1.3713
 1828TIP3    H226976   3.990   3.533  14.352 -0.1888 -1.1723  0.5891
 1829TIP3   OH226977   4.122   5.338   0.844  0.2330 -0.3435  0.0951
 1829TIP3    H126978   4.082   5.252   0.836 -0.9559  0.2311 -0.4178
 1829TIP3    H226979   4.105   5.381   0.760  1.3471  0.1828  0.1115
 1830TIP3   OH226980   2.863   2.003   5.003 -0.2884  0.1800 -0.0388
 1830TIP3    H126981   2.939   2.046   4.964 -0.1097 -0.2116 -0.1281
 1830TIP3    H226982   2.793   2.067   4.996 -0.7023 -0.4495 -2.5085
 1831TIP3   OH226983   3.462   6.422  15.340 -0.4283  0.4533  0.5477
 1831TIP3    H126984   3.528   6.480  15.376 -0.5856  1.5168 -0.8015
 1831TIP3    H226985   3.498   6.393  15.256 -1.0639 -0.0879  0.4485
 1832TIP3   OH226986   4.916   1.462  16.165  0.1275 -0.3275 -0.4303
 1832TIP3    H126987   4.868   1.380  16.174 -1.7430  0.5938 -1.4718
 1832TIP3    H226988   4.992   1.451  16.222  0.7232 -3.3197 -1.6113
 1833TIP3   OH226989   2.358   5.981  14.618 -0.4423  0.0504  0.7615
 1833TIP3    H126990   2.268   5.990  14.649 -0.0711  2.2289  1.3515
 1833TIP3    H226991   2.412   6.014  14.690  0.7818 -0.1555 -0.0228
 1834TIP3   OH226992   6.760   3.049  14.239  0.3544  0.0850  0.4152
 1834TIP3    H126993   6.753   3.058  14.144 -0.4578  0.5868  0.5112
 1834TIP3    H226994   6.678   3.007  14.265 -0.6701  2.4172  1.1777
 1835TIP3   OH226995   4.992   4.956   0.277  0.3483  0.2666 -0.0088
 1835TIP3    H126996   5.029   4.901   0.346 -0.6996 -0.2773  0.1395
 1835TIP3    H226997   4.935   4.897   0.227  0.7692  0.7490 -1.0944
 1836TIP3   OH226998   4.532   1.654  16.801 -0.2063 -0.3604  0.1874
 1836TIP3    H126999   4.486   1.592  16.857 -0.6466 -0.4016 -0.2076
 1836TIP3    H227000   4.571   1.600  16.732 -1.1734 -0.1437 -0.5489
 1837TIP3   OH227001   1.009   3.150  16.513 -0.2786 -0.0692 -0.2443
 1837TIP3    H127002   1.073   3.199  16.463 -0.3994  0.0927 -0.2415
 1837TIP3    H227003   0.963   3.216  16.565 -0.8672 -0.1045 -0.7082
 1838TIP3   OH227004   5.093   2.860   5.309 -0.0021 -0.0381  0.4669
 1838TIP3    H127005   5.097   2.905   5.225  0.4316  0.4203  0.7255
 1838TIP3    H227006   5.009   2.885   5.347 -0.4424 -0.6817 -0.0613
 1839TIP3   OH227007   2.595   2.361  15.498 -0.4776 -0.2316  0.8565
 1839TIP3    H127008   2.637   2.435  15.454 -1.1329  0.2813  1.0736
 1839TIP3    H227009   2.508   2.393  15.521 -0.4844 -0.8047  1.6790
 1840TIP3   OH227010   6.460   6.559  14.373  0.0619  0.0614  0.1460
 1840TIP3    H127011   6.518   6.505  14.321 -1.8946 -0.2824 -1.8179
 1840TIP3    H227012   6.398   6.497  14.412  1.4891  0.3017  3.0336
 1841TIP3   OH227013   2.757   0.805   4.306  0.0609 -0.1115  0.3338
 1841TIP3    H127014   2.776   0.788   4.399  0.6923 -0.1026  0.2108
 1841TIP3    H227015   2.773   0.899   4.296  0.2181 -0.1570  0.1642
 1842TIP3   OH227016   2.503   5.727  15.037  0.3055 -0.1695  0.2416
 1842TIP3    H127017   2.430   5.756  14.983 -0.3276  0.1633  1.2568
 1842TIP3    H227018   2.579   5.733  14.979 -0.0591  1.9333 -0.1032
 1843TIP3   OH227019   5.922   4.690  17.258  0.3842  0.5111  0.2076
 1843TIP3    H127020   5.876   4.671  17.177  2.0675 -0.3402 -0.5914
 1843TIP3    H227021   5.854   4.688  17.325 -1.4106  3.1423 -1.3400
 1844TIP3   OH227022   5.133   2.821  13.835  0.3475  0.1023  0.2337
 1844TIP3    H127023   5.128   2.908  13.794  0.4375 -0.0190 -0.0333
 1844TIP3    H227024   5.043   2.803  13.863  0.0763 -0.2478 -0.8083
 1845TIP3   OH227025   2.356   5.391   6.816  0.4896 -0.2559 -0.0444
 1845TIP3    H127026   2.443   5.365   6.786  0.4386 -1.0552  0.4620
 1845TIP3    H227027   2.355   5.486   6.809  1.3299 -0.2571 -0.2565
 1846TIP3   OH227028   5.051   2.525  12.510  0.1160 -0.3773 -0.0526
 1846TIP3    H127029   5.133   2.561  12.477  0.8558 -0.9209  1.1188
 1846TIP3    H227030   5.045   2.557  12.600 -2.3598  1.9312 -0.9056
 1847TIP3   OH227031   6.050   6.440   3.125  0.4416  0.0720 -0.0354
 1847TIP3    H127032   6.072   6.482   3.041 -1.1600  1.2567  0.0878
 1847TIP3    H227033   5.986   6.373   3.102 -0.3850  0.7390  0.2716
 1848TIP3   OH227034   1.251   0.419   4.438  0.4645  0.1704 -0.2253
 1848TIP3    H127035   1.194   0.481   4.483  0.0205  0.9261 -1.7561
 1848TIP3    H227036   1.335   0.464   4.432  0.7311 -0.2193  0.4462
 1849TIP3   OH227037   4.102   1.999  12.381 -0.5703 -0.4234  0.4361
 1849TIP3    H127038   4.122   2.080  12.334 -0.8526 -0.4659  0.2345
 1849TIP3    H227039   4.009   2.006  12.401 -0.4410 -0.3917  1.0283
 1850TIP3   OH227040   2.511   6.653   6.336  0.3288  0.0670  0.4167
 1850TIP3    H127041   2.512   6.664   6.241 -0.1892 -0.2388  0.3658
 1850TIP3    H227042   2.506   6.741   6.371 -1.9500  0.1377  0.0820
 1851TIP3   OH227043   0.545   1.305   5.573 -0.5019  0.6486 -0.0017
 1851TIP3    H127044   0.544   1.371   5.643 -0.1244  0.9247 -0.2510
 1851TIP3    H227045   0.455   1.273   5.568 -0.4436  0.3198  0.8991
 1852TIP3   OH227046   1.387   6.085   0.991 -0.0698 -0.2148  0.1078
 1852TIP3    H127047   1.313   6.100   0.932 -0.6276  2.1453  1.2879
 1852TIP3    H227048   1.463   6.118   0.945 -0.1133 -0.5214 -0.1891
 1853TIP3   OH227049   5.278   3.101  15.936  0.2850 -0.7464  0.1550
 1853TIP3    H127050   5.203   3.109  15.877  1.1102 -0.4004 -0.8792
 1853TIP3    H227051   5.251   3.148  16.015 -0.4608 -0.3496 -0.3247
 1854TIP3   OH227052   5.134   6.127   5.868  0.8375  0.5840  0.7771
 1854TIP3    H127053   5.107   6.043   5.832 -0.4261  0.6410  1.5158
 1854TIP3    H227054   5.087   6.133   5.952  1.7390  1.5493  1.2421
 1855TIP3   OH227055   2.195   4.122   1.030  0.2494 -0.1891 -0.1367
 1855TIP3    H127056   2.198   4.113   1.125  0.3758 -3.0423 -0.3090
 1855TIP3    H227057   2.110   4.160   1.012  0.5030  1.0435  1.1301
 1856TIP3   OH227058   0.179   1.067  14.136  0.2625  0.9271 -0.4564
 1856TIP3    H127059   0.231   0.986  14.132  1.6349  1.8133 -2.3512
 1856TIP3    H227060   0.088   1.038  14.133  0.5959 -0.6296  1.6717
 1857TIP3   OH227061   6.519   0.837   0.773 -0.7618 -0.0361  0.2509
 1857TIP3    H127062   6.584   0.837   0.842 -0.1998  1.2000 -0.2341
 1857TIP3    H227063   6.464   0.913   0.792 -1.4727 -0.5091  0.1233
 1858TIP3   OH227064   3.000   6.448   1.151  0.6050 -0.0635  0.0572
 1858TIP3    H127065   2.944   6.430   1.226  1.0492  2.8002  1.1754
 1858TIP3    H227066   3.087   6.417   1.177  0.8010  1.1148  0.8221
 1859TIP3   OH227067   5.587   1.686  17.312 -0.2359 -0.1085 -0.0912
 1859TIP3    H127068   5.519   1.717  17.252  2.7127  2.0026 -2.7036
 1859TIP3    H227069   5.561   1.721  17.398 -1.4766  2.4031 -1.3631
 1860TIP3   OH227070   1.692   2.712   5.608 -0.0224 -0.2278 -0.1989
 1860TIP3    H127071   1.752   2.774   5.568 -0.2989  0.3543  0.2637
 1860TIP3    H227072   1.622   2.767   5.645 -0.0321 -0.7790  0.6314
 1861TIP3   OH227073   4.387   2.204   1.078  0.0279 -0.0909  0.0819
 1861TIP3    H127074   4.470   2.182   1.036  0.1680 -0.0047  0.3127
 1861TIP3    H227075   4.403   2.193   1.171  0.4150  1.9414  0.3105
 1862TIP3   OH227076   5.807   0.216  15.443 -0.2906  0.0910 -0.0745
 1862TIP3    H127077   5.722   0.193  15.408 -0.9927  1.5960  0.5201
 1862TIP3    H227078   5.787   0.266  15.523  1.1496  0.0566  0.3392
 1863TIP3   OH227079   3.635   5.631  16.031 -0.2991 -0.0332 -0.2832
 1863TIP3    H127080   3.595   5.546  16.048  1.2058 -0.4713  1.3881
 1863TIP3    H227081   3.696   5.615  15.959 -1.8270  0.2568 -1.6937
 1864TIP3   OH227082   4.874   4.501   0.678 -0.1451  0.2460 -0.0426
 1864TIP3    H127083   4.893   4.594   0.688  0.8386  0.5984 -3.7318
 1864TIP3    H227084   4.779   4.497   0.667 -0.2921  0.6631  0.9762
 1865TIP3   OH227085   0.541   2.162   5.414  0.4879 -0.1689  0.6324
 1865TIP3    H127086   0.526   2.230   5.480 -0.8792 -1.4090  1.6511
 1865TIP3    H227087   0.635   2.166   5.397  0.4633  1.9242  0.6848
 1866TIP3   OH227088   0.280   1.411   3.205  0.2747 -0.3209  0.3100
 1866TIP3    H127089   0.364   1.456   3.217  1.4687 -2.5323  0.6955
 1866TIP3    H227090   0.300   1.319   3.218 -2.4587 -0.8329  1.5749
 1867TIP3   OH227091   1.991   2.305   4.679  0.2567 -0.8451  0.5163
 1867TIP3    H127092   1.930   2.358   4.627  2.1893  1.1366  0.1098
 1867TIP3    H227093   1.957   2.216   4.673 -2.1941  0.0688 -0.2191
 1868TIP3   OH227094   2.767   4.546   1.351  0.2727  0.0604 -0.3903
 1868TIP3    H127095   2.803   4.629   1.320 -0.1385  0.4798  0.2291
 1868TIP3    H227096   2.835   4.482   1.332  2.2186  1.0879  2.4060
 1869TIP3   OH227097   2.502   5.091  13.511 -0.4051  1.1362 -0.1155
 1869TIP3    H127098   2.421   5.041  13.499  0.8831 -0.8335 -1.1658
 1869TIP3    H227099   2.566   5.047  13.454  1.9365  1.3589  2.1521
 1870TIP3   OH227100   0.081   2.849   4.048  0.1212  0.1424 -0.3490
 1870TIP3    H127101   0.110   2.759   4.035  1.3853  0.3154  0.9823
 1870TIP3    H227102   0.109   2.895   3.969  0.6823 -0.3738 -0.4593
 1871TIP3   OH227103   5.482   3.853   3.940 -0.1203  0.9507  0.6588
 1871TIP3    H127104   5.427   3.831   4.015  1.2330 -0.5087  1.2767
 1871TIP3    H227105   5.560   3.798   3.950  0.1673  0.8016 -1.7363
 1872TIP3   OH227106   4.171   1.678  14.535  0.2744 -0.2489 -0.2026
 1872TIP3    H127107   4.090   1.629  14.538 -0.2187  0.4670 -1.0761
 1872TIP3    H227108   4.239   1.614  14.554 -0.4734 -0.9016  0.3157
 1873TIP3   OH227109   3.617   6.725   0.469  0.3999 -0.3961 -0.3714
 1873TIP3    H127110   3.613   6.644   0.520 -0.5600  0.0624  0.3075
 1873TIP3    H227111   3.684   6.777   0.513  0.6576 -0.6110 -0.5044
 1874TIP3   OH227112   3.969   2.577  16.964  0.0560  0.3241  0.3608
 1874TIP3    H127113   3.985   2.630  16.886 -1.1418 -0.2407 -0.2883
 1874TIP3    H227114   4.053   2.577  17.010  1.1707 -0.3853 -1.5603
 1875TIP3   OH227115   4.662   6.185   6.361 -0.4611 -0.5809  0.3839
 1875TIP3    H127116   4.596   6.215   6.423  0.3309  0.3500  0.8160
 1875TIP3    H227117   4.689   6.100   6.395  0.0251 -0.0503  1.3973
 1876TIP3   OH227118   0.102   1.514  13.075  0.0518  0.4491  0.1675
 1876TIP3    H127119   0.108   1.432  13.027  2.1847  1.5930 -1.7428
 1876TIP3    H227120   0.191   1.529  13.108 -0.4175  1.7115  0.9366
 1877TIP3   OH227121   3.209   3.840   1.183 -0.6207 -0.3792 -0.3128
 1877TIP3    H127122   3.232   3.865   1.093 -1.5356  0.2718 -0.3714
 1877TIP3    H227123   3.241   3.912   1.237  1.8701 -1.7179  0.1670
 1878TIP3   OH227124   2.467   0.995   1.143 -0.4076  0.1487  0.2512
 1878TIP3    H127125   2.541   1.028   1.093 -1.3481 -0.4640 -1.6510
 1878TIP3    H227126   2.403   1.066   1.142 -1.0028 -0.3766 -0.7228
 1879TIP3   OH227127   5.458   0.517   5.880 -0.2956 -0.2407 -0.4636
 1879TIP3    H127128   5.505   0.481   5.805 -0.7797  0.4441 -1.1189
 1879TIP3    H227129   5.504   0.598   5.901 -0.3406 -0.2789 -0.2086
 1880TIP3   OH227130   3.266   1.112  11.814  0.1546 -0.4201  0.3583
 1880TIP3    H127131   3.262   1.167  11.892  4.4159 -0.9447  1.1796
 1880TIP3    H227132   3.321   1.160  11.752  0.9510 -2.1312 -0.3466
 1881TIP3   OH227133   2.141   5.233  13.547  0.3702  0.0347  0.2364
 1881TIP3    H127134   2.136   5.177  13.470  0.9836  0.2034  0.0644
 1881TIP3    H227135   2.225   5.210  13.587 -0.1155 -0.3236  1.0687
 1882TIP3   OH227136   3.800   6.422  16.425 -0.5687 -0.1122 -0.2137
 1882TIP3    H127137   3.785   6.355  16.492  0.6664  0.3378  0.5390
 1882TIP3    H227138   3.894   6.435  16.425 -0.7453  1.2734 -0.7014
 1883TIP3   OH227139   5.945   5.044   3.013  0.4958  0.1939  0.5410
 1883TIP3    H127140   6.027   5.090   2.994  0.1285  1.0785  1.0294
 1883TIP3    H227141   5.953   5.014   3.104  0.1827  0.5045  0.6753
 1884TIP3   OH227142   0.605   0.512   2.293  0.4676  0.1216 -0.1444
 1884TIP3    H127143   0.651   0.450   2.237 -0.0939 -0.9582  0.5667
 1884TIP3    H227144   0.621   0.481   2.382  1.4417  1.8788  0.3448
 1885TIP3   OH227145   1.809   5.397  14.418  0.0667  0.5257 -0.4591
 1885TIP3    H127146   1.715   5.385  14.434  0.4304 -1.4358  0.5157
 1885TIP3    H227147   1.847   5.404  14.505  0.7633  2.3358 -0.8619
 1886TIP3   OH227148   0.111   5.402   5.938 -0.1731  0.2363 -0.4466
 1886TIP3    H127149   0.023   5.385   5.973 -0.3159  5.0266  2.3996
 1886TIP3    H227150   0.095   5.457   5.861  0.3588 -0.2751 -0.9304
 1887TIP3   OH227151   3.004   3.382  12.082 -0.1668  0.5855 -0.7332
 1887TIP3    H127152   2.923   3.333  12.066  0.0900 -0.5130  1.0756
 1887TIP3    H227153   3.073   3.316  12.076  0.4480  1.2135 -0.6670
 1888TIP3   OH227154   5.141   3.267   5.857  0.9093 -0.3535  0.2184
 1888TIP3    H127155   5.138   3.349   5.905  0.4745  0.1312 -0.6130
 1888TIP3    H227156   5.105   3.288   5.771  0.1705 -1.5631  0.2064
 1889TIP3   OH227157   3.455   4.880  16.921  0.0883  1.0547  0.3296
 1889TIP3    H127158   3.463   4.808  16.857  0.6383  1.6332 -0.2663
 1889TIP3    H227159   3.451   4.835  17.006  2.8552  0.3415  0.1908
 1890TIP3   OH227160   4.030   3.826  13.635 -0.2643  0.6985 -0.1566
 1890TIP3    H127161   3.937   3.849  13.634 -0.0932  1.4166  0.0042
 1890TIP3    H227162   4.045   3.782  13.551 -1.3437 -1.9259  0.9048
 1891TIP3   OH227163   5.896   0.220   5.347 -0.1039 -0.4764 -0.0014
 1891TIP3    H127164   5.856   0.257   5.268 -0.2852 -0.9934 -0.1608
 1891TIP3    H227165   5.976   0.271   5.360 -1.6160  1.7058  1.3018
 1892TIP3   OH227166   2.112   5.339  16.253  0.0788 -0.0512  0.2355
 1892TIP3    H127167   2.112   5.284  16.175  0.5014 -2.1754  1.6615
 1892TIP3    H227168   2.031   5.389  16.248 -0.0468 -0.3680 -1.3832
 1893TIP3   OH227169   3.646   3.817   2.727  0.2487  0.0583  0.5451
 1893TIP3    H127170   3.631   3.728   2.759  1.9528 -1.2921 -2.0307
 1893TIP3    H227171   3.686   3.863   2.801 -0.7598 -1.2427  1.9609
 1894TIP3   OH227172   4.756   3.569  17.023 -0.1289  0.3541  0.0449
 1894TIP3    H127173   4.842   3.536  16.995 -0.7203 -1.3993  0.1922
 1894TIP3    H227174   4.725   3.504  17.086 -0.7869  1.9180  1.4121
 1895TIP3   OH227175   5.311   1.275   0.410 -0.0713  0.0197 -0.4727
 1895TIP3    H127176   5.220   1.284   0.381  0.0391  1.8155 -0.3780
 1895TIP3    H227177   5.347   1.208   0.353 -1.3725 -0.5036 -0.7188
 1896TIP3   OH227178   1.460   6.033  10.957 -0.8184  0.0763 -0.4446
 1896TIP3    H127179   1.534   6.003  10.904  1.7456  1.4402  2.0779
 1896TIP3    H227180   1.454   6.127  10.939 -0.9276  0.2590  0.4943
 1897TIP3   OH227181   6.715   5.746  12.430 -0.6539  0.1172 -0.1496
 1897TIP3    H127182   6.770   5.820  12.405  1.5380 -1.0008  1.0236
 1897TIP3    H227183   6.702   5.697  12.348 -0.2639  0.6589 -0.5433
 1898TIP3   OH227184   2.674   1.584  16.882  0.1951  0.3433 -0.6303
 1898TIP3    H127185   2.628   1.619  16.806 -0.1992 -0.7858 -0.9332
 1898TIP3    H227186   2.628   1.502  16.902  0.2842  0.6219  0.8276
 1899TIP3   OH227187   6.595   0.491   0.813 -0.2002  0.6362  0.0189
 1899TIP3    H127188   6.542   0.474   0.735 -0.1403  0.2281  0.0665
 1899TIP3    H227189   6.625   0.581   0.802 -0.2574  0.6068 -0.3944
 1900TIP3   OH227190   4.448   5.670   0.988 -0.3733 -0.1856  0.5858
 1900TIP3    H127191   4.388   5.648   0.917  2.9515 -0.8786 -2.3035
 1900TIP3    H227192   4.475   5.586   1.025  0.1178 -0.0097  0.6401
 1901TIP3   OH227193   3.115   0.647   5.656 -0.4065 -0.5963 -0.5308
 1901TIP3    H127194   3.078   0.730   5.687  0.3046 -0.8543  1.1225
 1901TIP3    H227195   3.192   0.673   5.606 -0.1629 -0.2324  0.0160
 1902TIP3   OH227196   3.993   1.496   3.013  0.2920 -0.3897  0.5857
 1902TIP3    H127197   3.920   1.539   3.058  1.4172 -0.7189  2.8526
 1902TIP3    H227198   4.051   1.468   3.083  2.3750 -0.5917 -1.1293
 1903TIP3   OH227199   0.613   0.965   3.418 -0.8598  0.1821  0.8741
 1903TIP3    H127200   0.635   0.872   3.426  2.2838  0.8242  0.7183
 1903TIP3    H227201   0.601   0.979   3.324 -0.0118  0.1717  0.7568
 1904TIP3   OH227202   4.314   6.072   1.712 -0.0509  0.0647 -0.0864
 1904TIP3    H127203   4.264   5.992   1.699  2.2308 -2.2579  3.4620
 1904TIP3    H227204   4.280   6.108   1.795  1.0171  1.0226 -0.0363
 1905TIP3   OH227205   1.523   1.985  14.168  0.3044  0.8320 -0.1431
 1905TIP3    H127206   1.585   1.986  14.242 -0.6207  1.6057  0.6361
 1905TIP3    H227207   1.534   1.898  14.130 -0.3118 -0.1877  1.8787
 1906TIP3   OH227208   0.478   1.333   3.981  0.8147  0.6478 -0.0677
 1906TIP3    H127209   0.469   1.331   4.076  3.1862  0.6392  0.2156
 1906TIP3    H227210   0.528   1.413   3.964  1.0647  0.2541 -1.2320
 1907TIP3   OH227211   5.246   4.120  15.171 -0.3348 -0.1368  0.0152
 1907TIP3    H127212   5.195   4.042  15.190 -0.8414  0.4939  1.4285
 1907TIP3    H227213   5.183   4.180  15.130  0.0201 -0.4213 -0.9515
 1908TIP3   OH227214   5.659   1.533   4.766 -0.1609  0.1128  0.2142
 1908TIP3    H127215   5.654   1.582   4.684 -0.5242 -1.7796 -0.9608
 1908TIP3    H227216   5.571   1.498   4.778 -0.2380  0.7339  1.6974
 1909TIP3   OH227217   5.165   5.394  11.468 -0.6959 -0.0089 -0.4510
 1909TIP3    H127218   5.155   5.320  11.528  2.9691  1.2494  2.0370
 1909TIP3    H227219   5.217   5.360  11.395  0.1095 -0.1619  0.1826
 1910TIP3   OH227220   2.681   2.255   0.962  0.0912 -0.2220  0.4984
 1910TIP3    H127221   2.707   2.283   0.874  0.0837  0.6916  0.7731
 1910TIP3    H227222   2.731   2.175   0.977 -1.0987 -1.3061 -0.9532
 1911TIP3   OH227223   4.825   6.454  11.985  0.3714 -0.5245 -0.5197
 1911TIP3    H127224   4.867   6.540  11.977 -1.6401  0.8629  2.1950
 1911TIP3    H227225   4.739   6.466  11.946  0.2353 -1.4832 -0.5388
 1912TIP3   OH227226   4.859   2.541   3.495 -0.3350 -0.1649  0.9415
 1912TIP3    H127227   4.854   2.615   3.555  3.0794  0.5669  0.5126
 1912TIP3    H227228   4.829   2.576   3.411 -3.7989 -0.8334  1.7368
 1913TIP3   OH227229   3.857   6.535   3.874  0.4311 -0.0223  0.1203
 1913TIP3    H127230   3.795   6.578   3.933  0.4566 -0.5558  0.5447
 1913TIP3    H227231   3.864   6.594   3.799  0.4160  0.6791  0.6585
 1914TIP3   OH227232   4.671   2.039   6.353  0.3217  0.1792 -0.0165
 1914TIP3    H127233   4.606   2.098   6.391 -0.3415  0.3520 -1.3408
 1914TIP3    H227234   4.620   1.964   6.322  1.0783 -0.8098  1.0635
 1915TIP3   OH227235   4.956   0.325   0.204 -0.3835 -0.8758  0.3413
 1915TIP3    H127236   5.022   0.363   0.261 -1.0132  0.7345  0.0400
 1915TIP3    H227237   4.872   0.353   0.242 -0.8937 -2.2176  0.2683
 1916TIP3   OH227238   3.364   2.314   5.060  0.2198 -0.8016 -0.3258
 1916TIP3    H127239   3.322   2.362   4.988 -0.7792  0.2660  0.8986
 1916TIP3    H227240   3.455   2.344   5.060  0.6777 -2.0659 -2.1373
 1917TIP3   OH227241   1.350   2.531   5.004  0.3422  0.0353  0.4664
 1917TIP3    H127242   1.445   2.542   4.997  0.1413  0.8249 -2.3038
 1917TIP3    H227243   1.328   2.471   4.932 -1.2825 -0.0242  0.9795
 1918TIP3   OH227244   1.814   0.794  13.955  0.5373 -0.5882 -0.1321
 1918TIP3    H127245   1.744   0.843  13.998  1.0577 -0.4280  0.5344
 1918TIP3    H227246   1.884   0.789  14.020  1.5790  0.1812 -1.1427
 1919TIP3   OH227247   3.326   2.677   1.470 -0.3398  0.2580 -0.0713
 1919TIP3    H127248   3.284   2.729   1.538 -0.5888 -0.7579  0.5832
 1919TIP3    H227249   3.254   2.628   1.430  0.0669 -0.7353  0.3779
 1920TIP3   OH227250   1.310   3.763  12.962 -0.4438  0.0497 -0.2386
 1920TIP3    H127251   1.380   3.806  13.010  0.0185 -0.8956 -0.0501
 1920TIP3    H227252   1.355   3.705  12.900 -0.9054 -3.4035  2.3140
 1921TIP3   OH227253   3.893   2.812  16.260 -0.2108  0.3757  0.6018
 1921TIP3    H127254   3.820   2.870  16.240  0.8210  1.2494 -0.8250
 1921TIP3    H227255   3.911   2.766  16.178 -0.0003 -0.8428  1.2951
 1922TIP3   OH227256   1.838   5.675  14.837  0.1039  0.3083 -0.6993
 1922TIP3    H127257   1.870   5.764  14.852 -0.9228  0.7305 -0.9051
 1922TIP3    H227258   1.824   5.669  14.743  0.4278 -0.1667 -0.7228
 1923TIP3   OH227259   3.813   0.092   1.269  0.1273 -0.4604  0.1668
 1923TIP3    H127260   3.864   0.032   1.216 -2.1924 -0.4619 -2.2939
 1923TIP3    H227261   3.735   0.042   1.294 -0.2347  0.4964  1.0413
 1924TIP3   OH227262   0.355   3.683   1.158 -0.7001  0.2311 -0.0873
 1924TIP3    H127263   0.397   3.755   1.206 -0.1083  0.1920 -0.5341
 1924TIP3    H227264   0.272   3.670   1.203 -0.8058  1.1842  0.0202
 1925TIP3   OH227265   5.677   3.676   4.886 -0.2806  0.1656  0.7068
 1925TIP3    H127266   5.610   3.619   4.847 -0.8359  0.8403  0.6581
 1925TIP3    H227267   5.730   3.617   4.940 -0.2361 -0.5674 -0.1173
 1926TIP3   OH227268   0.278   5.557  16.587  0.2836 -0.0711 -0.2827
 1926TIP3    H127269   0.211   5.498  16.551 -1.6931  1.7639  0.1416
 1926TIP3    H227270   0.263   5.554  16.681  1.5997 -0.4801 -0.0711
 1927TIP3   OH227271   1.463   5.358   1.460 -0.3198  0.8121 -0.4463
 1927TIP3    H127272   1.536   5.304   1.491 -1.1734  0.0018  0.1933
 1927TIP3    H227273   1.476   5.442   1.503 -1.1654 -0.1127  1.7634
 1928TIP3   OH227274   5.950   1.898   0.699 -0.1487  0.0899  0.0238
 1928TIP3    H127275   5.859   1.891   0.726 -0.2819  2.5630  0.3535
 1928TIP3    H227276   5.999   1.849   0.766 -1.1136 -0.2659  0.4847
 1929TIP3   OH227277   3.924   2.113  16.961 -0.0402 -0.2627 -0.0558
 1929TIP3    H127278   3.897   2.030  16.999 -2.0372  2.1381  4.5235
 1929TIP3    H227279   4.019   2.114  16.972 -0.0424 -1.6667  0.2956
 1930TIP3   OH227280   4.258   6.496  13.683  0.1244 -0.4759  0.1938
 1930TIP3    H127281   4.287   6.497  13.592 -0.4297 -1.6150 -0.0203
 1930TIP3    H227282   4.317   6.434  13.726  0.1501 -0.2200  0.5280
 1931TIP3   OH227283   1.539   2.838  15.032  0.2430  0.1874 -0.6171
 1931TIP3    H127284   1.532   2.744  15.049 -4.4841  0.4588  0.3101
 1931TIP3    H227285   1.482   2.853  14.957  1.2716  2.3078 -1.0521
 1932TIP3   OH227286   5.523   0.591   0.805  0.1060  0.5205  0.1200
 1932TIP3    H127287   5.589   0.656   0.830 -0.5516  1.3446 -0.2308
 1932TIP3    H227288   5.441   0.627   0.839 -0.1391 -0.6138  0.7779
 1933TIP3   OH227289   0.378   1.677  15.366  0.0788  0.2847 -0.4981
 1933TIP3    H127290   0.344   1.760  15.399  0.5288  0.0606  0.5786
 1933TIP3    H227291   0.309   1.614  15.383  1.6207 -0.6272  3.7053
 1934TIP3   OH227292   5.418   1.004  15.783 -0.1113  0.0071  0.0174
 1934TIP3    H127293   5.403   1.067  15.854 -0.5031  1.1109 -1.0290
 1934TIP3    H227294   5.431   0.920  15.829 -0.3236  0.6927  1.3943
 1935TIP3   OH227295   2.366   2.489  16.633  0.0283  0.2442  0.1228
 1935TIP3    H127296   2.458   2.468  16.623 -0.1834 -0.7060  0.0928
 1935TIP3    H227297   2.330   2.417  16.685 -0.8677  0.1697 -0.5632
 1936TIP3   OH227298   4.683   5.524   1.484  0.3181 -0.2782 -0.5726
 1936TIP3    H127299   4.626   5.583   1.534 -0.9684 -0.2281 -2.0054
 1936TIP3    H227300   4.725   5.470   1.550 -1.3423 -0.2557  0.5745
 1937TIP3   OH227301   2.966   3.749  16.555 -0.0476 -0.1818 -0.1995
 1937TIP3    H127302   2.956   3.844  16.565  0.9042 -0.0958 -0.0334
 1937TIP3    H227303   2.997   3.737  16.466  0.1724 -0.3109 -0.1065
 1938TIP3   OH227304   3.369   1.238  11.588 -0.1208 -0.1036  0.1181
 1938TIP3    H127305   3.333   1.315  11.544  4.0145  2.4781  0.6280
 1938TIP3    H227306   3.385   1.175  11.518  0.1096  1.2064 -1.0543
 1939TIP3   OH227307   6.076   1.708  14.749 -0.5008 -0.4649  0.1821
 1939TIP3    H127308   6.044   1.762  14.822 -3.8551 -0.5387 -1.0743
 1939TIP3    H227309   6.063   1.618  14.778  1.5619 -0.6163  0.8021
 1940TIP3   OH227310   3.608   3.185   0.604 -0.0474 -0.1605 -0.2900
 1940TIP3    H127311   3.577   3.174   0.514  0.4071 -1.3729 -0.3066
 1940TIP3    H227312   3.703   3.198   0.595 -0.1827  1.1040 -0.0701
 1941TIP3   OH227313   3.409   2.987  13.445 -0.3867 -0.3952 -0.1773
 1941TIP3    H127314   3.462   2.919  13.403  1.4465  1.1068 -0.4194
 1941TIP3    H227315   3.396   3.053  13.377 -0.9498  0.1432  0.4405
 1942TIP3   OH227316   1.201   2.356   6.093 -0.3364  0.0739  0.0242
 1942TIP3    H127317   1.182   2.446   6.121 -0.6155  0.2925 -0.8322
 1942TIP3    H227318   1.164   2.302   6.162  0.7301  0.6296  1.0593
 1943TIP3   OH227319   3.968   2.352  15.380 -0.3214 -0.6613 -0.6934
 1943TIP3    H127320   4.062   2.346  15.398 -0.2831 -0.3950 -0.8063
 1943TIP3    H227321   3.928   2.293  15.444 -0.1703  0.1386  0.1495
 1944TIP3   OH227322   2.776   3.717  17.200  0.9868 -0.2381 -0.5182
 1944TIP3    H127323   2.773   3.730  17.106 -2.9366 -1.6915 -0.8062
 1944TIP3    H227324   2.810   3.628  17.211  2.5688  0.3510 -0.4114
 1945TIP3   OH227325   5.600   5.455   6.344  0.5462 -0.1612  0.7096
 1945TIP3    H127326   5.557   5.396   6.405  0.4874 -1.3842 -0.4508
 1945TIP3    H227327   5.540   5.460   6.269  0.2467  1.9249  1.0551
 1946TIP3   OH227328   4.049   0.134  17.241  0.0511  0.3231 -0.3593
 1946TIP3    H127329   3.959   0.110  17.264 -0.5130  0.7284 -2.0102
 1946TIP3    H227330   4.102   0.060  17.269 -0.5959  0.6256  1.8205
 1947TIP3   OH227331   2.326   2.928  15.875  0.6816 -0.8653 -0.0812
 1947TIP3    H127332   2.394   2.906  15.939 -0.2650  2.3729  2.2794
 1947TIP3    H227333   2.252   2.957  15.928 -0.1046  2.2446 -2.6028
 1948TIP3   OH227334   5.722   2.037  13.242  0.6239 -0.1680  0.2384
 1948TIP3    H127335   5.667   2.064  13.315 -1.5066 -0.8889 -1.0243
 1948TIP3    H227336   5.742   2.118  13.195  0.2687  0.0583  0.4767
 1949TIP3   OH227337   0.946   6.091   1.093  0.2077 -0.0514 -0.1016
 1949TIP3    H127338   0.988   6.076   1.177 -0.0547 -0.2688 -0.0045
 1949TIP3    H227339   0.930   6.185   1.090  0.6433  0.0214 -0.1140
 1950TIP3   OH227340   3.264   2.271   6.009  0.5825 -0.3694 -0.6783
 1950TIP3    H127341   3.282   2.188   5.964 -1.6965 -1.2786 -0.0311
 1950TIP3    H227342   3.192   2.310   5.960 -1.7357 -1.2115  1.8177
 1951TIP3   OH227343   4.127   0.063   4.138 -0.2087 -0.0561  0.2470
 1951TIP3    H127344   4.035   0.071   4.163 -0.2087  0.1052  0.1916
 1951TIP3    H227345   4.157  -0.015   4.185 -0.3162  0.0150  0.4367
 1952TIP3   OH227346   2.888   2.094  15.396 -0.4753 -0.3302 -0.5117
 1952TIP3    H127347   2.911   2.109  15.305 -0.4585  0.1951 -0.4254
 1952TIP3    H227348   2.918   2.172  15.442  0.1851 -0.9088  0.0686
 1953TIP3   OH227349   3.216   6.416  12.976 -0.1819  0.0571  0.2331
 1953TIP3    H127350   3.277   6.422  13.049 -2.3112 -1.6997  2.3203
 1953TIP3    H227351   3.228   6.327  12.942 -0.1324  0.4188 -0.7288
 1954TIP3   OH227352   4.304   4.244  13.606  0.3847 -0.1145  0.2612
 1954TIP3    H127353   4.354   4.303  13.662 -0.4231  0.7533  0.0841
 1954TIP3    H227354   4.370   4.201  13.551  0.9254  1.2129 -0.1656
 1955TIP3   OH227355   0.053   6.773   0.173  0.3607 -0.4470 -0.4854
 1955TIP3    H127356  -0.013   6.715   0.210 -0.1688  1.0934  1.1412
 1955TIP3    H227357   0.034   6.775   0.079 -0.4663 -1.7955 -0.3628
 1956TIP3   OH227358   5.827   3.174   2.774  0.2776  0.0509  0.3145
 1956TIP3    H127359   5.757   3.204   2.833  1.4363 -1.7202  2.7689
 1956TIP3    H227360   5.798   3.087   2.746  0.4349  0.2753 -0.5570
 1957TIP3   OH227361   4.838   4.456   2.221  0.2941 -0.0592 -0.0442
 1957TIP3    H127362   4.826   4.502   2.304  0.2356  0.3355 -0.2670
 1957TIP3    H227363   4.881   4.374   2.245  2.4192  1.0259  0.1739
 1958TIP3   OH227364   3.682   2.607  16.152 -0.9344  0.0434  0.0523
 1958TIP3    H127365   3.727   2.531  16.188 -2.3381 -1.4808 -1.2650
 1958TIP3    H227366   3.624   2.637  16.222 -0.1725  0.0854  0.6699
 1959TIP3   OH227367   1.169   1.147   5.626 -0.0389 -0.0373 -0.2592
 1959TIP3    H127368   1.220   1.147   5.545  1.4005  0.0374  0.6162
 1959TIP3    H227369   1.120   1.229   5.624  1.2078  0.7382 -0.3439
 1960TIP3   OH227370   1.806   3.914   6.284 -0.0850  0.1736  0.0741
 1960TIP3    H127371   1.718   3.939   6.313  0.0491  0.3948  0.2944
 1960TIP3    H227372   1.854   3.897   6.365  0.1832  0.4218 -0.0314
 1961TIP3   OH227373   6.494   6.556   0.002  0.0830 -0.2425 -0.1002
 1961TIP3    H127374   6.409   6.599  -0.006  0.3320  0.4573  0.7470
 1961TIP3    H227375   6.509   6.552   0.097  0.7005 -0.9413 -0.2228
 1962TIP3   OH227376   5.163   4.466   1.724  0.3807 -0.6090  0.0240
 1962TIP3    H127377   5.211   4.532   1.675 -1.9343  0.8304 -0.4576
 1962TIP3    H227378   5.088   4.444   1.668 -1.8343  0.3903  2.3916
 1963TIP3   OH227379   4.344   2.117   1.760 -0.7318 -0.4244  0.2886
 1963TIP3    H127380   4.329   2.179   1.689 -0.8942  1.0341  1.5421
 1963TIP3    H227381   4.439   2.102   1.759 -0.8636 -1.2773 -0.9028
 1964TIP3   OH227382   2.303   5.266   5.012  0.7860  0.6790 -0.4091
 1964TIP3    H127383   2.320   5.241   5.103  1.2811 -2.2091 -1.2037
 1964TIP3    H227384   2.390   5.269   4.971  0.6233  2.5304 -0.7090
 1965TIP3   OH227385   6.350   2.565   1.604  0.2026 -0.0949  0.0571
 1965TIP3    H127386   6.404   2.548   1.526 -1.3416  0.7620 -1.2442
 1965TIP3    H227387   6.298   2.485   1.614  0.8926 -0.4857  0.6663
 1966TIP3   OH227388   6.374   5.944  14.506  0.1511  0.0356 -0.0997
 1966TIP3    H127389   6.421   5.868  14.472  0.2353 -0.5075  1.1949
 1966TIP3    H227390   6.282   5.925  14.487 -0.0592 -1.4098  2.0369
 1967TIP3   OH227391   2.163   1.278  11.092  0.6262  1.0069 -0.1469
 1967TIP3    H127392   2.259   1.278  11.097  0.6378  1.0723 -0.3950
 1967TIP3    H227393   2.141   1.187  11.071  0.7347  1.3891 -2.0964
 1968TIP3   OH227394   2.335   4.722   5.367  0.1385 -0.0643  0.0229
 1968TIP3    H127395   2.261   4.661   5.366  0.1212 -0.0464 -0.6408
 1968TIP3    H227396   2.300   4.803   5.404  0.2039 -0.4949  1.0671
 1969TIP3   OH227397   4.346   6.396   2.531  0.3757  0.2110  0.3774
 1969TIP3    H127398   4.313   6.484   2.548  1.1405  0.5411  0.2220
 1969TIP3    H227399   4.379   6.400   2.442 -0.9182 -0.6651 -0.1643
 1970TIP3   OH227400   0.152   3.226   2.526  0.0697 -0.6641 -0.2355
 1970TIP3    H127401   0.181   3.151   2.474  1.8913  0.6825 -1.3020
 1970TIP3    H227402   0.214   3.296   2.503  0.4958  0.2528  3.1939
 1971TIP3   OH227403   5.831   6.327  16.312 -0.1449  0.5619 -0.4331
 1971TIP3    H127404   5.801   6.319  16.402  0.4538  0.2156 -0.2602
 1971TIP3    H227405   5.758   6.369  16.266 -0.5046  0.6170  0.1800
 1972TIP3   OH227406   2.527   1.136   3.036 -0.5161 -0.2796  0.3327
 1972TIP3    H127407   2.545   1.061   2.978  0.1608 -0.7959  1.1835
 1972TIP3    H227408   2.612   1.157   3.075 -0.9693  0.0238  1.1791
 1973TIP3   OH227409   4.362   2.008   6.561 -0.3245 -0.6053  0.2954
 1973TIP3    H127410   4.399   1.922   6.578  1.3876 -0.0247 -0.3307
 1973TIP3    H227411   4.435   2.069   6.571 -0.6432  0.4275 -2.7389
 1974TIP3   OH227412   1.589   4.337  14.521  0.0737 -0.1544 -0.0322
 1974TIP3    H127413   1.676   4.367  14.547  0.2657  0.7342 -1.5681
 1974TIP3    H227414   1.574   4.259  14.574  1.4891  0.0960  0.7974
 1975TIP3   OH227415   5.407   5.235   3.542  0.1701 -0.3423  0.3318
 1975TIP3    H127416   5.346   5.264   3.475  0.8387  1.2740  0.3885
 1975TIP3    H227417   5.351   5.214   3.617 -0.3681  0.6031  0.2119
 1976TIP3   OH227418   6.508   6.414   3.116  0.7423  0.5051 -0.1010
 1976TIP3    H127419   6.460   6.493   3.142  0.4475  0.3824 -0.2627
 1976TIP3    H227420   6.500   6.412   3.021  0.8676  0.3554 -0.1082
 1977TIP3   OH227421   1.108   1.286   6.046 -0.2150 -0.2411 -0.8243
 1977TIP3    H127422   1.072   1.341   6.116 -1.3805 -0.7092 -1.0421
 1977TIP3    H227423   1.038   1.281   5.981  0.1252 -1.4509 -1.1123
 1978TIP3   OH227424   1.088   5.386  15.672  0.4051  0.0786 -0.4841
 1978TIP3    H127425   1.174   5.381  15.713 -0.0628 -0.6353  0.4547
 1978TIP3    H227426   1.089   5.468  15.623  0.2628  2.1404  2.6846
 1979TIP3   OH227427   1.385   4.215   5.628 -0.3820 -0.1271  0.5000
 1979TIP3    H127428   1.306   4.200   5.680 -1.0799 -0.8598 -0.7215
 1979TIP3    H227429   1.392   4.138   5.572  1.0861  0.0346  0.4183
 1980TIP3   OH227430   1.134   5.728  10.259 -0.3847  0.1704  0.6205
 1980TIP3    H127431   1.181   5.810  10.246 -1.9210  1.1129  0.7009
 1980TIP3    H227432   1.201   5.661  10.256  0.5918  1.0311 -3.2929
 1981TIP3   OH227433   1.318   4.956   6.716 -0.4119  0.6704 -0.0643
 1981TIP3    H127434   1.395   4.926   6.667 -0.1972  0.1508  0.5692
 1981TIP3    H227435   1.248   4.897   6.687 -0.2175  0.1702  0.4475
 1982TIP3   OH227436   0.641   3.604   4.050 -0.3090  0.6638  0.2502
 1982TIP3    H127437   0.575   3.670   4.028 -0.0941  0.8406  0.1293
 1982TIP3    H227438   0.703   3.607   3.977  0.2218  1.0050  0.7086
 1983TIP3   OH227439   2.223   2.335  10.937 -0.5012 -0.1290 -0.1521
 1983TIP3    H127440   2.308   2.352  10.977 -1.0000 -0.7315  1.2588
 1983TIP3    H227441   2.236   2.348  10.844  0.7844  1.1930  0.1727
 1984TIP3   OH227442   4.281   6.651   6.063  0.4024  0.0363 -0.4287
 1984TIP3    H127443   4.257   6.565   6.098  0.9477 -0.1561 -0.5032
 1984TIP3    H227444   4.322   6.697   6.136 -2.3426  1.3147  0.4233
 1985TIP3   OH227445   1.003   1.290  12.345  0.2852  0.3940  0.2973
 1985TIP3    H127446   1.006   1.380  12.376  0.4122  0.4779  0.0429
 1985TIP3    H227447   0.997   1.237  12.425  0.0276  0.6356  0.4384
 1986TIP3   OH227448   1.577   6.441   4.729  0.5993 -0.1919  0.1612
 1986TIP3    H127449   1.554   6.471   4.817  1.0067 -2.4326  1.1152
 1986TIP3    H227450   1.654   6.492   4.705  0.7780  0.1176  1.3388
 1987TIP3   OH227451   0.892   0.055  12.884  0.6616 -0.3837 -0.2415
 1987TIP3    H127452   0.903  -0.019  12.943 -1.5943 -1.4847 -1.1046
 1987TIP3    H227453   0.801   0.049  12.854  1.1062  1.3683 -2.1614
 1988TIP3   OH227454   0.571   4.441  14.967 -0.0594  0.1992 -0.5086
 1988TIP3    H127455   0.605   4.484  14.888 -1.1569  0.3123 -0.9335
 1988TIP3    H227456   0.536   4.358  14.936  1.1465 -0.5925  0.1616
 1989TIP3   OH227457   5.661   2.007  12.107  0.0557  0.2267  0.0590
 1989TIP3    H127458   5.732   1.996  12.170  0.6921 -1.1134 -0.8517
 1989TIP3    H227459   5.636   1.918  12.082 -1.9519  0.6586  0.3331
 1990TIP3   OH227460   1.648   4.552  15.943  0.2332  0.4208  0.1587
 1990TIP3    H127461   1.694   4.480  15.986  2.3030  1.5702 -0.0563
 1990TIP3    H227462   1.716   4.611  15.912 -1.4007  3.0060  1.1429
 1991TIP3   OH227463   5.868   0.065   1.617 -0.0264 -0.2655 -0.1597
 1991TIP3    H127464   5.862   0.160   1.618  2.7824  0.0185 -0.5036
 1991TIP3    H227465   5.895   0.041   1.706  2.1941 -0.3528 -0.7802
 1992TIP3   OH227466   0.607   2.806   3.128  0.0995 -0.1571 -0.0629
 1992TIP3    H127467   0.674   2.824   3.062  0.6231 -0.2422  0.4327
 1992TIP3    H227468   0.622   2.872   3.196 -0.4458 -0.0566 -0.0406
 1993TIP3   OH227469   5.133   0.932  15.742 -0.2940  0.1031 -0.0949
 1993TIP3    H127470   5.226   0.955  15.740 -0.0789 -0.6844  0.1141
 1993TIP3    H227471   5.094   0.980  15.669  0.7546 -1.4403 -1.7537
 1994TIP3   OH227472   2.106   3.589  14.411  0.1035  0.5217 -0.2218
 1994TIP3    H127473   2.127   3.498  14.388  0.3922  0.7797 -1.0382
 1994TIP3    H227474   2.083   3.630  14.327 -1.0490  0.9382  0.2830
 1995TIP3   OH227475   1.245   3.499  11.077 -0.1723  0.1968  0.2085
 1995TIP3    H127476   1.289   3.472  10.997  1.4192 -2.9546  1.9182
 1995TIP3    H227477   1.152   3.493  11.057 -0.0037 -4.8099 -0.4880
 1996TIP3   OH227478   0.438   4.316  16.617 -0.1160  0.1837 -0.1323
 1996TIP3    H127479   0.523   4.359  16.624  0.0855 -0.3247  0.6723
 1996TIP3    H227480   0.452   4.245  16.554 -0.4644  1.2999 -1.5068
 1997TIP3   OH227481   6.499   0.005  15.829  0.2085 -0.8119 -0.0553
 1997TIP3    H127482   6.467   0.034  15.743  1.9007 -1.1301 -0.8283
 1997TIP3    H227483   6.421  -0.030  15.872 -0.4895 -1.6346 -1.8779
 1998TIP3   OH227484   4.447   4.092   5.402 -0.4799  0.0910  0.2316
 1998TIP3    H127485   4.523   4.136   5.441 -0.3137 -0.2214  0.2622
 1998TIP3    H227486   4.382   4.092   5.472 -0.1180 -0.6342  0.5829
 1999TIP3   OH227487   2.732   1.564   5.463 -0.2086  0.2149  0.2709
 1999TIP3    H127488   2.809   1.619   5.449 -0.0259 -0.2832 -0.7819
 1999TIP3    H227489   2.659   1.615   5.427 -0.5830  1.1309  2.1645
 2000TIP3   OH227490   2.792   4.348   5.644 -0.1400  0.2901  0.2324
 2000TIP3    H127491   2.817   4.262   5.680 -0.3210  0.3909  0.6061
 2000TIP3    H227492   2.750   4.328   5.561 -0.1819  0.0132  0.3181
 2001TIP3   OH227493   6.573   6.117   1.074 -0.6930 -0.2664 -0.0932
 2001TIP3    H127494   6.587   6.041   1.019 -0.6185  0.9242 -1.7812
 2001TIP3    H227495   6.626   6.186   1.035  1.1301  0.1104  2.7491
 2002TIP3   OH227496   6.250   5.046   1.144  0.0655  0.1768 -0.2402
 2002TIP3    H127497   6.174   4.989   1.148  0.5707 -0.4763  0.3868
 2002TIP3    H227498   6.312   5.008   1.207  1.0288  0.5080 -0.9538
 2003TIP3   OH227499   3.292   1.929   2.701  0.8630  0.2564  0.1974
 2003TIP3    H127500   3.222   1.941   2.637  1.0013 -0.7117 -0.1474
 2003TIP3    H227501   3.265   1.981   2.776  0.2656  0.6920 -0.3120
 2004TIP3   OH227502   4.745   2.335  13.619 -0.3438 -0.2863  0.1013
 2004TIP3    H127503   4.806   2.366  13.552 -1.8173  0.9666 -0.7298
 2004TIP3    H227504   4.682   2.282  13.571 -2.1073  1.5949  0.2151
 2005TIP3   OH227505   3.652   4.808  16.604 -0.2584 -0.4830 -0.1517
 2005TIP3    H127506   3.678   4.850  16.686  0.8284  0.4750 -0.9531
 2005TIP3    H227507   3.574   4.857  16.576 -0.0072 -0.1154 -0.2177
 2006TIP3   OH227508   1.009   0.939  12.072 -0.1444 -0.4277  1.2365
 2006TIP3    H127509   1.019   0.859  12.019  0.9089  2.2778 -3.1813
 2006TIP3    H227510   0.915   0.958  12.068 -0.4087 -1.3831  2.3498
 2007TIP3   OH227511   1.349   5.028   4.831  0.1092  0.0016 -0.4352
 2007TIP3    H127512   1.419   4.979   4.787 -0.1595  0.7580 -1.7711
 2007TIP3    H227513   1.275   4.967   4.833  0.4438 -0.3953 -0.0964
 2008TIP3   OH227514   2.773   0.755  14.791  0.3631  0.3430  0.2926
 2008TIP3    H127515   2.724   0.674  14.776  1.7169 -0.4090 -0.2125
 2008TIP3    H227516   2.705   0.820  14.811 -0.7489 -0.9179  0.8112
 2009TIP3   OH227517   5.941   1.519   1.998 -0.3641  0.0707 -0.0660
 2009TIP3    H127518   5.852   1.545   1.977 -0.4072 -1.2392 -1.6950
 2009TIP3    H227519   5.992   1.543   1.920 -0.1003 -2.9565 -0.9542
 2010TIP3   OH227520   3.142   0.628  14.196 -0.1487 -0.0773 -0.0611
 2010TIP3    H127521   3.092   0.568  14.251 -2.4998  0.3566 -1.5650
 2010TIP3    H227522   3.139   0.711  14.243 -1.8193  0.2017 -0.6086
 2011TIP3   OH227523   4.802   1.058   6.530  0.3662  0.1294  0.1231
 2011TIP3    H127524   4.869   1.064   6.463 -1.3387  0.2306 -1.6667
 2011TIP3    H227525   4.787   1.149   6.557 -0.2781  0.2917 -0.7662
 2012TIP3   OH227526   1.993   6.074  11.517 -0.3091  0.2740  0.1364
 2012TIP3    H127527   1.956   6.114  11.438  0.1706  1.0553  0.2997
 2012TIP3    H227528   1.990   5.980  11.500  0.2610  0.4557 -1.0240
 2013TIP3   OH227529   4.671   4.054   3.193  0.1229  0.0295  0.0814
 2013TIP3    H127530   4.720   4.136   3.189  0.8595 -0.4353 -0.6764
 2013TIP3    H227531   4.619   4.061   3.273  0.5759  1.0081  0.3017
 2014TIP3   OH227532   5.426   1.130  14.676 -0.3606  0.0518 -0.0638
 2014TIP3    H127533   5.422   1.043  14.715  0.3990  0.0173 -0.0600
 2014TIP3    H227534   5.477   1.119  14.596 -1.0057  0.3296 -0.5272
 2015TIP3   OH227535   5.805   3.566   3.557  0.4573 -0.2905 -0.5240
 2015TIP3    H127536   5.813   3.528   3.470 -3.5362 -0.2249 -1.1240
 2015TIP3    H227537   5.805   3.661   3.543  0.6534 -0.2595 -0.3270
 2016TIP3   OH227538   6.649   4.383   1.741 -0.2377 -0.1563  0.2685
 2016TIP3    H127539   6.708   4.363   1.814 -0.5139  1.3864  0.9544
 2016TIP3    H227540   6.643   4.479   1.741  1.5141  0.1088 -3.1674
 2017TIP3   OH227541   1.090   5.483   1.275  0.4466 -0.3684  0.1836
 2017TIP3    H127542   1.024   5.419   1.302  0.0855 -0.1417 -0.1468
 2017TIP3    H227543   1.161   5.430   1.239  0.1816 -0.5887 -0.0227
 2018TIP3   OH227544   2.882   5.241  14.387  0.4603  0.3132  0.6335
 2018TIP3    H127545   2.802   5.239  14.440  0.1830 -2.9767  0.3049
 2018TIP3    H227546   2.852   5.230  14.297  1.1363  2.6025  0.0634
 2019TIP3   OH227547   5.241   5.543  15.131 -0.1071  0.4300  0.4847
 2019TIP3    H127548   5.264   5.498  15.050 -0.3447 -0.0588  0.6847
 2019TIP3    H227549   5.226   5.633  15.105  0.2298  0.3633  0.0535
 2020TIP3   OH227550   3.075   3.632  14.717  0.0398  0.3334 -0.6298
 2020TIP3    H127551   3.151   3.679  14.752  0.2437  1.2669 -2.2102
 2020TIP3    H227552   3.113   3.559  14.668 -0.2219 -0.6694  0.6080
 2021TIP3   OH227553   5.280   4.506  14.808  0.2285 -0.3963  0.7762
 2021TIP3    H127554   5.343   4.468  14.748  0.7066  0.3427  0.7938
 2021TIP3    H227555   5.327   4.514  14.891  0.2240  0.4649  0.7026
 2022TIP3   OH227556   5.826   4.135  13.865 -0.3012  0.3737 -0.6024
 2022TIP3    H127557   5.733   4.134  13.844 -0.5986  1.6816  0.5225
 2022TIP3    H227558   5.858   4.217  13.827 -0.0402  0.8755  0.6359
 2023TIP3   OH227559   5.357   0.432  16.933 -0.4081  0.7552 -0.5468
 2023TIP3    H127560   5.300   0.487  16.986 -0.6997 -0.0391 -0.0060
 2023TIP3    H227561   5.298   0.383  16.876 -0.5451 -1.5717  1.4000
 2024TIP3   OH227562   2.415   0.877   4.789  0.4721 -0.3979 -0.4209
 2024TIP3    H127563   2.343   0.891   4.727 -1.5199 -0.9077  1.6478
 2024TIP3    H227564   2.375   0.830   4.862  2.5368  0.7210  1.5633
 2025TIP3   OH227565   0.964   3.761  11.886 -0.3692 -0.3301 -0.3832
 2025TIP3    H127566   0.928   3.685  11.841 -0.1105 -1.0339  0.5434
 2025TIP3    H227567   0.921   3.837  11.847  0.0722 -0.8791 -1.9993
 2026TIP3   OH227568   4.816   5.603  16.617  0.0865 -0.1142  0.2539
 2026TIP3    H127569   4.867   5.589  16.697 -0.2190  0.3742  0.5329
 2026TIP3    H227570   4.803   5.514  16.581  3.2128 -0.1307 -1.1525
 2027TIP3   OH227571   3.851   6.327   4.182 -0.2014 -0.1410 -0.2558
 2027TIP3    H127572   3.814   6.307   4.268  3.4402 -0.5669  1.3804
 2027TIP3    H227573   3.806   6.268   4.122 -2.5477 -0.1404  1.3793
 2028TIP3   OH227574   5.905   0.470  10.472 -0.1847 -0.9225  0.1472
 2028TIP3    H127575   5.828   0.474  10.416  1.5511  0.6152 -2.3251
 2028TIP3    H227576   5.948   0.554  10.460  1.3103 -1.2783  2.3671
 2029TIP3   OH227577   2.095   0.769  11.472 -0.0458 -0.0039  0.2060
 2029TIP3    H127578   2.189   0.784  11.471 -0.1864  0.9820  0.6675
 2029TIP3    H227579   2.066   0.788  11.383 -0.0445  1.4028  0.4856
 2030TIP3   OH227580   0.184   1.512  16.736  0.1084  0.2354  0.3207
 2030TIP3    H127581   0.147   1.544  16.819 -0.1154  1.2099 -0.1368
 2030TIP3    H227582   0.154   1.422  16.729 -0.7933  0.4924  0.7710
 2031TIP3   OH227583   1.985   3.238   2.832  0.0154  0.0536  0.4831
 2031TIP3    H127584   1.965   3.200   2.746  2.9545  2.2160 -1.3536
 2031TIP3    H227585   1.976   3.165   2.893 -0.8638 -1.9394 -1.8563
 2032TIP3   OH227586   3.327   1.019   6.651  0.6850 -0.3286  0.5781
 2032TIP3    H127587   3.274   1.081   6.600  2.4034 -0.0123 -0.9329
 2032TIP3    H227588   3.403   1.070   6.679 -0.8721 -0.0053  5.0278
 2033TIP3   OH227589   6.560   4.456  16.880  0.3212 -0.5405  0.4073
 2033TIP3    H127590   6.550   4.396  16.954 -1.3721 -0.7609  0.0332
 2033TIP3    H227591   6.567   4.398  16.803 -0.7757 -0.2997  0.1078
 2034TIP3   OH227592   5.928   1.187   6.293  0.4314 -0.1962 -0.1457
 2034TIP3    H127593   5.924   1.229   6.207  2.3013  0.0267 -0.1639
 2034TIP3    H227594   5.884   1.248   6.352 -2.0179 -0.9154 -1.0873
 2035TIP3   OH227595   1.990   0.024   4.214 -0.0933 -0.0204  0.4834
 2035TIP3    H127596   2.017   0.113   4.238  0.6965 -0.2661  0.5305
 2035TIP3    H227597   1.901   0.017   4.248 -0.1088  0.6994  0.6197
 2036TIP3   OH227598   6.375   4.777  16.257  0.0885  0.1345  0.7737
 2036TIP3    H127599   6.459   4.786  16.304  1.2400  1.1437 -1.3334
 2036TIP3    H227600   6.309   4.800  16.323  1.4411 -0.5875  2.4793
 2037TIP3   OH227601   4.178   4.033  16.382 -0.3252 -0.1772 -0.6105
 2037TIP3    H127602   4.202   3.990  16.464 -0.5551  0.9469  0.0808
 2037TIP3    H227603   4.150   3.963  16.324 -0.9540 -0.9211  0.5637
 2038TIP3   OH227604   0.265   4.308   4.109  0.2789 -0.2440  0.1399
 2038TIP3    H127605   0.343   4.282   4.158  0.1925  0.1659  0.5011
 2038TIP3    H227606   0.299   4.342   4.026  0.5708  1.0866  0.7909
 2039TIP3   OH227607   6.186   1.539   2.963  0.3630 -0.4259  0.3057
 2039TIP3    H127608   6.223   1.469   3.018  1.0083 -0.9879 -0.8279
 2039TIP3    H227609   6.250   1.610   2.968  0.0396 -0.1649  0.8980
 2040TIP3   OH227610   2.701   5.947  11.292  0.2192  0.1183  0.7990
 2040TIP3    H127611   2.731   5.863  11.326  1.2314  0.6489  1.2490
 2040TIP3    H227612   2.693   5.933  11.198 -3.0440 -1.5023  1.1609
 2041TIP3   OH227613   5.758   3.178  13.991  0.0560 -0.4897 -0.3428
 2041TIP3    H127614   5.771   3.232  13.914  0.3973 -0.5334 -0.3198
 2041TIP3    H227615   5.799   3.228  14.062 -2.1343  0.5803  0.2432
 2042TIP3   OH227616   5.778   3.917  14.127  0.1673  0.5769 -0.3352
 2042TIP3    H127617   5.867   3.920  14.160  0.2094  1.3520 -0.4937
 2042TIP3    H227618   5.756   3.824  14.124  0.3567  0.4569  1.3309
 2043TIP3   OH227619   6.766   6.243  16.431 -0.6415 -0.6858 -0.0060
 2043TIP3    H127620   6.793   6.158  16.395  2.1079 -0.0239  0.2981
 2043TIP3    H227621   6.792   6.239  16.523  0.1553  0.7023 -0.1534
 2044TIP3   OH227622   3.062   1.308  14.594  0.2832 -0.0573 -0.4102
 2044TIP3    H127623   3.041   1.327  14.685  2.0004 -1.0768  0.2456
 2044TIP3    H227624   3.104   1.222  14.596  0.1281 -0.2115 -2.2009
 2045TIP3   OH227625   1.834   2.942  13.472  0.6452  0.3264  0.4499
 2045TIP3    H127626   1.831   2.941  13.376 -0.3147  0.4007  0.4760
 2045TIP3    H227627   1.802   2.855  13.498 -0.5539  0.8349  0.7278
 2046TIP3   OH227628   4.095   0.174   1.444 -0.0818  0.1538 -0.1160
 2046TIP3    H127629   4.011   0.131   1.459  0.7407 -0.8045  2.2613
 2046TIP3    H227630   4.098   0.191   1.350 -2.4115 -0.8555 -0.4181
 2047TIP3   OH227631   2.228   4.951   0.294  0.2419  0.2391  0.3053
 2047TIP3    H127632   2.176   5.016   0.340  0.4477 -0.3504  1.4355
 2047TIP3    H227633   2.267   4.898   0.364  0.4961 -0.7668 -0.5632
 2048TIP3   OH227634   2.266   6.116  17.324 -0.3751 -0.4635 -0.3403
 2048TIP3    H127635   2.242   6.044  17.266  0.9683 -1.8058  0.7100
 2048TIP3    H227636   2.311   6.179  17.267 -0.0090 -1.2640 -0.9418
 2049TIP3   OH227637   2.076   2.891  15.094 -0.1968  0.1026  0.2361
 2049TIP3    H127638   1.998   2.883  15.039  0.3933 -1.3789 -0.4263
 2049TIP3    H227639   2.139   2.937  15.040 -0.0368 -0.2336  0.1363
 2050TIP3   OH227640   5.953   2.545  13.060  0.1622 -0.1117 -0.1284
 2050TIP3    H127641   5.985   2.470  13.010 -0.7715 -0.2334 -0.5747
 2050TIP3    H227642   5.862   2.524  13.079 -0.2039  1.0411 -0.5395
 2051TIP3   OH227643   4.689   6.700   3.166  0.0161  0.1399 -0.0236
 2051TIP3    H127644   4.650   6.775   3.121  0.0938  2.3784  3.3429
 2051TIP3    H227645   4.781   6.721   3.175  0.4738 -1.3699 -0.7997
 2052TIP3   OH227646   1.102   4.734  16.974 -0.3653 -0.0608  0.0076
 2052TIP3    H127647   1.124   4.777  16.891 -0.2652 -0.7001 -0.3034
 2052TIP3    H227648   1.077   4.645  16.949 -1.0222 -0.0511  0.5958
 2053TIP3   OH227649   1.176   4.474   3.261 -0.2436  0.1897 -0.4360
 2053TIP3    H127650   1.158   4.544   3.199 -0.3119  1.9001  1.3950
 2053TIP3    H227651   1.264   4.443   3.237 -0.7939 -0.1262 -2.1615
 2054TIP3   OH227652   6.002   0.153  12.049  0.2804 -0.0603 -0.1410
 2054TIP3    H127653   6.085   0.144  12.095 -0.9265 -3.2096  1.7145
 2054TIP3    H227654   5.957   0.226  12.094  0.6371 -0.6657  1.2360
 2055TIP3   OH227655   5.137   1.033   4.378 -0.2643 -0.5043  0.3053
 2055TIP3    H127656   5.229   1.031   4.355  0.1822 -1.5725  1.9772
 2055TIP3    H227657   5.124   1.118   4.421 -0.5597  0.4696 -1.5878
 2056TIP3   OH227658   1.063   2.607   1.364  0.3056 -0.0491  0.1476
 2056TIP3    H127659   0.987   2.659   1.388  0.3106  0.6288 -1.2254
 2056TIP3    H227660   1.138   2.662   1.386  0.3186  0.3990 -0.9400
 2057TIP3   OH227661   4.287   1.672   0.246  0.8522 -0.4149 -0.4678
 2057TIP3    H127662   4.353   1.730   0.207 -1.0202  0.2027 -2.9743
 2057TIP3    H227663   4.270   1.710   0.332 -0.0783  2.7691 -1.8886
 2058TIP3   OH227664   5.019   6.764  15.108 -0.2607  0.6140  0.2839
 2058TIP3    H127665   5.048   6.785  15.019 -1.6147 -1.2423 -0.6375
 2058TIP3    H227666   5.098   6.732  15.151  0.3006  1.0293 -0.3989
 2059TIP3   OH227667   3.428   5.604   0.964  0.5559 -0.0457 -0.0933
 2059TIP3    H127668   3.380   5.647   1.035 -0.2130 -1.9439  0.5856
 2059TIP3    H227669   3.509   5.656   0.956 -1.2123  2.8284 -0.8141
 2060TIP3   OH227670   0.463   0.154   1.895  0.1988 -0.0371  0.0476
 2060TIP3    H127671   0.530   0.094   1.929 -0.5727 -1.0468 -0.1621
 2060TIP3    H227672   0.476   0.234   1.946  2.8088  0.5042 -1.3054
 2061TIP3   OH227673   1.694   3.364   3.635 -0.5207  0.5882  0.0002
 2061TIP3    H127674   1.757   3.407   3.578 -0.3871  0.6180  0.1702
 2061TIP3    H227675   1.638   3.314   3.575  0.6657 -0.7386 -0.0331
 2062TIP3   OH227676   1.492   3.330   1.391  0.3186  0.4038 -0.1467
 2062TIP3    H127677   1.502   3.425   1.381 -0.1215  0.5115  0.3790
 2062TIP3    H227678   1.415   3.320   1.446 -1.5828 -0.3364 -2.7545
 2063TIP3   OH227679   1.633   0.257  16.973  0.4469  0.0975 -0.5599
 2063TIP3    H127680   1.550   0.209  16.970 -0.2930  1.1184  1.4948
 2063TIP3    H227681   1.685   0.209  17.038  1.1098  0.0191 -1.1397
 2064TIP3   OH227682   1.047   5.737   0.641  0.3881  0.5755 -0.2239
 2064TIP3    H127683   1.027   5.647   0.668 -1.7539  0.8165 -0.8250
 2064TIP3    H227684   1.020   5.790   0.716  1.1719  0.7895 -0.0769
 2065TIP3   OH227685   6.540   5.220  11.326 -0.2922 -0.2843 -0.2460
 2065TIP3    H127686   6.590   5.139  11.314 -1.0745 -0.5747 -1.8759
 2065TIP3    H227687   6.466   5.211  11.266 -1.0133  1.1614  0.3765
 2066TIP3   OH227688   0.036   5.918  11.974  0.1453 -0.3199 -0.0980
 2066TIP3    H127689   0.063   5.832  12.006 -0.3252 -0.3548  0.2130
 2066TIP3    H227690   0.114   5.973  11.984  0.2320 -0.5235  0.3981
 2067TIP3   OH227691   4.575   0.274  11.638  0.1010  0.7970  0.0177
 2067TIP3    H127692   4.650   0.302  11.586  1.4943  0.2333  1.6160
 2067TIP3    H227693   4.529   0.211  11.583  1.3426  0.4485 -0.6643
 2068TIP3   OH227694   5.449   6.616   4.550  0.0074 -0.1132  0.5287
 2068TIP3    H127695   5.518   6.674   4.583 -0.3184 -0.7730  2.4972
 2068TIP3    H227696   5.384   6.676   4.512  0.4481  0.7034  1.0245
 2069TIP3   OH227697   2.312   6.262  11.709  0.6506  0.5376 -0.1513
 2069TIP3    H127698   2.247   6.332  11.716 -0.4083 -0.4242 -0.1789
 2069TIP3    H227699   2.266   6.183  11.736  2.1437  0.0019  0.9949
 2070TIP3   OH227700   0.812   1.389  12.160 -0.1287  1.0247  0.0138
 2070TIP3    H127701   0.880   1.369  12.224 -0.3858 -0.6624 -0.2012
 2070TIP3    H227702   0.734   1.344  12.193 -0.4193  0.6324 -1.1668
 2071TIP3   OH227703   1.863   3.324  13.498 -0.0117 -0.3776 -0.3010
 2071TIP3    H127704   1.909   3.263  13.556 -0.8643 -0.3086  0.4909
 2071TIP3    H227705   1.924   3.343  13.428  0.4755 -1.7243 -0.2652
 2072TIP3   OH227706   5.458   1.977   2.269 -0.4061  0.4157 -0.6513
 2072TIP3    H127707   5.548   1.999   2.244 -0.7576  0.1848 -2.2448
 2072TIP3    H227708   5.456   1.990   2.364  0.8450  2.0833 -0.7935
 2073TIP3   OH227709   4.827   1.342  13.236 -0.2405 -0.4018 -0.0075
 2073TIP3    H127710   4.875   1.275  13.187 -0.8475 -0.9942  0.1961
 2073TIP3    H227711   4.849   1.424  13.191  0.9942 -0.6471  0.1210
 2074TIP3   OH227712   2.696   4.877  15.294 -0.6582 -0.3125  0.8421
 2074TIP3    H127713   2.732   4.793  15.324  1.6176 -0.3151 -1.5629
 2074TIP3    H227714   2.718   4.938  15.364  0.0576 -1.2139  1.4421
 2075TIP3   OH227715   0.847   5.759   1.158  0.3483  0.3221  0.2879
 2075TIP3    H127716   0.860   5.740   1.251  2.5470  2.7359  0.5887
 2075TIP3    H227717   0.760   5.798   1.153 -0.5014 -1.3901  1.0006
 2076TIP3   OH227718   1.755   6.135   6.164 -0.4296 -0.0545  0.5648
 2076TIP3    H127719   1.828   6.123   6.103 -0.5593 -1.4476  0.6610
 2076TIP3    H227720   1.769   6.069   6.231 -1.6873 -0.2212  0.6753
 2077TIP3   OH227721   3.571   3.282  12.473 -0.4072 -0.2539 -0.1376
 2077TIP3    H127722   3.618   3.286  12.389 -0.4912  0.9127 -0.1482
 2077TIP3    H227723   3.554   3.374  12.495 -1.2022 -0.5868  0.7032
 2078TIP3   OH227724   4.708   2.894   2.017 -0.1143 -0.1450 -0.6622
 2078TIP3    H127725   4.777   2.840   2.056 -0.5443  0.2438  0.7071
 2078TIP3    H227726   4.729   2.896   1.924  0.5326 -1.7587 -0.5914
 2079TIP3   OH227727   0.450   0.729  14.848  0.1671  0.6626 -0.0060
 2079TIP3    H127728   0.496   0.775  14.918  0.3005  1.6594 -0.7253
 2079TIP3    H227729   0.458   0.636  14.871  1.9031  0.8546  0.2796
 2080TIP3   OH227730   5.426   4.314  16.599 -0.1275  0.9757 -0.0301
 2080TIP3    H127731   5.384   4.300  16.514 -0.4666 -1.4131  0.4505
 2080TIP3    H227732   5.516   4.284  16.587  0.0706  1.4719  0.2144
 2081TIP3   OH227733   0.743   2.710  13.099 -0.3589  0.6627 -0.4183
 2081TIP3    H127734   0.769   2.648  13.167  2.3056 -1.3934 -3.0657
 2081TIP3    H227735   0.772   2.795  13.132  0.8124 -0.2547  1.0392
 2082TIP3   OH227736   4.240   4.832  13.462  0.0295 -0.0343  0.0295
 2082TIP3    H127737   4.256   4.744  13.427 -0.7408 -0.0969 -0.1741
 2082TIP3    H227738   4.327   4.867  13.478  0.3769 -1.4811  1.7180
 2083TIP3   OH227739   1.873   1.478  16.855 -0.1934  0.1726  0.0451
 2083TIP3    H127740   1.917   1.403  16.895  0.2238 -0.6031 -1.7656
 2083TIP3    H227741   1.924   1.554  16.884  0.4194 -0.4043  0.5168
 2084TIP3   OH227742   3.129   4.165  12.687 -0.2421  0.0877 -0.7885
 2084TIP3    H127743   3.089   4.245  12.721  0.7572  0.4335 -0.3914
 2084TIP3    H227744   3.220   4.188  12.673  0.2387 -1.1903  0.0459
 2085TIP3   OH227745   4.146   6.735  15.257 -0.1015  0.4243  0.2738
 2085TIP3    H127746   4.230   6.691  15.249 -0.3879  0.1372 -1.5372
 2085TIP3    H227747   4.087   6.668  15.292  0.2613  0.4402  0.9288
 2086TIP3   OH227748   0.767   0.364  15.410  0.3134 -0.4231 -0.1168
 2086TIP3    H127749   0.780   0.372  15.316 -0.8704  2.0980 -0.1627
 2086TIP3    H227750   0.676   0.338  15.420  0.2044  0.0995  0.3124
 2087TIP3   OH227751   3.919   3.449  10.759  0.6086 -0.0767  0.4729
 2087TIP3    H127752   3.949   3.505  10.688 -0.7929  0.5473  0.3495
 2087TIP3    H227753   3.989   3.385  10.769  1.0413  0.0884 -1.1570
 2088TIP3   OH227754   3.183   4.944  17.198 -0.1181 -0.2127  0.1152
 2088TIP3    H127755   3.137   4.861  17.209 -0.5970 -0.3105 -2.1685
 2088TIP3    H227756   3.117   5.010  17.220 -2.0736 -0.2903 -4.4793
 2089TIP3   OH227757   5.596   1.364  16.960 -0.2486 -0.3969 -0.7476
 2089TIP3    H127758   5.524   1.322  16.913 -0.3487 -0.0271 -0.9306
 2089TIP3    H227759   5.675   1.324  16.924 -0.3843 -1.5996  0.2259
 2090TIP3   OH227760   1.572   4.088   1.280  0.0721 -0.0951  0.1514
 2090TIP3    H127761   1.571   4.046   1.366 -0.8289 -0.6410 -0.1114
 2090TIP3    H227762   1.601   4.019   1.220 -0.3169 -0.0252 -0.1232
 2091TIP3   OH227763   4.554   6.546   3.839  0.5869 -0.8235  0.2204
 2091TIP3    H127764   4.615   6.559   3.912  2.1799 -2.0982 -0.7852
 2091TIP3    H227765   4.479   6.601   3.860  1.0988 -0.9342  2.6640
 2092TIP3   OH227766   3.262   2.235   2.023  0.4668 -0.0791 -0.4647
 2092TIP3    H127767   3.302   2.174   2.086  3.6492  2.7066  0.5097
 2092TIP3    H227768   3.186   2.270   2.068  1.1638 -0.0967  0.7657
 2093TIP3   OH227769   1.766   6.426  10.735 -0.0811 -0.6162 -0.4120
 2093TIP3    H127770   1.798   6.472  10.812 -0.5240  0.2119 -0.7077
 2093TIP3    H227771   1.842   6.418  10.678 -0.0393 -0.0850 -0.4342
 2094TIP3   OH227772   0.972   1.013  15.707  0.9283  0.2226  0.4507
 2094TIP3    H127773   0.903   1.002  15.772 -1.1879 -0.9056 -1.8468
 2094TIP3    H227774   0.961   1.102  15.674 -0.5050 -0.4373 -0.9746
 2095TIP3   OH227775   2.815   0.800   3.392  0.4420 -0.2988  0.5037
 2095TIP3    H127776   2.738   0.858   3.388  0.0484 -0.8830 -1.9612
 2095TIP3    H227777   2.888   0.860   3.405 -0.2923  0.3852  1.6815
 2096TIP3   OH227778   0.075   1.335   3.019  0.4814  0.3499 -0.0116
 2096TIP3    H127779   0.078   1.240   3.026  1.5190  0.4325  1.0522
 2096TIP3    H227780   0.152   1.365   3.067  0.0692  1.7379 -0.1645
 2097TIP3   OH227781   1.365   4.894   1.449 -0.1683  0.3888 -0.2670
 2097TIP3    H127782   1.282   4.921   1.489  0.3017  0.0105  1.0109
 2097TIP3    H227783   1.365   4.799   1.457  1.7446  0.5161  2.6764
 2098TIP3   OH227784   0.442   6.095  13.728 -0.1314  0.7935  0.6151
 2098TIP3    H127785   0.470   6.171  13.676  0.5488 -0.6904 -1.3521
 2098TIP3    H227786   0.503   6.026  13.702 -1.6211 -0.8112  1.2302
 2099TIP3   OH227787   3.440   2.767  16.675 -0.5235 -0.4569 -0.2892
 2099TIP3    H127788   3.515   2.816  16.641 -1.6044  1.7143  0.3358
 2099TIP3    H227789   3.478   2.709  16.741  0.5828  0.8968  0.3181
 2100TIP3   OH227790   0.873   5.925  10.998 -0.2068 -0.0065 -0.0100
 2100TIP3    H127791   0.915   5.981  10.933  0.8494  0.3352  0.9381
 2100TIP3    H227792   0.800   5.884  10.951  0.2621  0.5650 -1.2744
 2101TIP3   OH227793   0.152   1.939   4.201  0.0835  0.0421  0.8681
 2101TIP3    H127794   0.229   1.983   4.167  0.9010 -0.8911  1.4415
 2101TIP3    H227795   0.091   1.936   4.127  0.6216  0.7364  0.3910
 2102TIP3   OH227796   1.771   3.825  15.529  0.1613 -0.4128  0.2289
 2102TIP3    H127797   1.830   3.752  15.509  1.3693  0.0180  1.9518
 2102TIP3    H227798   1.748   3.813  15.621  2.3321  2.5799  1.3232
 2103TIP3   OH227799   5.645   3.458  13.931  0.1639  0.5847  0.7647
 2103TIP3    H127800   5.665   3.460  13.838 -1.8857  2.5183  0.2684
 2103TIP3    H227801   5.554   3.429  13.936  0.7259 -1.0967  2.3307
 2104TIP3   OH227802   0.401   4.239  15.495 -0.0636 -0.3383 -0.6206
 2104TIP3    H127803   0.418   4.145  15.488 -0.6740 -0.3748 -2.0695
 2104TIP3    H227804   0.475   4.280  15.451  0.5381 -0.0994  0.5994
 2105TIP3   OH227805   1.229   4.179   1.868 -0.1800  0.4535  0.5091
 2105TIP3    H127806   1.238   4.271   1.842  0.5713  0.2937  0.1598
 2105TIP3    H227807   1.173   4.141   1.800  1.2908  0.1730 -0.5984
 2106TIP3   OH227808   1.584   4.675  11.919  0.0462  0.0048  0.4356
 2106TIP3    H127809   1.521   4.680  11.847  0.6192 -0.6629 -0.1353
 2106TIP3    H227810   1.664   4.713  11.883  0.2981 -0.2058  0.7642
 2107TIP3   OH227811   5.389   1.436   4.795  0.0757 -0.1217 -0.3763
 2107TIP3    H127812   5.300   1.401   4.803 -0.4769  1.5947  1.8747
 2107TIP3    H227813   5.382   1.504   4.729 -0.5296  0.6341  0.4452
 2108TIP3   OH227814   1.221   3.841  11.291  0.3749  0.3057 -0.1085
 2108TIP3    H127815   1.222   3.820  11.198  0.1503 -0.0023 -0.0391
 2108TIP3    H227816   1.292   3.788  11.328 -1.3058 -1.7203  0.3695
 2109TIP3   OH227817   4.393   1.544  14.617  0.2756 -0.2722  0.0290
 2109TIP3    H127818   4.403   1.483  14.690 -1.7228  0.7794  1.2782
 2109TIP3    H227819   4.425   1.627  14.652 -2.8719  0.8129  0.6915
 2110TIP3   OH227820   3.565   6.537   0.664  0.3551  0.4299 -0.6629
 2110TIP3    H127821   3.500   6.509   0.728  0.0170 -0.5871 -1.4324
 2110TIP3    H227822   3.645   6.552   0.715  0.0769 -0.3092 -0.0017
 2111TIP3   OH227823   0.157   2.523   1.346 -0.2696 -0.2425  0.1614
 2111TIP3    H127824   0.099   2.447   1.344 -0.3640 -0.3206  2.4049
 2111TIP3    H227825   0.178   2.541   1.255  0.1901 -3.3120 -0.4456
 2112TIP3   OH227826   0.391   4.534   2.486 -0.0521 -0.6259  0.3362
 2112TIP3    H127827   0.473   4.541   2.535 -0.5332  2.6073  0.9244
 2112TIP3    H227828   0.411   4.570   2.400 -0.6311 -0.7864  0.1305
 2113TIP3   OH227829   5.541   0.302   6.038 -0.0831  0.5004  0.4847
 2113TIP3    H127830   5.504   0.379   5.994 -2.4634 -1.3867 -1.0562
 2113TIP3    H227831   5.516   0.313   6.130 -1.5058  0.9886  0.0673
 2114TIP3   OH227832   4.442   4.213   4.049  0.0086 -0.1003 -0.1408
 2114TIP3    H127833   4.460   4.147   3.982 -0.1914  0.5794 -0.8833
 2114TIP3    H227834   4.440   4.164   4.131  1.2478 -0.8070 -0.4993
 2115TIP3   OH227835   0.090   4.485   1.262 -0.0205 -0.3998  0.4869
 2115TIP3    H127836   0.184   4.474   1.248 -0.1634  0.5987 -1.6148
 2115TIP3    H227837   0.060   4.539   1.188 -2.1100 -0.0097  1.5231
 2116TIP3   OH227838   5.176   5.039   2.280  0.2493 -0.7808 -0.0335
 2116TIP3    H127839   5.152   4.980   2.352 -0.4296 -1.3646 -0.7114
 2116TIP3    H227840   5.154   4.989   2.201  0.6814 -0.0264 -0.6409
 2117TIP3   OH227841   5.031   6.279  15.906 -0.2335 -0.1647  0.1275
 2117TIP3    H127842   5.065   6.357  15.950  0.6632 -0.1318 -0.5924
 2117TIP3    H227843   5.047   6.208  15.968  1.4442 -0.1898 -0.2845
 2118TIP3   OH227844   6.265   3.090   3.284 -0.2376 -0.0799  0.2708
 2118TIP3    H127845   6.324   3.089   3.359  0.2681  1.1266 -0.1000
 2118TIP3    H227846   6.181   3.059   3.319  0.5230 -1.5842  0.8535
 2119TIP3   OH227847   4.274   1.414   0.181 -0.3464 -0.2001 -0.3493
 2119TIP3    H127848   4.302   1.503   0.203 -2.9608  1.2076 -2.1156
 2119TIP3    H227849   4.295   1.404   0.088 -1.9241 -0.5862 -0.6985
 2120TIP3   OH227850   5.033   5.682  13.414  0.0735  0.0986  0.5577
 2120TIP3    H127851   5.073   5.596  13.398  0.0212 -0.0377  1.1425
 2120TIP3    H227852   5.030   5.723  13.328  2.1609  0.4212  0.5846
 2121TIP3   OH227853   0.346   4.704  13.827  0.1374  0.1721 -0.0517
 2121TIP3    H127854   0.416   4.692  13.763 -0.9911 -0.6528 -1.1775
 2121TIP3    H227855   0.387   4.683  13.911  1.0166 -1.1667 -0.7802
 2122TIP3   OH227856   3.844   1.683  17.396  0.0792  0.0778  0.1953
 2122TIP3    H127857   3.862   1.700  17.489  0.9151 -0.2864  0.1049
 2122TIP3    H227858   3.928   1.696  17.352  0.0170 -1.1035 -0.3207
 2123TIP3   OH227859   3.272   2.028  11.652  0.0661 -0.5068 -0.0693
 2123TIP3    H127860   3.303   2.110  11.690  0.6248 -1.3419  1.3425
 2123TIP3    H227861   3.237   1.979  11.726 -0.3438 -1.5201 -0.9116
 2124TIP3   OH227862   1.131   5.728   5.896 -0.4088  0.2135  0.5735
 2124TIP3    H127863   1.218   5.721   5.935 -0.7679 -0.4789  1.2843
 2124TIP3    H227864   1.128   5.658   5.831  0.3328  1.6182 -1.0401
 2125TIP3   OH227865   5.298   5.493  14.849 -0.1319  0.1422 -0.1485
 2125TIP3    H127866   5.393   5.505  14.849 -0.3729  2.6117  0.3300
 2125TIP3    H227867   5.272   5.504  14.757 -0.0921  0.8790 -0.0720
 2126TIP3   OH227868   0.954   3.399  16.679  0.3633 -0.4559 -0.1794
 2126TIP3    H127869   0.960   3.421  16.772  1.7640 -0.0337 -0.3595
 2126TIP3    H227870   0.925   3.480  16.637 -0.9304 -0.8273 -0.0579
 2127TIP3   OH227871   4.549   6.696   4.559 -0.1046  0.1027 -1.1842
 2127TIP3    H127872   4.631   6.686   4.607 -0.3232 -0.1114 -0.8520
 2127TIP3    H227873   4.516   6.781   4.586 -1.1466 -0.7802  0.4906
 2128TIP3   OH227874   5.673   6.192  13.113 -0.1509  0.2965 -0.6324
 2128TIP3    H127875   5.641   6.281  13.100 -0.2052  0.4513  0.4706
 2128TIP3    H227876   5.713   6.169  13.029 -0.3791  1.2483 -1.0226
 2129TIP3   OH227877   5.810   5.401  15.820 -0.2774  0.0149 -0.5381
 2129TIP3    H127878   5.879   5.452  15.863  0.5901  0.2544 -2.1701
 2129TIP3    H227879   5.793   5.329  15.880  1.4643 -0.1080 -0.1469
 2130TIP3   OH227880   4.819   3.581   5.096 -0.2359 -0.5144 -0.2231
 2130TIP3    H127881   4.813   3.491   5.129 -0.3986 -1.1993 -2.0206
 2130TIP3    H227882   4.826   3.635   5.175 -0.8859 -2.0337  0.9199
 2131TIP3   OH227883   4.384   3.978   4.833 -0.2522 -0.3223 -0.0463
 2131TIP3    H127884   4.368   4.068   4.861  1.4063  0.1020 -0.4076
 2131TIP3    H227885   4.447   3.985   4.761  0.2257 -1.7940  0.1895
 2132TIP3   OH227886   4.285   1.256  15.302  0.4570 -0.5614  0.0127
 2132TIP3    H127887   4.248   1.208  15.228  0.2363 -0.9681  0.3769
 2132TIP3    H227888   4.301   1.344  15.269  1.9714 -1.1848 -1.0284
 2133TIP3   OH227889   0.775   6.044  15.423  0.2851  0.1370  0.1566
 2133TIP3    H127890   0.687   6.075  15.403 -0.3002 -0.3299  1.8314
 2133TIP3    H227891   0.808   6.105  15.489  0.7723 -0.3295  0.3565
 2134TIP3   OH227892   5.332   2.670   0.719  0.0637  0.4749 -0.0564
 2134TIP3    H127893   5.273   2.598   0.742  0.1418  0.4008 -0.0862
 2134TIP3    H227894   5.332   2.727   0.795  1.3060 -0.4149  0.6549
 2135TIP3   OH227895   4.777   2.780   2.844  0.0343  0.2026 -0.0534
 2135TIP3    H127896   4.852   2.840   2.849 -1.0040  1.4906  0.9981
 2135TIP3    H227897   4.701   2.836   2.858 -0.9425 -1.4920  2.0885
 2136TIP3   OH227898   0.014   3.166   1.561  0.4014  0.9422  0.0866
 2136TIP3    H127899  -0.045   3.111   1.510 -0.2644  2.1419 -0.4718
 2136TIP3    H227900   0.102   3.134   1.540 -0.0060 -0.9111  0.9732
 2137TIP3   OH227901   4.880   2.346  14.962  0.1021  0.2464 -0.1629
 2137TIP3    H127902   4.870   2.380  14.872 -0.5165 -1.6908 -0.8758
 2137TIP3    H227903   4.972   2.361  14.983 -0.0367  1.9297 -0.5784
 2138TIP3   OH227904   5.234   5.852   3.195  0.3225 -0.4176  0.1971
 2138TIP3    H127905   5.236   5.821   3.286  0.0434 -1.2399 -0.0639
 2138TIP3    H227906   5.143   5.841   3.168 -0.0778  1.8589  0.4744
 2139TIP3   OH227907   3.903   2.732   3.914 -0.4539 -0.4692  0.0217
 2139TIP3    H127908   3.906   2.808   3.973  0.0667  0.0171 -0.6196
 2139TIP3    H227909   3.991   2.696   3.917 -0.6303 -0.9019  0.1177
 2140TIP3   OH227910   6.193   3.642   4.441  0.3297 -0.4126 -0.2954
 2140TIP3    H127911   6.159   3.580   4.506 -1.5934 -1.4692 -2.2171
 2140TIP3    H227912   6.122   3.654   4.379  1.1305  2.7324 -0.7636
 2141TIP3   OH227913   3.495   4.579   6.006 -0.2500 -0.3600  0.4753
 2141TIP3    H127914   3.410   4.560   5.967 -0.5074  2.4662 -0.5914
 2141TIP3    H227915   3.477   4.645   6.073  1.1198  0.7852 -0.2225
 2142TIP3   OH227916   4.224   5.839  11.309  0.2485 -0.5033 -0.0836
 2142TIP3    H127917   4.152   5.834  11.373 -0.3288  0.6195 -0.6246
 2142TIP3    H227918   4.277   5.761  11.327 -1.1978 -1.4653  0.2033
 2143TIP3   OH227919   1.973   4.723   6.248  0.1267  0.1119  0.3292
 2143TIP3    H127920   1.902   4.745   6.187 -0.5881 -1.5262  0.5255
 2143TIP3    H227921   1.979   4.799   6.305  1.5911  2.2518 -2.3906
 2144TIP3   OH227922   6.603   5.997   1.815 -0.0726 -0.3210 -0.3317
 2144TIP3    H127923   6.525   6.050   1.828  0.1330 -0.3652  1.2623
 2144TIP3    H227924   6.654   6.046   1.750 -1.2666 -0.1519 -1.1810
 2145TIP3   OH227925   6.419   6.240  12.674  0.0833  0.3619  0.0725
 2145TIP3    H127926   6.408   6.154  12.713 -1.9264  0.9410  0.9042
 2145TIP3    H227927   6.492   6.280  12.722 -0.0681 -0.2499  0.8173
 2146TIP3   OH227928   2.906   0.980   5.277 -0.0505  0.1250 -0.1631
 2146TIP3    H127929   2.881   1.007   5.365  0.8435 -1.2168  0.5270
 2146TIP3    H227930   2.985   1.032   5.258 -0.0870  0.2146 -0.0733
 2147TIP3   OH227931   1.764   0.347  12.472 -0.1037 -0.4600 -0.1080
 2147TIP3    H127932   1.781   0.257  12.499 -0.0503  0.0785  1.8376
 2147TIP3    H227933   1.801   0.353  12.384  0.4896 -2.1444 -0.0173
 2148TIP3   OH227934   0.562   4.298   3.499  0.3635  0.3452  0.7155
 2148TIP3    H127935   0.583   4.370   3.558 -0.4493  1.2655 -0.0790
 2148TIP3    H227936   0.471   4.277   3.516 -0.0936  1.0887 -0.6497
 2149TIP3   OH227937   3.922   2.177   2.923 -0.1406  0.2579  0.1825
 2149TIP3    H127938   3.921   2.272   2.908 -2.4366  0.4749  1.2571
 2149TIP3    H227939   3.999   2.162   2.977  0.1442  1.5475  0.1671
 2150TIP3   OH227940   5.594   4.569   1.616  0.1067 -0.1747  0.3016
 2150TIP3    H127941   5.599   4.628   1.541  1.1214 -0.8587 -0.1996
 2150TIP3    H227942   5.680   4.576   1.657 -0.4618  0.2435  1.4552
 2151TIP3   OH227943   5.159   1.483  14.164  0.1912  0.2748 -0.3773
 2151TIP3    H127944   5.238   1.445  14.203 -0.5508 -1.0989 -0.1388
 2151TIP3    H227945   5.141   1.561  14.217 -0.4857 -1.2389  1.7687
 2152TIP3   OH227946   5.558   3.410  13.496  0.1980  0.2781 -0.1214
 2152TIP3    H127947   5.647   3.388  13.468  0.4711 -0.6662  1.3724
 2152TIP3    H227948   5.502   3.363  13.436  0.6865  0.8773 -1.0779
 2153TIP3   OH227949   0.858   4.527   4.803 -0.1097  0.1998 -0.1760
 2153TIP3    H127950   0.779   4.474   4.816  0.8872 -1.2503  0.1907
 2153TIP3    H227951   0.847   4.601   4.863 -1.5529  0.4698 -0.7313
 2154TIP3   OH227952   1.753   1.717  15.557  0.7615 -0.0873 -0.3163
 2154TIP3    H127953   1.677   1.696  15.610  0.5522 -1.5215 -1.1432
 2154TIP3    H227954   1.820   1.742  15.620 -0.4738  1.6248  0.4090
 2155TIP3   OH227955   0.162   1.281  12.937  0.0431  0.0757  0.0362
 2155TIP3    H127956   0.204   1.213  12.884  2.2252  0.0880  1.6111
 2155TIP3    H227957   0.107   1.233  12.999  0.2845 -0.1465  0.0777
 2156TIP3   OH227958   4.079   3.038  17.300 -0.0170 -0.6218  0.0675
 2156TIP3    H127959   4.023   3.002  17.370  0.6637 -1.2814  0.2861
 2156TIP3    H227960   4.119   2.961  17.260  1.6953 -0.1022  0.7203
 2157TIP3   OH227961   0.018   2.706   5.312  0.0590 -0.3089  0.4459
 2157TIP3    H127962   0.061   2.622   5.329  0.4008 -0.1063  0.5910
 2157TIP3    H227963   0.064   2.768   5.369  1.0015  0.3135 -0.9450
 2158TIP3   OH227964   2.822   3.778  13.522 -0.1705  0.4476  0.0357
 2158TIP3    H127965   2.889   3.815  13.464 -0.4169  1.2372  0.2368
 2158TIP3    H227966   2.825   3.684  13.506  0.1315  0.6016 -0.8643
 2159TIP3   OH227967   1.787   1.936   1.758 -0.7365  0.1794  0.8134
 2159TIP3    H127968   1.724   2.003   1.732 -1.0013 -1.4026 -3.4947
 2159TIP3    H227969   1.734   1.864   1.792 -0.7631  0.7602  2.0252
 2160TIP3   OH227970   3.431   1.061  15.805 -0.0269  0.0271  0.4527
 2160TIP3    H127971   3.339   1.078  15.785  0.7929  2.1427 -2.0335
 2160TIP3    H227972   3.442   0.967  15.787 -1.6201 -0.1821  0.4365
 2161TIP3   OH227973   4.300   0.665   3.654  0.0443 -0.4998  0.2019
 2161TIP3    H127974   4.352   0.688   3.731 -0.7823  1.0463  0.3396
 2161TIP3    H227975   4.362   0.621   3.595  1.6548  1.5927  0.1948
 2162TIP3   OH227976   6.352   3.429   5.947 -0.0923 -0.2237 -0.6711
 2162TIP3    H127977   6.443   3.413   5.923 -0.5299 -0.0996 -2.5285
 2162TIP3    H227978   6.301   3.376   5.887 -1.2679 -0.5830  0.5886
 2163TIP3   OH227979   1.176   2.958   1.191 -0.0830 -0.6052  0.4414
 2163TIP3    H127980   1.092   2.913   1.180 -0.2657 -1.4743  4.0642
 2163TIP3    H227981   1.153   3.051   1.198 -0.3983 -0.5460 -1.0581
 2164TIP3   OH227982   6.276   4.282   3.960  0.6992  0.1366  1.0253
 2164TIP3    H127983   6.212   4.342   3.998 -1.0739 -2.0848  1.7348
 2164TIP3    H227984   6.265   4.201   4.009  2.1427 -1.1808 -0.6996
 2165TIP3   OH227985   0.052   1.273  16.808 -0.3611 -0.1109  0.3222
 2165TIP3    H127986  -0.036   1.268  16.772  0.3080 -0.1809 -1.4087
 2165TIP3    H227987   0.101   1.206  16.759  0.5017 -0.5634  1.7383
 2166TIP3   OH227988   5.413   5.090   3.200  0.1812  0.0508 -0.3446
 2166TIP3    H127989   5.414   5.176   3.159 -2.6851 -0.3386 -1.4838
 2166TIP3    H227990   5.488   5.091   3.260  1.7201  2.3789 -2.1318
 2167TIP3   OH227991   4.659   6.239   4.692  0.2668  0.9131 -0.3691
 2167TIP3    H127992   4.732   6.193   4.650 -1.6772 -3.2145  0.2659
 2167TIP3    H227993   4.623   6.295   4.624  1.3991 -0.2715 -2.0000
 2168TIP3   OH227994   3.656   3.190   3.534  0.7379 -0.3311 -0.3634
 2168TIP3    H127995   3.654   3.174   3.439 -0.4355 -0.1536 -0.3756
 2168TIP3    H227996   3.564   3.195   3.560  1.0324 -1.1330  0.9217
 2169TIP3   OH227997   5.204   0.849   6.208 -0.3321 -0.0428 -0.6507
 2169TIP3    H127998   5.286   0.804   6.186  0.4635  1.2700 -0.5287
 2169TIP3    H227999   5.209   0.862   6.302 -1.6769 -1.7674 -0.3034
 2170TIP3   OH228000   0.661   6.734  10.722 -0.7529  0.2837  0.1515
 2170TIP3    H128001   0.706   6.793  10.661  1.6747 -0.9949  0.5710
 2170TIP3    H228002   0.638   6.790  10.797 -0.9998  1.2254 -0.6041
 2171TIP3   OH228003   4.282   6.685  16.977 -0.0251 -0.2410 -0.5061
 2171TIP3    H128004   4.216   6.621  16.951  2.1681 -2.1270 -1.9529
 2171TIP3    H228005   4.316   6.652  17.061  0.8223 -0.8027 -1.0492
 2172TIP3   OH228006   5.509   3.121   2.469 -0.3105 -0.2600 -0.1286
 2172TIP3    H128007   5.531   3.109   2.377  1.7644  0.0138  0.2863
 2172TIP3    H228008   5.459   3.202   2.472 -1.4441 -0.8935 -1.1325
 2173TIP3   OH228009   6.134   2.699   5.946 -0.4869 -0.7986  0.2352
 2173TIP3    H128010   6.199   2.733   6.008 -1.4839  1.7485  0.0253
 2173TIP3    H228011   6.100   2.620   5.988  1.0605 -0.8783  1.4505
 2174TIP3   OH228012   1.926   5.457  16.704  0.3068  0.0731  0.3805
 2174TIP3    H128013   1.989   5.392  16.675  0.6270  0.7065 -0.3766
 2174TIP3    H228014   1.844   5.432  16.662  0.6871  0.7803 -0.8271
 2175TIP3   OH228015   5.788   0.609  14.082 -0.4817  0.2214  0.8003
 2175TIP3    H128016   5.748   0.636  13.999  0.2376 -1.6239 -0.1998
 2175TIP3    H228017   5.875   0.649  14.081 -0.3118 -0.1446  0.4364
 2176TIP3   OH228018   6.066   0.272   3.922 -0.7561  0.6980  0.1319
 2176TIP3    H128019   6.122   0.258   3.998  1.2319  1.6554 -1.0818
 2176TIP3    H228020   5.977   0.275   3.958  0.1684  1.8903  2.5333
 2177TIP3   OH228021   6.739   5.790  11.716 -0.1721 -0.0835  0.1231
 2177TIP3    H128022   6.762   5.716  11.772 -0.1682  0.0716  0.3278
 2177TIP3    H228023   6.782   5.865  11.757  0.8662 -0.1650 -0.7758
 2178TIP3   OH228024   3.074   0.324  14.053  0.1341  0.1766  0.0298
 2178TIP3    H128025   3.099   0.398  13.998  0.3199 -1.6120 -2.4647
 2178TIP3    H228026   2.980   0.336  14.069  0.3095  1.2895  0.2412
 2179TIP3   OH228027   5.549   0.126   2.596 -0.9736 -0.0590 -0.6422
 2179TIP3    H128028   5.535   0.094   2.507 -1.4241 -0.0735 -0.5704
 2179TIP3    H228029   5.461   0.128   2.635 -0.8786  0.7010 -0.4508
 2180TIP3   OH228030   1.538   5.244  17.297  0.9499 -0.7634  0.3033
 2180TIP3    H128031   1.544   5.256  17.202  1.0060  1.0904  0.5007
 2180TIP3    H228032   1.627   5.260  17.328  0.7188 -0.3225  0.7500
 2181TIP3   OH228033   0.374   0.601   0.598 -0.1958 -0.0974 -0.2336
 2181TIP3    H128034   0.429   0.526   0.578  0.4472  0.0360  0.9588
 2181TIP3    H228035   0.434   0.676   0.596 -0.7269  0.3284 -0.8924
 2182TIP3   OH228036   1.109   5.406   4.924 -0.8892 -0.2065  0.1609
 2182TIP3    H128037   1.077   5.434   5.009 -0.6437  1.7600 -0.3540
 2182TIP3    H228038   1.204   5.412   4.931 -0.8541 -0.4085 -0.1281
 2183TIP3   OH228039   4.631   1.280   0.622  0.1802 -0.1664 -0.2505
 2183TIP3    H128040   4.632   1.341   0.695 -0.0942 -0.4169 -0.0360
 2183TIP3    H228041   4.681   1.204   0.652 -0.4146 -0.5096 -0.1081
 2184TIP3   OH228042   5.693   4.547   6.246  0.0953 -0.2180 -0.0774
 2184TIP3    H128043   5.617   4.560   6.189 -0.0668 -1.3084 -0.1406
 2184TIP3    H228044   5.753   4.618   6.224  0.2874 -0.9125 -2.0361
 2185TIP3   OH228045   1.221   5.944   1.486 -0.2990  0.0892  0.0278
 2185TIP3    H128046   1.256   5.929   1.574  2.1497 -3.0591 -1.2733
 2185TIP3    H228047   1.182   5.860   1.462  0.9653  0.1540 -2.5841
 2186TIP3   OH228048   6.159   4.161  12.972  0.3287 -0.5217  0.0974
 2186TIP3    H128049   6.109   4.129  12.897  1.3762 -1.1614 -0.3390
 2186TIP3    H228050   6.217   4.228  12.936  0.1302 -0.1131  0.5198
 2187TIP3   OH228051   2.641   6.037  10.724  0.3411 -0.0533  0.1551
 2187TIP3    H128052   2.591   6.106  10.768  0.3798  1.2683 -1.7747
 2187TIP3    H228053   2.722   6.030  10.775  0.0741  0.8929  0.7345
 2188TIP3   OH228054   2.488   5.791   3.801  0.9882 -0.5179  0.2173
 2188TIP3    H128055   2.452   5.756   3.882  1.4541 -0.3408  0.5025
 2188TIP3    H228056   2.550   5.857   3.829 -0.1897  0.8717 -0.3228
 2189TIP3   OH228057   4.155   2.098   3.059 -0.3165  0.2237 -0.5733
 2189TIP3    H128058   4.093   2.025   3.055 -1.1188  0.6718  1.8678
 2189TIP3    H228059   4.240   2.057   3.045 -0.9034 -0.8498 -1.2067
 2190TIP3   OH228060   0.106   0.078  15.084 -0.0371  0.3995  0.6231
 2190TIP3    H128061   0.122  -0.000  15.137 -0.3910 -0.1182 -0.0130
 2190TIP3    H228062   0.167   0.143  15.118  1.0393 -0.4905  0.4512
 2191TIP3   OH228063   2.379   5.901   4.280  0.0903  0.0817 -0.2286
 2191TIP3    H128064   2.336   5.985   4.297 -0.4098  0.3536 -2.5868
 2191TIP3    H228065   2.308   5.843   4.254  0.5969 -0.7312  0.1788
 2192TIP3   OH228066   1.702   0.422  13.659  0.3631 -0.1914  0.5186
 2192TIP3    H128067   1.651   0.377  13.727 -1.4232  0.5541 -0.2666
 2192TIP3    H228068   1.637   0.447  13.593  1.8724  0.1903 -0.8831
 2193TIP3   OH228069   5.316   5.636   2.210  0.0253  0.5768  0.0378
 2193TIP3    H128070   5.378   5.686   2.158 -0.3652  0.5850 -0.4248
 2193TIP3    H228071   5.365   5.558   2.237  0.3442  0.7554 -0.0193
 2194TIP3   OH228072   0.514   0.424  14.879  0.3181 -0.3884  0.0110
 2194TIP3    H128073   0.550   0.481  14.947 -0.3679 -3.8112  3.6523
 2194TIP3    H228074   0.590   0.392  14.831  1.0321  0.6685  0.4070
 2195TIP3   OH228075   2.301   1.352  14.536 -0.0431  0.6819 -0.0316
 2195TIP3    H128076   2.390   1.382  14.520  0.4668 -0.6150  0.2622
 2195TIP3    H228077   2.305   1.311  14.622 -1.1278  1.3223  0.3522
 2196TIP3   OH228078   2.877   2.978  11.467 -0.6474 -0.5548 -0.0332
 2196TIP3    H128079   2.962   3.022  11.480 -0.5043 -0.2205 -1.8639
 2196TIP3    H228080   2.824   3.007  11.541  0.4752  0.1397  0.5346
 2197TIP3   OH228081   1.463   0.151   4.367 -0.1432  0.2511 -0.4868
 2197TIP3    H128082   1.476   0.243   4.344 -2.3013  0.6668 -0.3438
 2197TIP3    H228083   1.468   0.150   4.463  2.5727 -0.3203 -0.5832
 2198TIP3   OH228084   4.958   4.692  17.249 -0.6826 -0.7135 -0.3501
 2198TIP3    H128085   4.891   4.754  17.280  0.0845 -0.6421  1.2633
 2198TIP3    H228086   5.006   4.741  17.183  0.7838  1.0401  1.8251
 2199TIP3   OH228087   5.457   2.045   5.321  0.8776 -0.5453 -0.3775
 2199TIP3    H128088   5.447   2.138   5.305  0.2487 -0.3103  1.1656
 2199TIP3    H228089   5.540   2.022   5.279  1.2254  0.7789 -0.4654
 2200TIP3   OH228090   0.631   4.352  15.376  0.5999  0.0089  0.3905
 2200TIP3    H128091   0.608   4.381  15.287 -0.4264 -0.8181  0.3678
 2200TIP3    H228092   0.682   4.425  15.412 -0.9873  1.4003 -0.0400
 2201TIP3   OH228093   4.013   0.043  13.034 -0.3703 -0.4148 -0.3287
 2201TIP3    H128094   4.107   0.056  13.025 -0.1506 -1.7235 -0.1181
 2201TIP3    H228095   3.975   0.130  13.019  0.6801 -0.3115 -2.8404
 2202TIP3   OH228096   2.878   0.246   4.149 -0.5000  0.3993  0.8574
 2202TIP3    H128097   2.888   0.282   4.238  1.0951 -0.6266  1.1329
 2202TIP3    H228098   2.860   0.154   4.163 -2.9925  0.7146  0.1250
 2203TIP3   OH228099   5.196   2.262   4.853  0.0655 -0.0931 -0.1519
 2203TIP3    H128100   5.130   2.238   4.919 -0.1912  1.2731  0.1274
 2203TIP3    H228101   5.192   2.193   4.788 -0.3959 -0.9506  0.7592
 2204TIP3   OH228102   1.324   2.130  17.224 -0.2069  0.0271 -0.1010
 2204TIP3    H128103   1.349   2.189  17.295 -0.3709  1.8423 -1.4624
 2204TIP3    H228104   1.255   2.178  17.177  1.0041 -0.3696 -2.4128
 2205TIP3   OH228105   6.680   4.339  13.493 -0.4584 -0.6817  0.1905
 2205TIP3    H128106   6.737   4.351  13.417 -1.2687 -1.0591 -0.5044
 2205TIP3    H228107   6.698   4.251  13.523  0.2243 -0.3562  0.7573
 2206TIP3   OH228108   0.577   5.308  17.156 -0.6645 -0.3580  0.5325
 2206TIP3    H128109   0.611   5.255  17.228  0.4867  1.2547  1.2179
 2206TIP3    H228110   0.520   5.372  17.197 -0.6615  0.0462 -0.0778
 2207TIP3   OH228111   1.782   6.488  17.270  0.0639 -0.1547  0.0760
 2207TIP3    H128112   1.809   6.468  17.181 -0.4443  0.6287 -0.2687
 2207TIP3    H228113   1.833   6.565  17.294  0.4107 -0.5358  0.5732
 2208TIP3   OH228114   2.359   2.088  11.679  0.0464  0.1482  0.6299
 2208TIP3    H128115   2.351   2.171  11.633 -1.8837  0.9557  2.2382
 2208TIP3    H228116   2.313   2.025  11.623 -0.6874  0.7165  0.5804
 2209TIP3   OH228117   0.945   0.267  12.643 -0.0975  0.1245 -0.0513
 2209TIP3    H128118   0.912   0.349  12.678 -1.4490 -0.2906 -0.2927
 2209TIP3    H228119   0.889   0.200  12.682  1.1504 -0.7191  0.3446
 2210TIP3   OH228120   4.974   6.159   6.096 -0.8310 -0.0859 -0.2262
 2210TIP3    H128121   4.940   6.138   6.183  1.7028  0.1982  0.9205
 2210TIP3    H228122   4.902   6.205   6.053 -2.4300 -0.9238  1.4129
 2211TIP3   OH228123   5.711   4.083  12.721 -0.0776 -0.2752 -0.1728
 2211TIP3    H128124   5.626   4.065  12.681 -0.5836 -0.0435  0.7773
 2211TIP3    H228125   5.721   4.014  12.787  0.5994 -0.4600 -0.4646
 2212TIP3   OH228126   3.086   3.401  14.899 -0.2091 -0.5252  0.0298
 2212TIP3    H128127   3.149   3.344  14.942  1.1275  0.0788 -1.0708
 2212TIP3    H228128   3.129   3.428  14.818 -0.7827  2.0298  0.5001
 2213TIP3   OH228129   3.372   5.866   3.073  0.1405 -0.6161  0.0614
 2213TIP3    H128130   3.431   5.924   3.122 -0.2144 -0.0704 -0.1593
 2213TIP3    H228131   3.365   5.788   3.128  2.0597 -1.2355 -0.4598
 2214TIP3   OH228132   0.942   5.598  16.940  0.0899 -0.4038 -0.1489
 2214TIP3    H128133   0.897   5.670  16.896 -2.0550 -1.2001  0.6078
 2214TIP3    H228134   1.013   5.574  16.881 -0.8395  0.5350 -1.7127
 2215TIP3   OH228135   5.380   6.505   4.877  0.7434 -1.1373  0.5900
 2215TIP3    H128136   5.345   6.434   4.931 -1.0163 -0.6595  0.1449
 2215TIP3    H228137   5.431   6.461   4.809 -1.3362 -2.1074 -0.4287
 2216TIP3   OH228138   0.401   5.660   1.941 -0.0520 -0.1221  0.3406
 2216TIP3    H128139   0.492   5.683   1.923 -0.0076  0.6741  1.4295
 2216TIP3    H228140   0.397   5.566   1.929  0.6322 -0.0246 -0.8388
 2217TIP3   OH228141   1.009   2.534   4.995  0.3196 -0.1071  0.0391
 2217TIP3    H128142   0.929   2.586   4.993 -0.1908 -0.9033 -0.7298
 2217TIP3    H228143   1.051   2.552   4.911  1.6893  1.3935  0.9729
 2218TIP3   OH228144   3.460   5.876  15.237  0.1083  1.2340 -0.1492
 2218TIP3    H128145   3.501   5.937  15.175  0.2951  0.3310 -0.9189
 2218TIP3    H228146   3.532   5.851  15.296  0.1164  1.4695 -0.0573
 2219TIP3   OH228147   1.860   0.661  13.690 -0.2953 -0.5824 -0.5929
 2219TIP3    H128148   1.873   0.658  13.785 -2.3704  1.7254 -0.1190
 2219TIP3    H228149   1.813   0.581  13.669  2.0445 -2.1790 -0.1092
 2220TIP3   OH228150   4.104   2.627   5.432  0.1593  0.4742  0.5007
 2220TIP3    H128151   4.012   2.634   5.456 -0.0979 -0.0151 -0.3004
 2220TIP3    H228152   4.122   2.708   5.382  0.5202  1.1783  1.7281
 2221TIP3   OH228153   5.067   1.235   2.537 -0.4183 -0.3261  0.4671
 2221TIP3    H128154   5.000   1.274   2.593 -0.2223 -0.1776  0.5979
 2221TIP3    H228155   5.149   1.276   2.565 -0.3984  0.1932 -0.3239
 2222TIP3   OH228156   2.586   5.417  16.905  0.4819  0.7503  0.0582
 2222TIP3    H128157   2.638   5.462  16.838  0.1811  1.2532  0.1563
 2222TIP3    H228158   2.650   5.381  16.966  0.7058  2.0095  0.5970
 2223TIP3   OH228159   3.533   0.215  11.856  0.2830 -0.5080  0.1364
 2223TIP3    H128160   3.599   0.284  11.869 -0.1486  0.6196 -2.7202
 2223TIP3    H228161   3.572   0.137  11.894  2.9911  0.2818 -0.7333
 2224TIP3   OH228162   0.779   2.672   6.346  0.5713 -0.1702  0.0638
 2224TIP3    H128163   0.765   2.764   6.326  0.9462  0.1646  1.2338
 2224TIP3    H228164   0.816   2.635   6.266  4.0930  1.5656  0.6725
 2225TIP3   OH228165   0.598   4.477  13.229 -0.0077  0.0982 -0.2038
 2225TIP3    H128166   0.550   4.473  13.146  0.5341  3.2235 -0.7666
 2225TIP3    H228167   0.626   4.568  13.236  1.9722 -0.6157  2.3126
 2226TIP3   OH228168   0.346   1.492  14.125 -0.3950 -0.9008 -0.1318
 2226TIP3    H128169   0.311   1.514  14.038  1.1235 -1.1437 -0.8435
 2226TIP3    H228170   0.269   1.485  14.181 -1.2873  1.6847 -0.8809
 2227TIP3   OH228171   3.683   4.472  14.008  0.2001  0.3769 -0.3622
 2227TIP3    H128172   3.611   4.497  14.065 -0.0164  0.4036 -0.6472
 2227TIP3    H228173   3.758   4.464  14.067  0.2006  1.3628 -0.2124
 2228TIP3   OH228174   6.239   1.299   0.162  0.6260 -0.6025 -0.5407
 2228TIP3    H128175   6.295   1.369   0.195  1.4824 -0.8727 -1.3801
 2228TIP3    H228176   6.164   1.298   0.221  0.9196  0.5812 -0.1349
 2229TIP3   OH228177   0.633   5.045  12.680  0.1796  0.3093  0.5068
 2229TIP3    H128178   0.696   5.009  12.617 -1.5049 -0.1439 -1.0113
 2229TIP3    H228179   0.685   5.103  12.736  2.2425 -1.3642  0.4471
 2230TIP3   OH228180   6.390   3.282  14.430  0.2269  0.2894 -0.7207
 2230TIP3    H128181   6.395   3.336  14.509  2.3551  0.6969 -1.0603
 2230TIP3    H228182   6.481   3.261  14.411 -0.2485  0.1289 -3.0149
 2231TIP3   OH228183   4.841   4.640  12.595  0.0123 -0.2160 -0.4351
 2231TIP3    H128184   4.785   4.580  12.644 -0.5919 -1.5256 -2.5930
 2231TIP3    H228185   4.888   4.585  12.533  1.7410  1.1994 -0.4678
 2232TIP3   OH228186   2.746   2.455  11.938  0.0508 -0.0127  0.0145
 2232TIP3    H128187   2.724   2.542  11.970 -0.1957 -0.2847  0.6027
 2232TIP3    H228188   2.842   2.455  11.934  0.0208  1.2413 -2.7511
 2233TIP3   OH228189   4.117   5.603   0.374 -0.4384 -0.1601 -0.5562
 2233TIP3    H128190   4.119   5.564   0.287  0.0416 -0.3642 -0.4579
 2233TIP3    H228191   4.151   5.692   0.361 -0.8706 -0.0077 -0.6629
 2234TIP3   OH228192   6.749   4.084   2.385  0.4496 -0.6896  0.1069
 2234TIP3    H128193   6.727   4.054   2.297  1.1587  0.8815 -0.6470
 2234TIP3    H228194   6.844   4.094   2.384  0.3180  0.7864  0.5480
 2235TIP3   OH228195   2.686   1.703   4.172 -0.4951  0.0166  0.4090
 2235TIP3    H128196   2.604   1.753   4.167 -0.4565  0.0642  0.2358
 2235TIP3    H228197   2.746   1.751   4.115 -0.9347 -1.1399 -1.0973
 2236TIP3   OH228198   5.518   2.272   1.363 -0.0317  0.0374 -0.8398
 2236TIP3    H128199   5.458   2.277   1.289  1.3030 -2.7026 -2.2722
 2236TIP3    H228200   5.602   2.300   1.328  0.6989 -1.6252 -0.5023
 2237TIP3   OH228201   1.308   3.604   1.019 -0.4525  0.0456 -0.0487
 2237TIP3    H128202   1.319   3.696   0.995 -1.7800  0.0829 -0.5856
 2237TIP3    H228203   1.305   3.558   0.935 -0.3550 -0.4102  0.1989
 2238TIP3   OH228204   1.198   0.678   1.955  0.0610 -0.2032  0.6177
 2238TIP3    H128205   1.252   0.666   1.876 -0.4800 -0.7900  0.3334
 2238TIP3    H228206   1.227   0.762   1.991 -0.9911  1.0300 -1.2524
 2239TIP3   OH228207   3.263   2.324  16.149 -0.5259 -0.0755  0.3980
 2239TIP3    H128208   3.257   2.263  16.075 -0.7796  2.3606 -1.7561
 2239TIP3    H228209   3.357   2.341  16.158 -0.3431 -1.5667  1.7862
 2240TIP3   OH228210   3.776   2.707  13.960  0.3002 -0.3405  0.1179
 2240TIP3    H128211   3.838   2.661  14.015  1.0651  0.2591 -0.2328
 2240TIP3    H228212   3.714   2.639  13.932  1.9178 -1.3666 -1.1235
 2241TIP3   OH228213   0.453   6.115  11.289 -0.4507  0.2415  0.0705
 2241TIP3    H128214   0.413   6.059  11.356 -1.4631  0.8867  0.0265
 2241TIP3    H228215   0.390   6.117  11.218 -0.5625  1.6403  0.1810
 2242TIP3   OH228216   0.147   2.780   5.825  0.0733 -0.1183 -0.1132
 2242TIP3    H128217   0.073   2.771   5.764  1.0904 -0.0774 -1.3887
 2242TIP3    H228218   0.208   2.838   5.781  0.2134  1.1201  1.6087
 2243TIP3   OH228219   4.084   1.480   5.700 -0.2222  0.1116 -0.2644
 2243TIP3    H128220   3.999   1.504   5.735 -0.4702 -0.2605 -0.5979
 2243TIP3    H228221   4.093   1.533   5.621 -0.7418 -0.8174 -0.9654
 2244TIP3   OH228222   4.880   1.206   5.425 -0.1603 -0.1713  0.1750
 2244TIP3    H128223   4.795   1.235   5.391 -1.1711  0.6048  3.0778
 2244TIP3    H228224   4.865   1.115   5.451 -0.7929  0.5111  2.4522
 2245TIP3   OH228225   3.138   3.398  13.441 -0.6798  0.1597  0.1779
 2245TIP3    H128226   3.183   3.466  13.391  1.0527  0.2613  1.7972
 2245TIP3    H228227   3.191   3.319  13.427 -0.6655 -0.0108  1.1367
 2246TIP3   OH228228   3.944   6.528   0.328 -0.4764  0.0709  0.5367
 2246TIP3    H128229   3.910   6.606   0.285 -0.1230 -0.0423  0.0431
 2246TIP3    H228230   4.027   6.510   0.283 -0.0336  0.0282  1.3507
 2247TIP3   OH228231   2.891   2.712   0.858 -0.1176 -0.4493  0.5336
 2247TIP3    H128232   2.875   2.788   0.914 -1.2943  0.1614 -0.5787
 2247TIP3    H228233   2.899   2.638   0.919 -0.0486  0.3828  1.5658
 2248TIP3   OH228234   0.522   2.139   2.231  0.4112 -0.0497 -0.7313
 2248TIP3    H128235   0.453   2.205   2.239  0.9264  0.4610 -0.4777
 2248TIP3    H228236   0.485   2.073   2.173 -0.5351 -0.0934 -0.1014
 2249TIP3   OH228237   4.476   3.000   1.485  0.0759 -0.3472  0.8970
 2249TIP3    H128238   4.477   3.002   1.389  0.5587 -0.8366  0.8805
 2249TIP3    H228239   4.558   3.043   1.511 -0.0613 -0.2001  1.0869
 2250TIP3   OH228240   1.333   1.849   3.878 -0.5896 -0.1613 -0.7600
 2250TIP3    H128241   1.384   1.914   3.926 -0.9504  0.4391 -1.1711
 2250TIP3    H228242   1.274   1.901   3.824  0.7498 -0.7692 -2.9307
 2251TIP3   OH228243   5.317   1.836  12.881 -0.3075  0.2078  0.0542
 2251TIP3    H128244   5.246   1.792  12.835  1.0905 -1.4989 -0.5776
 2251TIP3    H228245   5.376   1.865  12.812  0.0645  0.8043  0.6107
 2252TIP3   OH228246   0.924   3.649   2.410 -0.2139  0.2882 -0.1168
 2252TIP3    H128247   1.011   3.680   2.386 -0.2264  2.6088  2.3450
 2252TIP3    H228248   0.939   3.579   2.473 -0.2276 -1.9941 -2.4719
 2253TIP3   OH228249   2.890   1.376   3.872 -0.5382  0.2017  0.0216
 2253TIP3    H128250   2.829   1.365   3.945  0.8599  0.7752  1.3127
 2253TIP3    H228251   2.920   1.466   3.879 -0.8203  0.4550 -1.6412
 2254TIP3   OH228252   3.277   5.112  16.964 -0.1418 -0.3950 -0.6079
 2254TIP3    H128253   3.280   5.146  17.054  0.8466 -1.6572 -0.1416
 2254TIP3    H228254   3.335   5.036  16.965 -2.0824 -1.9602 -1.6834
 2255TIP3   OH228255   2.365   5.047  14.378  0.4027  0.4899  0.7680
 2255TIP3    H128256   2.297   4.993  14.418 -0.8755  2.5122  1.4694
 2255TIP3    H228257   2.317   5.111  14.325  1.7763  1.5031  0.6805
 2256TIP3   OH228258   5.495   3.029   3.743 -0.0749  0.0868 -0.0551
 2256TIP3    H128259   5.430   2.958   3.743  0.7846 -0.8921  3.4006
 2256TIP3    H228260   5.570   2.991   3.696 -0.6902 -0.0929 -0.9331
 2257TIP3   OH228261   5.007   1.126   6.313  0.3617  0.0229 -0.0538
 2257TIP3    H128262   5.019   1.221   6.325 -0.9916  0.1852  0.2022
 2257TIP3    H228263   4.971   1.118   6.225  0.9629 -0.3035 -0.2696
 2258TIP3   OH228264   4.813   3.711   0.561  0.0512 -0.8213 -0.1758
 2258TIP3    H128265   4.719   3.704   0.550  0.2049 -0.2941 -2.3061
 2258TIP3    H228266   4.828   3.804   0.578  0.2734 -0.6321 -1.3226
 2259TIP3   OH228267   3.138   3.286   5.773  0.3220 -0.4420 -0.3657
 2259TIP3    H128268   3.053   3.316   5.807  1.1882 -0.9092  2.4484
 2259TIP3    H228269   3.118   3.208   5.722 -0.8603 -1.0753  1.0259
 2260TIP3   OH228270   3.726   0.972  14.237  0.2024  0.9767  0.1455
 2260TIP3    H128271   3.736   0.896  14.180 -0.1448  1.0454 -0.0093
 2260TIP3    H228272   3.683   1.038  14.182 -0.6334  0.8602  0.6460
 2261TIP3   OH228273   0.192   4.521  16.170 -0.6901  0.0221  0.5580
 2261TIP3    H128274   0.218   4.528  16.078 -2.1263  0.2449  0.1475
 2261TIP3    H228275   0.270   4.488  16.214  0.2449  0.5646 -0.6190
 2262TIP3   OH228276   5.298   1.216  11.642  0.2590 -0.6025  0.4663
 2262TIP3    H128277   5.376   1.193  11.693  0.3668  0.8168  0.9781
 2262TIP3    H228278   5.305   1.162  11.564  0.9859 -1.5744  1.1685
 2263TIP3   OH228279   6.299   0.859   1.236  0.0347 -0.3077  0.4556
 2263TIP3    H128280   6.269   0.771   1.257  2.6243 -1.2375  0.6292
 2263TIP3    H228281   6.343   0.888   1.315  1.2766  0.1673 -0.3884
 2264TIP3   OH228282   2.763   6.566  10.489 -0.1855 -0.3957 -0.0085
 2264TIP3    H128283   2.700   6.526  10.549 -0.7712 -1.4808 -1.2780
 2264TIP3    H228284   2.718   6.566  10.404  0.0522  2.4434 -0.2083
 2265TIP3   OH228285   2.940   0.443  14.829 -1.1148 -0.1957  0.0999
 2265TIP3    H128286   2.930   0.348  14.834 -2.2183 -0.1502 -0.8331
 2265TIP3    H228287   2.965   0.469  14.918  0.2254 -1.4497  0.1271
 2266TIP3   OH228288   1.298   5.081  11.763 -0.5828  0.1946 -0.3881
 2266TIP3    H128289   1.225   5.030  11.729 -0.2287  0.1405 -1.0946
 2266TIP3    H228290   1.298   5.065  11.857 -1.2639 -0.0790 -0.4334
 2267TIP3   OH228291   0.471   2.840  11.514  0.0618 -0.5905 -0.7586
 2267TIP3    H128292   0.378   2.845  11.535  0.1640  0.0931 -0.4581
 2267TIP3    H228293   0.475   2.786  11.435 -0.6681  0.1522 -1.3059
 2268TIP3   OH228294   0.419   1.814   3.867 -0.4711 -0.0432  0.4427
 2268TIP3    H128295   0.375   1.752   3.809 -0.5660  0.5748 -0.1643
 2268TIP3    H228296   0.475   1.760   3.923  0.2620 -0.5792 -0.7794
 2269TIP3   OH228297   3.938   3.157   5.523 -0.2919  0.3786  0.1996
 2269TIP3    H128298   3.844   3.148   5.531 -0.0681 -1.3186  1.2487
 2269TIP3    H228299   3.950   3.205   5.441 -2.0288  0.0644 -0.2761
 2270TIP3   OH228300   6.395   5.201   0.266  0.1261 -0.0503  0.2522
 2270TIP3    H128301   6.411   5.202   0.360  0.7677  3.3407  0.2174
 2270TIP3    H228302   6.483   5.200   0.227 -0.0924  0.4892 -0.2645
 2271TIP3   OH228303   4.245   2.316   1.942  0.4003  0.0093 -0.4588
 2271TIP3    H128304   4.242   2.242   1.880 -0.0237  0.8604 -1.4828
 2271TIP3    H228305   4.164   2.308   1.992  0.0643  0.1278 -0.9809
 2272TIP3   OH228306   2.112   0.708   2.495  0.5331  0.1094  0.1663
 2272TIP3    H128307   2.163   0.712   2.576  0.3083  1.2085  0.2745
 2272TIP3    H228308   2.148   0.779   2.441  0.1194 -0.0751 -0.3586
 2273TIP3   OH228309   5.721   1.235   1.337 -0.1192  0.2976 -0.2633
 2273TIP3    H128310   5.674   1.279   1.265 -0.2997 -1.5572 -1.3316
 2273TIP3    H228311   5.653   1.193   1.388  0.1376  0.3862  0.1575
 2274TIP3   OH228312   2.888   5.753  14.738  0.4279 -0.4482  0.0376
 2274TIP3    H128313   2.844   5.676  14.702 -1.1228  0.9250 -1.2422
 2274TIP3    H228314   2.817   5.817  14.747  1.7865  1.0618  0.3217
 2275TIP3   OH228315   0.016   2.095   2.056 -0.0305 -0.1584 -0.4025
 2275TIP3    H128316   0.098   2.048   2.070  0.5123  1.4908  2.8352
 2275TIP3    H228317  -0.053   2.032   2.079  0.4867 -0.5682  0.0336
 2276TIP3   OH228318   6.584   6.440   1.948 -0.4739  0.7658 -0.0138
 2276TIP3    H128319   6.609   6.348   1.943 -1.7195  0.4110 -0.0835
 2276TIP3    H228320   6.572   6.456   2.042 -0.2683  0.8461 -0.0026
 2277TIP3   OH228321   6.681   6.511   3.336 -0.2227 -0.3514  0.0009
 2277TIP3    H128322   6.605   6.568   3.345  0.0866  0.1255 -0.3502
 2277TIP3    H228323   6.655   6.446   3.271 -0.7434 -0.9115  0.7462
 2278TIP3   OH228324   2.570   0.790   1.522  0.5875 -0.4096 -0.2336
 2278TIP3    H128325   2.659   0.755   1.525  0.7105 -0.0477  0.7492
 2278TIP3    H228326   2.577   0.868   1.468  0.9167 -0.2553  0.0264
 2279TIP3   OH228327   0.264   2.258  12.199 -0.0029 -0.0199 -0.2677
 2279TIP3    H128328   0.237   2.285  12.287 -0.5121  0.1120 -0.4636
 2279TIP3    H228329   0.183   2.251  12.149  0.3867  1.4832 -1.1776
 2280TIP3   OH228330   4.766   4.943   4.236 -0.2497 -0.8069 -0.0547
 2280TIP3    H128331   4.716   5.012   4.192  0.5728 -0.6862 -0.8447
 2280TIP3    H228332   4.819   4.905   4.166  1.6758 -0.1048  0.9538
 2281TIP3   OH228333   1.779   3.274  16.225  0.0571 -0.5498  0.2093
 2281TIP3    H128334   1.815   3.232  16.147 -1.0947 -1.8081  0.3345
 2281TIP3    H228335   1.701   3.319  16.194  0.4336  0.2446  0.3735
 2282TIP3   OH228336   4.527   4.728  14.324  0.0317  0.7876 -0.2433
 2282TIP3    H128337   4.495   4.760  14.240 -2.6842 -0.6253  0.1548
 2282TIP3    H228338   4.496   4.792  14.388 -1.2704 -0.0810  0.0384
 2283TIP3   OH228339   0.087   1.756   0.496 -0.2855  0.4031 -0.3604
 2283TIP3    H128340   0.085   1.827   0.433  0.0366  0.5483 -0.2087
 2283TIP3    H228341   0.121   1.681   0.448  1.5947  0.9376  0.0501
 2284TIP3   OH228342   4.238   6.594  14.506  0.5224 -0.0464  0.0243
 2284TIP3    H128343   4.238   6.581  14.601 -0.5166 -1.7957 -0.1796
 2284TIP3    H228344   4.203   6.682  14.494 -0.1596 -0.1331  1.2290
 2285TIP3   OH228345   0.942   2.566  16.589 -0.1233 -0.3504  0.0567
 2285TIP3    H128346   0.998   2.619  16.646 -0.1170  0.8564 -1.0265
 2285TIP3    H228347   0.996   2.491  16.566  0.8817  0.5170 -0.5173
 2286TIP3   OH228348   0.207   1.296  13.929  0.0360 -0.3233 -0.2687
 2286TIP3    H128349   0.223   1.257  13.843 -0.8470 -1.0633 -0.1197
 2286TIP3    H228350   0.226   1.226  13.991 -1.0048 -0.3630  0.0374
 2287TIP3   OH228351   1.256   1.149  16.766 -0.7945 -0.0447 -0.1732
 2287TIP3    H128352   1.199   1.220  16.737  1.1618  2.3576  1.4320
 2287TIP3    H228353   1.305   1.125  16.687 -0.6895  1.2379 -0.5295
 2288TIP3   OH228354   4.801   5.268  14.216 -0.0149  1.0155 -0.1840
 2288TIP3    H128355   4.738   5.227  14.275  0.8087  1.5257  1.0843
 2288TIP3    H228356   4.845   5.195  14.173  0.5709  0.5813  1.1276
 2289TIP3   OH228357   2.661   4.287  14.248  0.7756  0.0131  0.3669
 2289TIP3    H128358   2.671   4.313  14.156 -0.3267 -0.5532  0.0658
 2289TIP3    H228359   2.682   4.193  14.248  2.2707  0.3128  0.9921
 2290TIP3   OH228360   5.748   4.586  16.564  0.4391  0.0726  0.1063
 2290TIP3    H128361   5.820   4.530  16.592  0.6593  0.1766 -0.2315
 2290TIP3    H228362   5.678   4.572  16.628  0.3798 -0.8146 -0.1514
 2291TIP3   OH228363   5.236   1.463  16.780  0.8165 -0.0047 -0.5624
 2291TIP3    H128364   5.231   1.385  16.835  0.8193  0.4945  0.1678
 2291TIP3    H228365   5.286   1.526  16.832  1.9614  0.0531 -1.6785
 2292TIP3   OH228366   2.351   5.148   3.498 -0.4068 -0.1353 -0.1926
 2292TIP3    H128367   2.281   5.202   3.534 -0.3422 -1.1366  1.5795
 2292TIP3    H228368   2.407   5.209   3.450 -2.6601  0.6370 -2.0237
 2293TIP3   OH228369   4.365   5.608   3.383  0.2653  0.1998 -0.2811
 2293TIP3    H128370   4.348   5.607   3.289 -0.4128 -2.6575 -0.2294
 2293TIP3    H228371   4.460   5.599   3.391  0.2469 -0.5413 -0.7522
 2294TIP3   OH228372   0.848   3.437   1.697  0.5032 -0.7379 -0.2232
 2294TIP3    H128373   0.834   3.390   1.615  0.4855 -0.4936 -0.3574
 2294TIP3    H228374   0.821   3.527   1.680 -0.0380 -0.8127  0.2130
 2295TIP3   OH228375   0.575   2.964  15.510 -0.2136 -0.1630 -0.2790
 2295TIP3    H128376   0.549   2.967  15.602 -3.0198 -0.2227 -0.9814
 2295TIP3    H228377   0.511   2.906  15.468  0.4749  0.5229 -2.4400
 2296TIP3   OH228378   5.371   5.337   1.053 -0.8300 -0.2379  0.5237
 2296TIP3    H128379   5.438   5.367   1.115 -0.0195  1.7243 -1.1741
 2296TIP3    H228380   5.301   5.402   1.061 -1.1053 -0.4651 -0.0173
 2297TIP3   OH228381   6.651   3.343  15.372  0.1102  0.0883 -0.6908
 2297TIP3    H128382   6.636   3.313  15.462 -0.9988  0.0580 -0.8778
 2297TIP3    H228383   6.574   3.314  15.324 -0.3896  2.0611 -1.1658
 2298TIP3   OH228384   5.665   4.636  15.359  0.0924  0.3058  0.7002
 2298TIP3    H128385   5.586   4.644  15.411  0.8992 -1.0029  2.2179
 2298TIP3    H228386   5.648   4.564  15.299  0.3633 -0.4768  1.5373
 2299TIP3   OH228387   0.656   5.552  15.262 -0.1673 -0.1547  0.1124
 2299TIP3    H128388   0.613   5.554  15.348  2.0376 -1.5630  1.3422
 2299TIP3    H228389   0.689   5.462  15.254 -1.3062 -0.4346 -2.7975
 2300TIP3   OH228390   3.630   4.347   5.945  0.3924  0.2194  0.4268
 2300TIP3    H128391   3.641   4.319   6.036 -1.6326  0.3704  0.7613
 2300TIP3    H228392   3.595   4.435   5.951 -1.3447 -0.3615 -0.4238
 2301TIP3   OH228393   3.283   4.506   2.314 -0.4864 -0.4126 -0.9516
 2301TIP3    H128394   3.235   4.568   2.369 -0.4627 -0.9132 -0.3616
 2301TIP3    H228395   3.361   4.484   2.366  0.2877  0.2296 -1.8000
 2302TIP3   OH228396   5.469   4.928  13.581  0.5679 -0.6155  0.1883
 2302TIP3    H128397   5.537   4.987  13.615 -0.9245  1.2707  0.1109
 2302TIP3    H228398   5.387   4.977  13.593 -0.6803 -2.4075 -0.5775
 2303TIP3   OH228399   4.531   2.452   0.913  0.0932 -0.0181  0.1658
 2303TIP3    H128400   4.496   2.522   0.967 -0.3823 -1.8297  2.3842
 2303TIP3    H228401   4.462   2.385   0.912  1.2504 -1.2654 -0.2115
 2304TIP3   OH228402   2.107   4.550   1.192 -0.4550  0.0386 -0.3983
 2304TIP3    H128403   2.112   4.540   1.288  0.2945  3.4920  0.0520
 2304TIP3    H228404   2.191   4.517   1.160 -0.2618 -0.1470  0.2808
 2305TIP3   OH228405   5.815   6.507   3.874  0.8058  0.2460  0.3236
 2305TIP3    H128406   5.889   6.506   3.814 -0.7673 -0.1074 -1.7337
 2305TIP3    H228407   5.816   6.421   3.916  1.5541  0.2529  0.3236
 2306TIP3   OH228408   0.182   3.271  16.854 -0.7250 -0.3536 -0.1899
 2306TIP3    H128409   0.108   3.212  16.871 -0.7090 -0.2129  0.3964
 2306TIP3    H228410   0.259   3.222  16.885 -0.8504  0.4821  1.5863
 2307TIP3   OH228411   4.055   4.115   0.602 -0.0649 -0.0191 -0.2168
 2307TIP3    H128412   4.130   4.069   0.564 -0.4934 -0.6042 -0.3760
 2307TIP3    H228413   4.085   4.142   0.689 -0.2949 -2.0262  0.5509
 2308TIP3   OH228414   4.802   6.144   5.562  0.0935  0.4844  0.0056
 2308TIP3    H128415   4.770   6.076   5.503 -3.7987  0.8853  1.3655
 2308TIP3    H228416   4.784   6.226   5.515 -1.8478  0.7537  1.1434
 2309TIP3   OH228417   3.904   3.618  17.263  0.2922  0.4305  0.3535
 2309TIP3    H128418   3.939   3.544  17.213  1.2556  1.0885  0.0426
 2309TIP3    H228419   3.826   3.645  17.215  0.2777  0.0083  0.1362
 2310TIP3   OH228420   6.080   4.703   5.755 -0.0406 -0.3198 -0.2959
 2310TIP3    H128421   6.152   4.762   5.732 -0.5089 -0.4482 -2.2989
 2310TIP3    H228422   6.003   4.760   5.763  0.3615 -0.0408  2.8368
 2311TIP3   OH228423   3.534   2.758   4.413 -0.2341  0.8179  0.6560
 2311TIP3    H128424   3.459   2.816   4.422 -0.9011 -0.2634  2.8879
 2311TIP3    H228425   3.501   2.682   4.365 -0.0729  1.0964  0.0937
 2312TIP3   OH228426   6.696   1.508   2.557  0.5440  0.2488  0.0415
 2312TIP3    H128427   6.622   1.567   2.573  0.7960  0.4543  0.4725
 2312TIP3    H228428   6.670   1.425   2.599 -0.1504 -0.2091 -1.2455
 2313TIP3   OH228429   0.461   5.595  11.749 -0.6830  0.2130  0.0382
 2313TIP3    H128430   0.404   5.527  11.785  0.5284 -1.5582 -1.2384
 2313TIP3    H228431   0.417   5.624  11.670  0.3999 -1.6310 -1.3137
 2314TIP3   OH228432   4.034   3.396   5.873  0.2070 -0.3725  0.2904
 2314TIP3    H128433   4.028   3.440   5.788 -2.0789 -1.0690  0.0390
 2314TIP3    H228434   4.062   3.465   5.933 -1.4442  1.0250 -0.4523
 2315TIP3   OH228435   4.602   1.665   5.135 -0.5291  0.0148 -0.2053
 2315TIP3    H128436   4.622   1.745   5.086 -0.4601  0.4528  0.5350
 2315TIP3    H228437   4.506   1.657   5.130 -0.4081 -0.9508 -1.9627
 2316TIP3   OH228438   1.617   6.640  10.970  0.2417  0.1513  0.3968
 2316TIP3    H128439   1.611   6.733  10.994 -0.6484  0.3813 -0.5982
 2316TIP3    H228440   1.562   6.633  10.891  1.2118 -0.9958 -0.1976
 2317TIP3   OH228441   6.634   0.416   1.079  0.6626  0.0670 -0.0747
 2317TIP3    H128442   6.627   0.441   0.987 -0.4674 -0.5307 -0.1742
 2317TIP3    H228443   6.726   0.393   1.091  1.1043  1.4127 -0.7066
 2318TIP3   OH228444   2.257   0.392   1.328 -0.1674  0.0745  0.6101
 2318TIP3    H128445   2.351   0.377   1.340 -0.7775 -2.9078  2.8054
 2318TIP3    H228446   2.239   0.473   1.376  1.2818  0.9609 -0.2559
 2319TIP3   OH228447   2.404   2.254  11.943 -0.2750  0.1839  0.8324
 2319TIP3    H128448   2.338   2.189  11.963 -0.0051  0.1594  1.6788
 2319TIP3    H228449   2.355   2.329  11.909 -0.6335 -0.2365  0.4120
 2320TIP3   OH228450   2.393   1.148   6.046 -0.2015 -0.2128 -0.2140
 2320TIP3    H128451   2.459   1.133   6.114  0.4771 -0.5128 -0.9278
 2320TIP3    H228452   2.430   1.218   5.993 -0.8978  0.2692 -0.0714
 2321TIP3   OH228453   5.222   2.038   4.666  0.2730  0.7813  0.2723
 2321TIP3    H128454   5.317   2.046   4.660  0.2863 -0.3132 -2.6635
 2321TIP3    H228455   5.207   1.949   4.699  0.2806  0.6971  0.0508
 2322TIP3   OH228456   5.060   2.906   0.957  0.1764  0.3303  0.2426
 2322TIP3    H128457   5.077   2.835   0.894  1.3009  1.5862 -0.9420
 2322TIP3    H228458   4.971   2.936   0.936  0.8031  1.2171 -1.3006
 2323TIP3   OH228459   2.238   1.222   1.692 -0.1723 -0.2725 -0.0732
 2323TIP3    H128460   2.325   1.222   1.652 -0.2963 -0.4153 -0.3474
 2323TIP3    H228461   2.211   1.314   1.690  0.4446 -0.0528  1.0711
 2324TIP3   OH228462   4.700   3.370  17.176  0.9405  0.2188 -0.1643
 2324TIP3    H128463   4.741   3.286  17.155  0.4014  0.0783 -0.6967
 2324TIP3    H228464   4.630   3.348  17.238  1.2932  0.3826  0.2979
 2325TIP3   OH228465   0.261   5.284   4.878  0.6676  0.1245 -0.0906
 2325TIP3    H128466   0.320   5.359   4.875 -0.2000  0.7891 -1.5281
 2325TIP3    H228467   0.293   5.226   4.808 -0.6504  0.7314 -1.2304
 2326TIP3   OH228468   3.514   0.217   0.220  1.1042 -0.0860  0.1228
 2326TIP3    H128469   3.528   0.276   0.145 -2.5115 -0.7535 -1.2977
 2326TIP3    H228470   3.530   0.272   0.297  0.7677  1.9040 -1.1544
 2327TIP3   OH228471   4.662   3.372   5.758 -0.0816 -0.1114  0.0113
 2327TIP3    H128472   4.630   3.431   5.689 -1.5813 -0.9414 -0.0366
 2327TIP3    H228473   4.634   3.413   5.839  1.0221  0.4742  0.1146
 2328TIP3   OH228474   3.968   1.086  14.254  0.0766  0.1247  0.4221
 2328TIP3    H128475   3.880   1.049  14.243 -1.6391  3.1289  2.6070
 2328TIP3    H228476   4.006   1.038  14.327 -0.3578 -0.1459  0.4702
 2329TIP3   OH228477   1.709   1.112   3.554  0.3207  0.3051  0.2421
 2329TIP3    H128478   1.653   1.070   3.490 -0.3681  0.8097  0.4982
 2329TIP3    H228479   1.789   1.059   3.555 -1.3755 -2.4762  2.2757
 2330TIP3   OH228480   5.105   1.546  16.373  0.0754 -0.2599  0.4202
 2330TIP3    H128481   5.183   1.491  16.367  0.0772 -0.0669 -2.2401
 2330TIP3    H228482   5.053   1.506  16.443  1.3508 -1.9477  0.4588
 2331TIP3   OH228483   4.252   2.961   0.440 -0.4978  0.1952 -0.4849
 2331TIP3    H128484   4.173   2.991   0.486  0.8183  1.3905  1.0920
 2331TIP3    H228485   4.322   2.968   0.504  0.7131 -2.1570 -1.4241
 2332TIP3   OH228486   3.553   6.257  15.556 -0.2945  0.5600 -0.2721
 2332TIP3    H128487   3.531   6.300  15.474  0.1010  0.0682 -0.6397
 2332TIP3    H228488   3.643   6.285  15.574  0.0518 -0.2815 -0.6363
 2333TIP3   OH228489   5.459   4.115   0.825  0.1099 -0.4621  0.4938
 2333TIP3    H128490   5.425   4.198   0.859 -0.0521 -0.4210  0.2318
 2333TIP3    H228491   5.497   4.137   0.740 -1.8184 -1.0061 -0.5753
 2334TIP3   OH228492   5.882   3.606  13.497 -0.5981 -0.0381 -0.1801
 2334TIP3    H128493   5.928   3.636  13.576  1.5496 -1.6507 -0.7451
 2334TIP3    H228494   5.912   3.665  13.428 -2.1537  1.0993  0.0313
 2335TIP3   OH228495   4.184   6.731  15.716  0.0794  0.0999  0.2147
 2335TIP3    H128496   4.097   6.751  15.751  0.2669 -0.6254  1.1180
 2335TIP3    H228497   4.204   6.805  15.659 -0.0444  1.5555  1.9706
 2336TIP3   OH228498   3.361   6.162  14.986 -0.0088  0.2086  0.6602
 2336TIP3    H128499   3.347   6.068  14.983 -0.6567  0.3270 -0.4534
 2336TIP3    H228500   3.423   6.175  15.057  2.4865 -1.3841 -1.0534
 2337TIP3   OH228501   1.751   0.724   6.179 -0.4753  0.7077  0.6338
 2337TIP3    H128502   1.797   0.807   6.170  0.8928  0.1836  2.2979
 2337TIP3    H228503   1.761   0.701   6.271 -3.4456  0.1484  0.8961
 2338TIP3   OH228504   1.439   1.182  14.285  0.4760 -0.2255  0.2605
 2338TIP3    H128505   1.425   1.095  14.249  0.8902 -0.3498  0.3972
 2338TIP3    H228506   1.463   1.167  14.377  0.0039  0.0585  0.4371
 2339TIP3   OH228507   4.110   3.218  14.805 -0.4614  0.6174  0.1667
 2339TIP3    H128508   4.129   3.144  14.747 -0.7510 -1.5932  2.7240
 2339TIP3    H228509   4.016   3.216  14.816 -0.3246  0.4525  1.3782
 2340TIP3   OH228510   6.295   5.057  14.258  0.6461 -0.0684 -0.4907
 2340TIP3    H128511   6.206   5.043  14.293  1.1285  0.9315  1.2795
 2340TIP3    H228512   6.350   4.999  14.311  1.3342  1.0437  0.0346
 2341TIP3   OH228513   2.801   5.323  16.094 -0.0375  0.2662  1.0098
 2341TIP3    H128514   2.799   5.265  16.170  1.2953 -3.0656 -1.2800
 2341TIP3    H228515   2.892   5.325  16.067 -0.7473 -0.4632 -1.7387
 2342TIP3   OH228516   2.103   3.676   2.395  0.1534 -0.2677 -0.0621
 2342TIP3    H128517   2.033   3.631   2.349 -0.0000  1.8085 -2.0313
 2342TIP3    H228518   2.093   3.768   2.371  0.6678  0.8644  3.4348
 2343TIP3   OH228519   2.979   1.599   1.642 -0.3078  0.6022  0.7794
 2343TIP3    H128520   2.929   1.517   1.645 -0.2818  0.6220  2.5863
 2343TIP3    H228521   3.047   1.582   1.576  0.1617 -1.1308  1.6324
 2344TIP3   OH228522   6.397   4.602   3.415  0.0392  0.2025  0.3154
 2344TIP3    H128523   6.341   4.676   3.391 -0.2266  0.0156  0.3634
 2344TIP3    H228524   6.433   4.626   3.500  0.0237  0.3165  0.2903
 2345TIP3   OH228525   3.755   0.281   3.090  0.6347 -0.1514  0.2531
 2345TIP3    H128526   3.706   0.199   3.083  1.7660 -0.7532 -1.3558
 2345TIP3    H228527   3.814   0.279   3.014  2.2688  1.1088  1.4389
 2346TIP3   OH228528   2.215   1.574  13.349  0.1304  0.0220  0.6864
 2346TIP3    H128529   2.275   1.628  13.297 -0.4718  1.7007  1.6611
 2346TIP3    H228530   2.176   1.635  13.411 -2.2408 -1.1116  0.4126
 2347TIP3   OH228531   2.823   5.740  15.745 -0.0970 -0.3355 -0.1975
 2347TIP3    H128532   2.785   5.668  15.795  2.3893  0.0589  2.5730
 2347TIP3    H228533   2.887   5.698  15.687 -2.7290 -0.7540 -3.1043
 2348TIP3   OH228534   2.144   4.257   1.764  0.4643  0.3398  0.3646
 2348TIP3    H128535   2.237   4.234   1.775 -0.2526 -1.8979  2.7423
 2348TIP3    H228536   2.120   4.300   1.846 -0.5234  1.2573 -0.3872
 2349TIP3   OH228537   0.298   6.168  13.970  0.7642  0.4374  0.3067
 2349TIP3    H128538   0.349   6.154  13.891 -0.4139  0.3191 -0.4646
 2349TIP3    H228539   0.343   6.118  14.038 -0.0592 -2.2932 -1.0392
 2350TIP3   OH228540   3.564   2.195  12.748  0.0502 -0.4955  0.4482
 2350TIP3    H128541   3.553   2.101  12.756 -0.6077 -0.3953  0.8291
 2350TIP3    H228542   3.651   2.207  12.710  0.2653 -1.2405  0.7033
 2351TIP3   OH228543   6.737   2.484   3.465 -0.8280 -0.1019 -0.1491
 2351TIP3    H128544   6.820   2.451   3.432 -1.2077 -1.3631  0.1042
 2351TIP3    H228545   6.685   2.406   3.483 -1.7082  0.6302  0.6317
 2352TIP3   OH228546   2.572   0.366   4.352  0.4058 -0.0257 -0.4786
 2352TIP3    H128547   2.640   0.388   4.289  1.1427  0.0450  0.3344
 2352TIP3    H228548   2.549   0.449   4.393  1.3037 -0.3513  0.7096
 2353TIP3   OH228549   2.793   0.275  15.560  0.5480  0.3982  0.0624
 2353TIP3    H128550   2.703   0.304  15.576  0.4225  0.1155 -0.1148
 2353TIP3    H228551   2.790   0.234  15.473  0.1046 -2.5964  1.3684
 2354TIP3   OH228552   0.357   2.886  16.991 -0.2273  0.0064 -0.2386
 2354TIP3    H128553   0.407   2.962  17.019 -0.7126  0.5571 -0.8260
 2354TIP3    H228554   0.268   2.904  17.021 -0.3898 -0.2199 -0.5853
 2355TIP3   OH228555   0.806   2.351  12.690 -0.3748 -0.4980  0.1490
 2355TIP3    H128556   0.734   2.332  12.631  1.3804 -3.4856 -1.2724
 2355TIP3    H228557   0.781   2.309  12.773 -0.8294 -0.3410  0.0925
 2356TIP3   OH228558   6.328   3.549  16.389  0.3138  0.1547  0.6339
 2356TIP3    H128559   6.312   3.643  16.399 -0.7081 -0.1055  1.6645
 2356TIP3    H228560   6.290   3.510  16.468  1.7166 -1.0327  0.7660
 2357TIP3   OH228561   0.971   6.319  16.939 -0.0604 -0.0188  0.0812
 2357TIP3    H128562   0.886   6.291  16.973 -1.2679  0.7080 -2.1608
 2357TIP3    H228563   0.955   6.406  16.903  0.7743 -1.1385 -3.3580
 2358TIP3   OH228564   5.475   0.828  16.303  0.3703 -0.4799 -0.8893
 2358TIP3    H128565   5.527   0.881  16.242  0.1465 -0.2964 -0.9239
 2358TIP3    H228566   5.483   0.739  16.270  3.4273 -1.0405  0.9986
 2359TIP3   OH228567   5.678   2.892   4.663 -0.1612 -0.3445  0.1035
 2359TIP3    H128568   5.717   2.834   4.597  1.3279  1.0918 -0.3222
 2359TIP3    H228569   5.750   2.913   4.722 -0.1227  2.5897 -0.8464
 2360TIP3   OH228570   0.116   4.010   0.628 -0.3938  0.3858  0.3113
 2360TIP3    H128571   0.204   4.015   0.592  0.8758 -0.6270  3.0441
 2360TIP3    H228572   0.089   3.919   0.616 -1.2406  0.7525 -0.7742
 2361TIP3   OH228573   1.007   2.605   5.459  0.2355  0.6548  0.1463
 2361TIP3    H128574   0.942   2.641   5.519  1.4089 -0.3217  2.1099
 2361TIP3    H228575   0.955   2.572   5.385 -1.3178  1.4748  0.8255
 2362TIP3   OH228576   2.361   1.395   4.700  0.1178 -0.1499 -0.2178
 2362TIP3    H128577   2.307   1.317   4.688 -0.4425 -0.3187  2.6768
 2362TIP3    H228578   2.426   1.370   4.765 -0.2390  1.8345  0.9976
 2363TIP3   OH228579   0.986   5.498   4.702 -0.2701 -0.6459  0.4921
 2363TIP3    H128580   1.023   5.495   4.790 -3.8178  0.6333  2.2312
 2363TIP3    H228581   0.910   5.441   4.706  0.3488 -1.8576 -2.3602
 2364TIP3   OH228582   4.550   2.468  12.104 -0.3482  0.5921 -0.5455
 2364TIP3    H128583   4.534   2.378  12.134 -0.7754  0.5646 -0.8512
 2364TIP3    H228584   4.643   2.483  12.121 -0.5160  0.4883  0.5706
 2365TIP3   OH228585   6.298   5.380   5.256 -0.0183 -0.7995  0.2422
 2365TIP3    H128586   6.339   5.427   5.184  0.3124 -1.3426  0.0705
 2365TIP3    H228587   6.308   5.437   5.332 -0.4284 -0.1947 -0.1492
 2366TIP3   OH228588   2.769   1.534   6.123 -0.3042  0.7214  0.6391
 2366TIP3    H128589   2.792   1.516   6.214 -0.1858  1.7214  0.8151
 2366TIP3    H228590   2.853   1.539   6.078 -0.3779 -0.2796  0.3595
 2367TIP3   OH228591   6.142   0.416   2.929 -0.6887  0.4777  0.0175
 2367TIP3    H128592   6.147   0.509   2.949  1.2957  0.5292 -0.5213
 2367TIP3    H228593   6.075   0.382   2.989 -0.2983  1.9633  1.3685
 2368TIP3   OH228594   4.114   4.563   2.432 -0.2122  0.1002 -0.7245
 2368TIP3    H128595   4.022   4.549   2.450 -0.0491 -2.6747 -1.5456
 2368TIP3    H228596   4.119   4.574   2.337  0.3693 -0.6052 -0.7853
 2369TIP3   OH228597   4.812   1.906  11.692  0.5204  0.0437  0.0209
 2369TIP3    H128598   4.754   1.832  11.708  0.7452  0.1362  1.3891
 2369TIP3    H228599   4.755   1.983  11.697  0.3257 -0.0034 -1.1860
 2370TIP3   OH228600   4.773   4.814   1.267  0.2324  0.7077 -0.1275
 2370TIP3    H128601   4.831   4.886   1.292  0.4590  0.9428 -1.2766
 2370TIP3    H228602   4.824   4.735   1.286 -0.5704  0.7314  2.5579
 2371TIP3   OH228603   0.605   0.556   6.940 -0.4951  0.2521  0.0915
 2371TIP3    H128604   0.664   0.579   7.012 -0.0160 -0.5141 -0.0580
 2371TIP3    H228605   0.630   0.615   6.869 -0.9534  0.9991  0.5226
 2372TIP3   OH228606   4.482   4.669  12.293 -0.0902  0.2105  0.3450
 2372TIP3    H128607   4.469   4.668  12.199 -0.2369  0.4659  0.3599
 2372TIP3    H228608   4.519   4.583  12.314 -0.6567 -0.0955  0.1356
 2373TIP3   OH228609   6.054   6.326  16.737 -0.5313  0.6935  0.5437
 2373TIP3    H128610   6.063   6.280  16.654 -1.1858  1.5557 -0.0328
 2373TIP3    H228611   6.003   6.266  16.792  2.1021 -1.0100  1.2829
 2374TIP3   OH228612   4.903   3.151  14.553 -0.0017  0.2222 -0.0732
 2374TIP3    H128613   4.903   3.154  14.457 -1.5808 -0.6755 -0.1347
 2374TIP3    H228614   4.877   3.062  14.574  1.3854  0.0810  1.2279
 2375TIP3   OH228615   5.322   5.070  16.399  0.0456 -0.4750  0.1557
 2375TIP3    H128616   5.354   5.146  16.448 -0.3438  0.4014 -0.9069
 2375TIP3    H228617   5.349   4.995  16.451  0.6921  0.3801  1.0908
 2376TIP3   OH228618   2.387   4.623  17.200 -0.2393 -0.1842 -0.2670
 2376TIP3    H128619   2.478   4.651  17.189  0.3034 -1.5552  0.3992
 2376TIP3    H228620   2.367   4.642  17.292 -0.5441 -0.0842 -0.3544
 2377TIP3   OH228621   5.082   4.370   3.222  0.0913 -0.2004  0.1418
 2377TIP3    H128622   5.155   4.428   3.199 -1.4153  1.3847 -0.8742
 2377TIP3    H228623   5.039   4.414   3.295 -0.3910 -0.6504  0.1327
 2378TIP3   OH228624   1.663   3.406  13.859  0.4171 -0.0017  0.4326
 2378TIP3    H128625   1.614   3.391  13.940  1.2600  0.6134  1.0783
 2378TIP3    H228626   1.660   3.500  13.846 -0.4775 -0.1716 -0.7683
 2379TIP3   OH228627   6.522   2.677   3.435  0.1575  0.1711  0.1332
 2379TIP3    H128628   6.594   2.620   3.409  0.3920  1.4527 -2.2491
 2379TIP3    H228629   6.559   2.766   3.434 -1.2844  0.7989 -0.5642
 2380TIP3   OH228630   3.645   6.758   4.035  0.2769  0.5917  0.3459
 2380TIP3    H128631   3.557   6.734   4.064  0.2213  0.9882  0.5160
 2380TIP3    H228632   3.699   6.751   4.113  0.6441 -0.8098 -0.0133
 2381TIP3   OH228633   4.735   6.684   0.021 -0.3028  0.3961  0.3806
 2381TIP3    H128634   4.642   6.683   0.041 -0.3894  3.0339  0.4383
 2381TIP3    H228635   4.777   6.716   0.102  0.5221  0.4721 -0.0632
 2382TIP3   OH228636   6.743   4.649  17.080 -0.1771  0.3218 -0.9518
 2382TIP3    H128637   6.672   4.594  17.045 -0.7760  1.2918 -1.3148
 2382TIP3    H228638   6.815   4.637  17.018  0.0242 -0.7312 -0.5408
 2383TIP3   OH228639   2.059   3.922  15.461  0.0206  0.4418  0.5773
 2383TIP3    H128640   1.974   3.910  15.503  0.2691 -0.3611  0.8642
 2383TIP3    H228641   2.118   3.942  15.534  0.2006  0.3663  0.4497
 2384TIP3   OH228642   6.286   6.180   1.994 -0.1974 -0.7764 -0.0375
 2384TIP3    H128643   6.365   6.174   2.048 -1.1907 -1.8386  1.3583
 2384TIP3    H228644   6.315   6.150   1.907  1.3275  0.5708 -0.0429
 2385TIP3   OH228645   3.665   1.182   4.127 -0.1571  0.1612 -0.2619
 2385TIP3    H128646   3.633   1.272   4.129  1.7909  0.9155  2.0888
 2385TIP3    H228647   3.645   1.147   4.213 -0.4146 -1.5085 -0.9690
 2386TIP3   OH228648   1.664   3.452  15.919  0.2081  0.2966 -0.0872
 2386TIP3    H128649   1.745   3.424  15.963  1.7816  1.9752 -1.7123
 2386TIP3    H228650   1.649   3.541  15.951  0.6216  1.0334 -1.8174
 2387TIP3   OH228651   6.005   3.356  16.471 -0.4702  0.4169  0.2672
 2387TIP3    H128652   5.920   3.317  16.449 -0.5531  0.4694  0.4946
 2387TIP3    H228653   5.987   3.411  16.548 -0.1134 -0.0260  0.6681
 2388TIP3   OH228654   1.648   5.307   2.985 -0.6743  0.1605  0.0353
 2388TIP3    H128655   1.570   5.304   2.929 -0.4401  1.2541 -0.3729
 2388TIP3    H228656   1.720   5.326   2.924 -0.4797  1.8321  0.7248
 2389TIP3   OH228657   1.675   2.044  16.134  0.1115  0.2274  0.1043
 2389TIP3    H128658   1.609   1.980  16.162  2.9069 -4.0527 -2.0309
 2389TIP3    H228659   1.640   2.079  16.051 -0.9779  0.7361  0.7546
 2390TIP3   OH228660   5.730   4.457   4.731 -0.9003 -0.5420  0.0709
 2390TIP3    H128661   5.733   4.424   4.641 -1.7439  0.6275 -0.4125
 2390TIP3    H228662   5.821   4.451   4.761 -0.7527 -1.7286 -0.5568
 2391TIP3   OH228663   4.633   3.798   1.975  0.1280 -0.7282 -0.2969
 2391TIP3    H128664   4.601   3.886   1.956  0.8334 -0.3641  0.1588
 2391TIP3    H228665   4.645   3.796   2.069  1.4775 -0.8234 -0.4481
 2392TIP3   OH228666   4.988   3.735   2.328 -0.2406 -0.2139 -1.1073
 2392TIP3    H128667   4.900   3.705   2.306  0.1545 -1.1860 -1.3731
 2392TIP3    H228668   5.006   3.805   2.265 -1.0429  0.4073 -0.6696
 2393TIP3   OH228669   3.969   1.531  12.890 -0.1748 -0.1884  0.1407
 2393TIP3    H128670   4.046   1.482  12.918  0.7230  1.1006  0.0224
 2393TIP3    H228671   3.896   1.488  12.935  0.7517 -0.6732  1.2442
 2394TIP3   OH228672   4.917   3.932  14.002 -0.0684 -0.3821 -0.1234
 2394TIP3    H128673   5.007   3.899  14.004 -0.2926 -1.0787 -0.7657
 2394TIP3    H228674   4.915   3.991  13.927 -0.1823 -0.4880 -0.2041
 2395TIP3   OH228675   2.098   5.079   1.727  0.8101  0.7526 -0.2473
 2395TIP3    H128676   2.182   5.054   1.689 -0.0846  1.7166 -3.1806
 2395TIP3    H228677   2.063   4.998   1.765  1.8570 -0.3247 -1.4929
 2396TIP3   OH228678   3.633   5.986  12.010  0.3568 -0.3669 -0.1350
 2396TIP3    H128679   3.659   5.983  12.103 -1.1347 -0.1861  0.3110
 2396TIP3    H228680   3.565   5.919  12.002  0.1431 -0.0556 -1.0031
 2397TIP3   OH228681   2.911   4.862   5.073  0.6677 -0.0963  0.0362
 2397TIP3    H128682   2.931   4.927   5.005 -1.2272 -0.0531 -0.5271
 2397TIP3    H228683   2.817   4.845   5.064  0.9176 -2.1899  0.8318
 2398TIP3   OH228684   2.737   4.696  14.180 -0.0626  0.3592 -0.3760
 2398TIP3    H128685   2.817   4.645  14.193  0.4230  1.1118 -0.3741
 2398TIP3    H228686   2.671   4.649  14.230  0.2350 -0.6023 -0.8466
 2399TIP3   OH228687   0.646   1.580  10.379  1.4084  0.3874 -0.1666
 2399TIP3    H128688   0.738   1.605  10.368  1.5660  0.1639  0.5527
 2399TIP3    H228689   0.646   1.526  10.459  0.9133 -0.9769 -1.0518
 2400TIP3   OH228690   1.899   1.433   3.290 -0.5916 -0.1801  0.2837
 2400TIP3    H128691   1.928   1.349   3.253 -2.3435 -0.4929 -0.4829
 2400TIP3    H228692   1.966   1.455   3.354  0.8268 -1.2917 -0.7431
 2401TIP3   OH228693   1.920   6.416  12.392  0.0190  0.7679 -0.1070
 2401TIP3    H128694   1.832   6.446  12.414  0.2911  1.0897  0.6095
 2401TIP3    H228695   1.915   6.321  12.396  0.1642  0.7925  1.9987
 2402TIP3   OH228696   4.219   1.992  11.459  0.3419 -0.0983  0.2558
 2402TIP3    H128697   4.301   2.036  11.435  0.9354 -1.7670 -0.8918
 2402TIP3    H228698   4.155   2.025  11.396  0.8028 -0.9218 -0.6521
 2403TIP3   OH228699   3.711   3.381  14.989  0.6279  0.0907 -0.5611
 2403TIP3    H128700   3.764   3.332  14.926 -0.5796 -0.3790 -1.2693
 2403TIP3    H228701   3.623   3.382  14.950 -0.0975  0.0462  0.9847
 2404TIP3   OH228702   0.864   3.510  15.644  0.2674  0.6297  0.2183
 2404TIP3    H128703   0.916   3.590  15.650  1.5537 -0.0571 -1.0508
 2404TIP3    H228704   0.849   3.498  15.550  2.1374 -1.8074  0.1315
 2405TIP3   OH228705   3.134   3.098   6.200 -0.2264 -0.7365  0.5997
 2405TIP3    H128706   3.197   3.151   6.249  0.7459 -0.7048 -0.6550
 2405TIP3    H228707   3.057   3.154   6.191  0.2730 -0.0590  0.5052
 2406TIP3   OH228708   6.576   4.977  16.704  0.0832 -0.0298  0.1545
 2406TIP3    H128709   6.482   4.963  16.691  0.3008 -1.0216 -0.4585
 2406TIP3    H228710   6.601   4.912  16.769  0.3185  0.3501  0.4450
 2407TIP3   OH228711   0.791   4.254  13.829 -0.3480  0.4035 -0.6042
 2407TIP3    H128712   0.831   4.264  13.915 -2.6690  0.4816  0.5516
 2407TIP3    H228713   0.778   4.343  13.798 -3.8701  0.7524  1.2545
 2408TIP3   OH228714   3.067   1.692  16.123  0.0099  0.3268  0.4572
 2408TIP3    H128715   2.973   1.694  16.143  0.2646  1.1614  1.6904
 2408TIP3    H228716   3.074   1.733  16.037 -0.6485  1.4232  0.9021
 2409TIP3   OH228717   5.914   0.771   6.461 -0.5190  0.0315 -0.1698
 2409TIP3    H128718   5.893   0.808   6.375 -1.0994 -1.3624 -0.6562
 2409TIP3    H228719   5.933   0.847   6.516 -0.4225  0.9684 -1.4504
 2410TIP3   OH228720   4.022   5.950  11.632 -0.4760  0.4887  0.6555
 2410TIP3    H128721   4.117   5.965  11.637 -0.3946 -0.0043  0.5955
 2410TIP3    H228722   3.995   5.934  11.722 -0.5008  0.5969  0.6683
 2411TIP3   OH228723   0.105   6.031   0.289  0.8544 -0.1299 -0.3044
 2411TIP3    H128724   0.136   6.121   0.277  1.7957 -0.3811  0.1225
 2411TIP3    H228725   0.034   6.038   0.353  1.0445  0.2899 -0.1381
 2412TIP3   OH228726   0.017   3.267  14.577 -0.3755  0.4307 -0.0599
 2412TIP3    H128727   0.084   3.224  14.523 -1.0518  0.9656 -1.3642
 2412TIP3    H228728   0.038   3.361  14.570 -0.0473  0.4620  1.2070
 2413TIP3   OH228729   1.875   5.457  16.314  0.5902  0.1014 -0.0255
 2413TIP3    H128730   1.801   5.500  16.271  1.0759  1.4673  0.4530
 2413TIP3    H228731   1.837   5.417  16.392  0.6451  2.6692  1.4346
 2414TIP3   OH228732   4.193   2.280   0.392 -0.2963  0.3555  0.1564
 2414TIP3    H128733   4.153   2.365   0.375 -2.5189 -0.0856  2.5675
 2414TIP3    H228734   4.155   2.222   0.325 -0.6542  0.7551  0.0116
 2415TIP3   OH228735   5.686   5.887   4.435 -0.2143  0.0670  0.0925
 2415TIP3    H128736   5.719   5.802   4.407 -0.4207 -0.0481  0.1918
 2415TIP3    H228737   5.615   5.907   4.374 -0.5031 -0.0707  0.3843
 2416TIP3   OH228738   4.051   5.251   0.139  0.4176  0.4474 -0.2185
 2416TIP3    H128739   4.021   5.313   0.072  0.2629  1.3182  0.6392
 2416TIP3    H228740   4.096   5.305   0.203  0.2795 -0.3343  0.5534
 2417TIP3   OH228741   1.067   3.201   5.755  0.2944 -0.2797 -0.2204
 2417TIP3    H128742   0.997   3.222   5.693  0.0668  3.6267  1.1315
 2417TIP3    H228743   1.022   3.183   5.837  0.6546  4.1159  1.1640
 2418TIP3   OH228744   1.538   6.643  10.565  0.6308  0.1111  0.1136
 2418TIP3    H128745   1.496   6.580  10.506  0.8998 -0.3847  0.4474
 2418TIP3    H228746   1.542   6.724  10.514  0.5040 -0.2076 -0.4098
 2419TIP3   OH228747   4.930   4.310  15.422  0.0705 -0.0914 -0.0620
 2419TIP3    H128748   4.954   4.315  15.329  1.4381  0.6418  0.3125
 2419TIP3    H228749   4.933   4.400  15.453 -4.2090  0.2676 -0.1462
 2420TIP3   OH228750   4.810   2.518  17.047  0.0194  0.2535  0.5323
 2420TIP3    H128751   4.817   2.579  16.973 -1.4950 -0.0943  0.0661
 2420TIP3    H228752   4.743   2.556  17.103  0.6499  0.1414  1.3825
 2421TIP3   OH228753   2.322   4.033   4.113  0.0826  0.3657 -0.6385
 2421TIP3    H128754   2.317   4.127   4.095  4.4009  0.9215  0.0242
 2421TIP3    H228755   2.357   3.994   4.032 -0.1651 -0.4301 -0.3750
 2422TIP3   OH228756   0.207   3.891   2.466 -0.3927 -0.2897  0.4867
 2422TIP3    H128757   0.222   3.971   2.516  0.9875 -2.3997  3.7459
 2422TIP3    H228758   0.144   3.841   2.518 -0.4214 -1.8237 -0.9195
 2423TIP3   OH228759   2.385   2.084   3.766 -0.0728  0.3971 -0.4398
 2423TIP3    H128760   2.427   2.072   3.681  0.1383  0.1011 -0.2945
 2423TIP3    H228761   2.375   2.179   3.774  0.1180  0.4403 -0.6918
 2424TIP3   OH228762   5.606   2.380  12.520  0.5371  0.6227 -1.0156
 2424TIP3    H128763   5.613   2.474  12.499 -1.5425  1.1675  0.4402
 2424TIP3    H228764   5.620   2.375  12.614  0.9100 -0.6099 -1.1143
 2425TIP3   OH228765   0.305   6.643   2.283  0.1893 -0.2833 -0.2954
 2425TIP3    H128766   0.331   6.733   2.299  0.7882 -0.4433 -0.3271
 2425TIP3    H228767   0.252   6.647   2.203 -0.9384  0.2147  0.4638
 2426TIP3   OH228768   0.706   2.136   2.018  0.3201 -0.2494  0.0629
 2426TIP3    H128769   0.737   2.057   2.062 -0.3635 -1.0786 -0.8931
 2426TIP3    H228770   0.679   2.106   1.931 -1.0894  0.8041  0.0991
 2427TIP3   OH228771   0.957   1.992   2.501 -0.0046 -0.5216 -0.6331
 2427TIP3    H128772   0.894   2.035   2.443  1.0757  1.1022 -0.6965
 2427TIP3    H228773   1.010   1.938   2.443  0.0726 -0.1400 -0.9241
 2428TIP3   OH228774   5.532   0.168   3.848 -0.2613 -0.3614 -0.3034
 2428TIP3    H128775   5.564   0.081   3.821 -2.2081 -1.1639 -0.2008
 2428TIP3    H228776   5.480   0.198   3.773  0.1446  0.6010 -0.2104
 2429TIP3   OH228777   4.377   1.182  12.316  0.9064 -0.2602 -0.5823
 2429TIP3    H128778   4.397   1.193  12.223  0.6487  0.8002 -0.5261
 2429TIP3    H228779   4.337   1.265  12.342  0.7435 -0.6375  0.4185
 2430TIP3   OH228780   4.525   1.928  16.806 -0.4987  0.1657 -0.3880
 2430TIP3    H128781   4.607   1.950  16.762  0.2811 -0.7650  0.5454
 2430TIP3    H228782   4.532   1.835  16.826 -1.3769  0.2759  0.5352
 2431TIP3   OH228783   6.193   5.084  16.943 -0.9971  0.0773 -0.1818
 2431TIP3    H128784   6.139   5.103  17.020  0.5614  1.7345  0.5913
 2431TIP3    H228785   6.281   5.067  16.979 -0.3327  0.4505 -1.5610
 2432TIP3   OH228786   1.474   2.115   5.065  0.2094  0.9250 -0.4219
 2432TIP3    H128787   1.484   2.047   5.131  0.7563  0.5226 -0.9071
 2432TIP3    H228788   1.525   2.189   5.097 -0.4963  1.1589  0.1736
 2433TIP3   OH228789   4.136   4.401  17.122  0.2259 -0.1240  0.2537
 2433TIP3    H128790   4.189   4.334  17.079  1.5111  0.3228  1.0786
 2433TIP3    H228791   4.048   4.363  17.127  0.2775 -0.6025 -1.7644
 2434TIP3   OH228792   5.940   1.406   2.985  0.2171 -0.3194 -0.5606
 2434TIP3    H128793   6.023   1.444   2.957 -0.6996  1.6083 -0.7910
 2434TIP3    H228794   5.891   1.394   2.903 -0.4691  0.4012 -0.2631
 2435TIP3   OH228795   4.026   3.652   2.968 -0.4925  0.1890  0.0752
 2435TIP3    H128796   3.979   3.591   3.025 -0.3381  0.7221  0.7802
 2435TIP3    H228797   4.050   3.725   3.025  2.5563 -0.7470  0.1536
 2436TIP3   OH228798   5.970   0.379   0.702 -0.2708  0.5484  0.1233
 2436TIP3    H128799   5.880   0.353   0.718  0.6670 -2.3012  1.5498
 2436TIP3    H228800   6.003   0.315   0.638  0.5785  2.0048 -0.9824
 2437TIP3   OH228801   1.732   1.453   4.091  0.2792  0.2711 -0.8543
 2437TIP3    H128802   1.660   1.391   4.076 -0.3357  0.2142  1.8317
 2437TIP3    H228803   1.809   1.398   4.102 -0.0767  0.0066  0.4862
 2438TIP3   OH228804   3.724   5.077  17.317  0.5099 -0.3754 -0.3409
 2438TIP3    H128805   3.673   5.004  17.282  1.2817 -1.4063  0.6353
 2438TIP3    H228806   3.789   5.036  17.374  0.3624  1.1345  0.9814
 2439TIP3   OH228807   0.490   3.358   4.242 -0.7388  0.0147 -0.2182
 2439TIP3    H128808   0.423   3.416   4.205 -0.5460  1.2412  1.2427
 2439TIP3    H228809   0.566   3.368   4.185 -0.7195  1.2167 -0.0028
 2440TIP3   OH228810   6.600   3.122   4.436 -0.0352  0.1039  0.7901
 2440TIP3    H128811   6.596   3.059   4.364  1.7375  1.3912 -0.5204
 2440TIP3    H228812   6.647   3.077   4.506  2.9526  0.4813 -0.8173
 2441TIP3   OH228813   2.296   1.609  12.009  0.4697  0.4432 -0.1563
 2441TIP3    H128814   2.225   1.609  11.944  0.1768  1.0335  0.1470
 2441TIP3    H228815   2.353   1.681  11.982  1.2257 -0.3544 -0.6845
 2442TIP3   OH228816   2.320   3.852  16.481  0.7645  0.0086  0.4421
 2442TIP3    H128817   2.326   3.779  16.419  1.2708  0.1761  0.2860
 2442TIP3    H228818   2.340   3.930  16.428 -1.0296  0.4251  0.3153
 2443TIP3   OH228819   0.928   5.623   1.974  0.0199 -0.6628  0.4008
 2443TIP3    H128820   1.005   5.572   1.947 -0.5721 -1.3503 -0.0278
 2443TIP3    H228821   0.960   5.713   1.979  0.4856 -0.6950 -1.3566
 2444TIP3   OH228822   5.881   0.047  15.026 -0.3421  0.2709 -0.7609
 2444TIP3    H128823   5.943  -0.008  14.978  1.2612  1.1550  0.1893
 2444TIP3    H228824   5.849   0.110  14.961 -1.7267 -1.3584 -1.7047
 2445TIP3   OH228825   6.515   5.744   1.860 -0.2046 -0.0220 -0.4093
 2445TIP3    H128826   6.543   5.830   1.830 -1.9950  0.0638 -1.9925
 2445TIP3    H228827   6.515   5.750   1.955  1.3642  1.1408 -0.4412
 2446TIP3   OH228828   6.659   3.498  16.069  0.1032  0.5870  0.3549
 2446TIP3    H128829   6.638   3.477  15.978  0.3200 -0.0547  0.4473
 2446TIP3    H228830   6.589   3.556  16.098  0.9372  2.2235 -0.7458
 2447TIP3   OH228831   6.630   1.910  16.906 -0.1100 -0.5323 -0.5775
 2447TIP3    H128832   6.549   1.947  16.940 -0.0214  1.7194 -2.5621
 2447TIP3    H228833   6.624   1.921  16.812  3.0103  0.9454 -0.7334
 2448TIP3   OH228834   2.440   5.428  16.381 -0.0950 -0.1328  0.4965
 2448TIP3    H128835   2.386   5.472  16.315 -0.3062  1.2163  1.5150
 2448TIP3    H228836   2.528   5.430  16.345 -0.5413 -1.5777 -0.7964
 2449TIP3   OH228837   2.076   0.433   1.085  0.0211  0.0982 -0.2281
 2449TIP3    H128838   2.126   0.492   1.029 -0.0533  0.5526  0.1771
 2449TIP3    H228839   2.137   0.411   1.156 -0.0684 -0.0367 -0.1941
 2450TIP3   OH228840   4.937   2.403  13.403  0.2483  0.9215 -0.5218
 2450TIP3    H128841   4.890   2.339  13.350 -1.4379  0.8241  0.9822
 2450TIP3    H228842   4.909   2.488  13.367 -0.5153  0.8494 -0.1260
 2451TIP3   OH228843   1.552   0.712  12.108 -0.1038 -0.5783 -0.0841
 2451TIP3    H128844   1.517   0.656  12.178  1.4803  0.1179  1.3294
 2451TIP3    H228845   1.642   0.684  12.097  0.8657  1.8274  0.9087
 2452TIP3   OH228846   2.104   2.023  15.040  0.1819  0.5599  0.1924
 2452TIP3    H128847   2.182   2.016  15.095  0.2745 -0.5705 -0.0583
 2452TIP3    H228848   2.034   2.048  15.101  0.1807 -1.1586  0.9667
 2453TIP3   OH228849   5.338   0.273  11.714 -0.0562  0.3721 -0.1960
 2453TIP3    H128850   5.323   0.180  11.732 -1.0326  0.5841  0.1713
 2453TIP3    H228851   5.263   0.300  11.660  0.0771  1.0045 -0.0774
 2454TIP3   OH228852   5.997   5.354   3.677  0.0490  0.2220  0.1642
 2454TIP3    H128853   6.068   5.296   3.707  0.8408  1.0658 -0.0365
 2454TIP3    H228854   5.924   5.334   3.736  0.3084 -0.9508  0.1222
 2455TIP3   OH228855   1.874   4.410   2.767  0.2499  0.3007 -0.1926
 2455TIP3    H128856   1.787   4.440   2.741  0.0420  1.9428  2.1180
 2455TIP3    H228857   1.922   4.401   2.685 -1.5854  0.9664 -1.4048
 2456TIP3   OH228858   1.313   4.951  14.135  0.6254  0.3630  0.2910
 2456TIP3    H128859   1.329   4.856  14.130  0.4786  0.3936 -1.1733
 2456TIP3    H228860   1.228   4.963  14.095  0.5331  1.1004  0.7007
 2457TIP3   OH228861   1.390   4.674   4.549  0.1539  0.3515  0.7625
 2457TIP3    H128862   1.484   4.667   4.568  0.0761  1.0797  1.5165
 2457TIP3    H228863   1.378   4.764   4.519 -0.0793 -0.1819 -0.7881
 2458TIP3   OH228864   0.992   6.441  11.162 -0.2726 -0.7130 -0.0772
 2458TIP3    H128865   0.949   6.477  11.240 -0.2540 -2.0523  0.5629
 2458TIP3    H228866   1.052   6.375  11.196 -1.4166 -2.4581 -1.3140
 2459TIP3   OH228867   4.691   2.824   3.357  0.4398 -0.1931 -0.6160
 2459TIP3    H128868   4.743   2.904   3.348  0.2170 -0.1397 -1.5398
 2459TIP3    H228869   4.734   2.761   3.299 -1.3479  0.3042 -2.6312
 2460TIP3   OH228870   2.139   4.369   3.585 -0.1035  0.0128  0.0764
 2460TIP3    H128871   2.234   4.385   3.581 -0.0127 -0.1410  1.1921
 2460TIP3    H228872   2.121   4.311   3.512  0.6403  0.1839 -0.2508
 2461TIP3   OH228873   1.827   1.371   3.566 -0.0629 -0.4073 -0.0949
 2461TIP3    H128874   1.741   1.410   3.555  0.1995 -0.1462 -1.3008
 2461TIP3    H228875   1.815   1.279   3.542 -0.0558 -0.4217 -0.0437
 2462TIP3   OH228876   4.282   1.110  14.123  0.0567 -0.0966  0.6284
 2462TIP3    H128877   4.331   1.103  14.041  1.2154  1.5525  1.1344
 2462TIP3    H228878   4.199   1.151  14.098  0.2780  0.1161  0.2333
 2463TIP3   OH228879   6.327   6.485   5.467 -0.2252  0.1085  0.1310
 2463TIP3    H128880   6.293   6.406   5.425  0.9680 -0.7299  0.6984
 2463TIP3    H228881   6.270   6.498   5.543 -0.4243 -0.1985  0.0357
 2464TIP3   OH228882   3.363   4.132  12.876  0.1406  0.1472  0.8644
 2464TIP3    H128883   3.289   4.186  12.902 -0.7238 -1.0231  0.9071
 2464TIP3    H228884   3.421   4.192  12.829 -1.3701  0.8397 -0.1902
 2465TIP3   OH228885   0.962   4.357   4.479  0.1632  0.2146 -0.0272
 2465TIP3    H128886   0.918   4.433   4.516  0.6479  0.6582 -0.3455
 2465TIP3    H228887   0.926   4.283   4.527 -1.2994  0.5026 -0.6334
 2466TIP3   OH228888   5.642   3.321   1.253 -0.4584  0.1012 -0.0005
 2466TIP3    H128889   5.582   3.271   1.198 -0.4518  0.2764 -0.1677
 2466TIP3    H228890   5.707   3.257   1.281 -0.6122 -0.0462  0.0208
 2467TIP3   OH228891   1.101   4.372   4.830  0.3989  0.1412 -0.1312
 2467TIP3    H128892   1.023   4.427   4.821  0.9022  0.9102  0.2050
 2467TIP3    H228893   1.075   4.305   4.893 -0.0716  0.2450 -0.2074
 2468TIP3   OH228894   4.806   4.961  17.077  0.1602  0.0069 -0.0951
 2468TIP3    H128895   4.818   5.020  17.151  0.2681 -1.1916  0.8752
 2468TIP3    H228896   4.878   4.983  17.017 -0.8675  2.1033 -0.6600
 2469TIP3   OH228897   0.811   4.814  11.373  0.2407 -0.5940 -0.2812
 2469TIP3    H128898   0.891   4.807  11.321 -0.0511  0.7007 -0.9412
 2469TIP3    H228899   0.745   4.847  11.311 -0.2074  0.6203  0.8124
 2470TIP3   OH228900   3.327   6.247  12.383  0.5740  0.9582  0.1760
 2470TIP3    H128901   3.295   6.272  12.296 -0.6069 -0.9778  0.0022
 2470TIP3    H228902   3.414   6.288  12.389  0.2012  2.1025 -1.4180
 2471TIP3   OH228903   4.451   1.464  11.772 -0.5220 -0.2778 -0.6764
 2471TIP3    H128904   4.420   1.375  11.789 -1.3670  0.1954  0.4040
 2471TIP3    H228905   4.451   1.506  11.858  0.7630  0.5042 -1.0229
 2472TIP3   OH228906   3.476   5.091   1.185  0.0376  0.5712  0.3030
 2472TIP3    H128907   3.442   5.117   1.271 -0.8601  0.9716 -0.1573
 2472TIP3    H228908   3.398   5.077   1.132  0.5111 -1.5101  0.0505
 2473TIP3   OH228909   4.536   4.131   5.131 -0.2514  0.1051 -0.4641
 2473TIP3    H128910   4.453   4.161   5.094  0.3276 -0.2670 -2.1656
 2473TIP3    H228911   4.516   4.112   5.223 -1.6521  1.5131 -0.4420
 2474TIP3   OH228912   3.933   5.857  12.718 -0.0618 -0.0666 -0.3564
 2474TIP3    H128913   4.017   5.897  12.739 -0.8516  1.6234 -0.2404
 2474TIP3    H228914   3.911   5.806  12.796  1.7113 -2.1572 -1.1228
 2475TIP3   OH228915   1.170   0.873  13.448 -0.0507  0.5813  0.0037
 2475TIP3    H128916   1.200   0.962  13.466  0.2768  0.1521  1.7809
 2475TIP3    H228917   1.137   0.841  13.533  0.3813 -1.1837 -0.4467
 2476TIP3   OH228918   1.967   2.163  13.391 -0.2933 -0.3973 -0.2688
 2476TIP3    H128919   1.949   2.086  13.336 -1.2985 -1.1956  1.1033
 2476TIP3    H228920   2.047   2.140  13.437 -0.7512 -0.7896  0.3612
 2477TIP3   OH228921   0.427   4.100  11.999  0.1253  0.3471 -0.0322
 2477TIP3    H128922   0.402   4.173  11.942 -1.9484 -0.7258 -0.6030
 2477TIP3    H228923   0.469   4.037  11.940 -0.1371  0.1362  0.0010
 2478TIP3   OH228924   4.034   3.619   3.567 -0.0247 -0.1258  0.1795
 2478TIP3    H128925   3.987   3.544   3.531  0.2575 -1.1017  1.7109
 2478TIP3    H228926   4.082   3.583   3.642 -0.1171  1.6527  1.1501
 2479TIP3   OH228927   5.448   3.851  14.331  0.2024 -0.1024 -0.3175
 2479TIP3    H128928   5.541   3.876  14.325  0.2079  0.1141  0.5389
 2479TIP3    H228929   5.409   3.919  14.387 -0.4694 -0.2067 -0.6589
 2480TIP3   OH228930   6.750   2.582  11.382 -0.4674 -0.4706  0.2255
 2480TIP3    H128931   6.824   2.543  11.336 -0.8794  0.4954 -1.3383
 2480TIP3    H228932   6.785   2.662  11.421 -0.4163 -0.6459  0.5481
 2481TIP3   OH228933   3.182   4.088  12.357 -0.5452  0.3821 -0.0105
 2481TIP3    H128934   3.243   4.014  12.357 -0.3931  0.5077  0.1708
 2481TIP3    H228935   3.097   4.049  12.378 -0.2027  0.4755  1.6875
 2482TIP3   OH228936   2.397   5.288   2.077 -0.1692 -0.3749 -0.1591
 2482TIP3    H128937   2.425   5.217   2.020  3.7557  0.1086  0.8353
 2482TIP3    H228938   2.419   5.368   2.029 -2.6625  0.2119 -0.4397
 2483TIP3   OH228939   5.424   3.999  12.888  0.1166 -0.3035 -0.7879
 2483TIP3    H128940   5.398   4.089  12.904  2.5064  0.1564  1.1693
 2483TIP3    H228941   5.453   3.998  12.796  0.7419  1.1347 -0.6366
 2484TIP3   OH228942   4.842   3.665  12.947 -0.3597 -0.3762  0.4899
 2484TIP3    H128943   4.901   3.693  12.877  0.9107 -3.1133  0.3241
 2484TIP3    H228944   4.857   3.727  13.018  2.0989 -0.4429  0.1193
 2485TIP3   OH228945   6.744   6.583   0.930  0.6878  0.3541 -0.8277
 2485TIP3    H128946   6.832   6.588   0.890  0.6201  2.1358 -0.8321
 2485TIP3    H228947   6.720   6.674   0.947 -1.0251 -0.1263 -0.4754
 2486TIP3   OH228948   0.163   3.744   4.990 -0.2519  0.5314 -0.0397
 2486TIP3    H128949   0.224   3.691   4.939  1.0336  0.1879  1.7536
 2486TIP3    H228950   0.080   3.735   4.944  0.5600 -0.7187 -1.3747
 2487TIP3   OH228951   5.986   5.426   3.997  0.0994 -0.2700  0.3930
 2487TIP3    H128952   6.080   5.424   3.975 -0.0944 -0.7770 -0.4401
 2487TIP3    H228953   5.970   5.341   4.040 -0.2984 -0.8780 -0.9116
 2488TIP3   OH228954   3.248   0.063  14.418  0.6579  0.0130  0.4832
 2488TIP3    H128955   3.285   0.114  14.345 -0.7523  0.8587  0.3286
 2488TIP3    H228956   3.290  -0.023  14.410  1.5097  0.4910 -0.5260
 2489TIP3   OH228957   2.658   1.670  10.616  0.2842  0.0792 -0.5364
 2489TIP3    H128958   2.681   1.714  10.698 -0.0148 -1.2871  0.2956
 2489TIP3    H228959   2.686   1.580  10.628 -2.5858 -0.9338 -0.6735
 2490TIP3   OH228960   3.210   2.145  16.806  0.1409  0.2825 -0.3275
 2490TIP3    H128961   3.183   2.058  16.834 -0.5258  0.5013 -0.2693
 2490TIP3    H228962   3.161   2.159  16.724  1.7339 -0.1848 -1.4011
 2491TIP3   OH228963   6.380   6.712   4.227 -0.0198  0.0938  0.0317
 2491TIP3    H128964   6.333   6.718   4.310  1.0087 -1.8210  0.8194
 2491TIP3    H228965   6.446   6.644   4.242  0.8462  0.4124 -2.0465
 2492TIP3   OH228966   4.143   0.216  11.120 -0.2827  0.5685 -0.2215
 2492TIP3    H128967   4.188   0.228  11.037  1.4207 -0.6770  0.4487
 2492TIP3    H228968   4.173   0.130  11.152 -1.4197  0.6980  1.3451
 2493TIP3   OH228969   6.434   1.223   5.770  0.2402  0.1323 -0.2239
 2493TIP3    H128970   6.403   1.304   5.810 -2.5481 -0.3485 -1.1347
 2493TIP3    H228971   6.512   1.248   5.721 -0.0340  2.0622  0.2413
 2494TIP3   OH228972   5.705   2.441   3.994 -0.6562  0.3850 -0.0608
 2494TIP3    H128973   5.723   2.360   3.945 -0.5768  0.5953 -0.3839
 2494TIP3    H228974   5.730   2.511   3.934 -3.3097  0.7421 -0.9121
 2495TIP3   OH228975   5.609   6.563  11.858 -0.2738 -0.0622 -0.6073
 2495TIP3    H128976   5.636   6.632  11.798 -0.7414  0.6282 -0.0387
 2495TIP3    H228977   5.684   6.505  11.864  0.2660  0.6124 -0.7810
 2496TIP3   OH228978   1.556   4.111   6.616  0.0243 -0.0824 -0.0888
 2496TIP3    H128979   1.651   4.110   6.623  0.0414 -0.7154 -0.3961
 2496TIP3    H228980   1.537   4.168   6.542  0.2236 -0.9838 -0.8528
 2497TIP3   OH228981   6.375   1.978  17.034 -0.5699 -0.2042  0.2042
 2497TIP3    H128982   6.281   2.000  17.039 -0.7164 -0.6605 -0.4194
 2497TIP3    H228983   6.392   1.926  17.112 -0.2472  1.9577  1.6577
 2498TIP3   OH228984   1.177   3.498  15.605  0.1366 -0.8064 -0.2712
 2498TIP3    H128985   1.142   3.581  15.635  0.7627 -0.3067 -0.9003
 2498TIP3    H228986   1.193   3.449  15.686  0.0868 -0.1905  0.1203
 2499TIP3   OH228987   6.228   3.288   0.522  0.3186  0.2277 -0.1126
 2499TIP3    H128988   6.161   3.356   0.518  0.2167  0.1065 -3.8967
 2499TIP3    H228989   6.308   3.330   0.490  0.7728 -0.8852 -0.5078
 2500TIP3   OH228990   5.546   3.540   2.749  0.2857  0.4158 -0.5164
 2500TIP3    H128991   5.564   3.474   2.815  2.1984  3.0996  1.8732
 2500TIP3    H228992   5.466   3.583   2.780 -0.3254  0.0030 -1.4644
 2501TIP3   OH228993   2.141   4.234  12.575 -0.2499  0.0325  0.0855
 2501TIP3    H128994   2.113   4.158  12.525 -1.0337  1.3337 -1.5475
 2501TIP3    H228995   2.143   4.204  12.666 -0.7655 -1.8470 -0.4882
 2502TIP3   OH228996   3.698   5.953   4.235  0.1219 -0.5154  0.4392
 2502TIP3    H128997   3.702   6.022   4.301 -1.0475  1.2400 -1.2126
 2502TIP3    H228998   3.614   5.968   4.190 -1.2238 -4.3457  1.3313
 2503TIP3   OH228999   2.127   4.610   2.439 -0.7008 -0.7904  0.5697
 2503TIP3    H129000   2.185   4.621   2.515  0.8591 -1.8861 -0.4038
 2503TIP3    H229001   2.114   4.516   2.433 -0.9471 -0.7018 -0.4064
 2504TIP3   OH229002   5.474   1.615  15.641 -0.5216 -0.0142  0.0466
 2504TIP3    H129003   5.414   1.546  15.614  0.8483 -0.5983 -1.6474
 2504TIP3    H229004   5.540   1.619  15.572  1.2823  0.7570  1.7033
 2505TIP3   OH229005   1.032   6.723  15.476  0.2068 -0.4382  0.1645
 2505TIP3    H129006   0.989   6.805  15.497  1.4765  0.1716  0.4688
 2505TIP3    H229007   1.012   6.709  15.383 -1.6969 -0.8601  0.5833
 2506TIP3   OH229008   3.027   5.994   4.108 -0.3668  0.1355 -0.2227
 2506TIP3    H129009   3.053   5.994   4.016 -0.1476  0.0865 -0.1608
 2506TIP3    H229010   3.101   6.033   4.155 -0.5658  0.3567 -0.0908
 2507TIP3   OH229011   3.788   4.791   0.784  0.4035  0.2536 -0.0942
 2507TIP3    H129012   3.802   4.758   0.873  1.4585  1.1298  0.0896
 2507TIP3    H229013   3.872   4.778   0.740  0.3334  1.1314 -0.5100
 2508TIP3   OH229014   6.026   1.749  13.046  0.7193 -0.1079 -0.7886
 2508TIP3    H129015   6.091   1.758  13.115  1.1110 -0.6161 -1.0858
 2508TIP3    H229016   6.034   1.831  12.996  1.8010 -0.5475 -1.3815
 2509TIP3   OH229017   5.140   0.043  15.449  0.0332 -0.1760  0.3865
 2509TIP3    H129018   5.077   0.113  15.430  1.3034  0.7706 -0.5368
 2509TIP3    H229019   5.128   0.025  15.543 -2.7412 -1.2280 -0.0808
 2510TIP3   OH229020   5.582   1.824  15.959  0.3132  0.7088 -0.6534
 2510TIP3    H129021   5.653   1.887  15.947 -0.2074  1.6627  0.8926
 2510TIP3    H229022   5.565   1.825  16.053 -0.3775 -1.0529 -0.7184
 2511TIP3   OH229023   1.346   3.035   4.756  0.1789  0.4217 -0.8995
 2511TIP3    H129024   1.425   3.084   4.777 -0.2937  0.6431  0.4692
 2511TIP3    H229025   1.350   2.958   4.812 -0.4323  0.2925 -1.0287
 2512TIP3   OH229026   1.880   3.784   3.347  0.0974 -0.1518 -0.6131
 2512TIP3    H129027   1.959   3.748   3.388  0.5594  1.0987 -0.3567
 2512TIP3    H229028   1.838   3.834   3.417 -1.0223 -0.9415 -0.7041
 2513TIP3   OH229029   6.087   1.945  13.818 -0.4530 -0.1674  0.2185
 2513TIP3    H129030   6.024   1.873  13.806  2.2021 -2.5036 -0.9452
 2513TIP3    H229031   6.158   1.906  13.868  0.7665  1.9184  0.2112
 2514TIP3   OH229032   3.110   1.445  16.028 -0.0566  0.2020  0.2959
 2514TIP3    H129033   3.204   1.447  16.010  0.1629 -0.7528  1.2397
 2514TIP3    H229034   3.095   1.518  16.088  0.0041  0.5846 -0.1460
 2515TIP3   OH229035   2.845   3.060  15.971 -0.3764 -0.6492 -0.3724
 2515TIP3    H129036   2.889   2.975  15.967  0.4190 -0.1817 -2.2214
 2515TIP3    H229037   2.866   3.093  16.058  1.6791 -1.1079 -0.6478
 2516TIP3   OH229038   2.941   6.451   2.897  0.8473  0.0294  0.3679
 2516TIP3    H129039   2.981   6.538   2.907  1.2002 -0.0916  0.0224
 2516TIP3    H229040   3.003   6.402   2.844  1.1763 -0.8061  1.4969
 2517TIP3   OH229041   0.698   4.505   2.370  0.4333  0.3300 -0.2163
 2517TIP3    H129042   0.725   4.586   2.413  1.2526  0.3435 -0.7342
 2517TIP3    H229043   0.749   4.502   2.289 -1.7777  0.7824 -1.7166
 2518TIP3   OH229044   5.281   1.521  14.701 -0.0808 -0.1337 -0.0329
 2518TIP3    H129045   5.196   1.504  14.740 -0.6259  0.0157 -1.0969
 2518TIP3    H229046   5.260   1.567  14.619  1.1152  2.1913  0.8737
 2519TIP3   OH229047   3.236   6.500   2.182 -0.0349 -0.1535 -0.2589
 2519TIP3    H129048   3.278   6.415   2.190  0.8852  0.1638 -1.5229
 2519TIP3    H229049   3.266   6.535   2.099 -1.3323  0.9123 -0.3204
 2520TIP3   OH229050   4.475   2.037   0.589 -0.0001 -0.0855  0.1632
 2520TIP3    H129051   4.493   2.031   0.683 -0.0674  2.9701  0.4892
 2520TIP3    H229052   4.380   2.031   0.583  0.0371 -0.8178  0.2066
 2521TIP3   OH229053   0.561   2.491  13.465  0.7398 -0.3020 -0.2112
 2521TIP3    H129054   0.652   2.520  13.473  1.0894 -1.5431  0.4563
 2521TIP3    H229055   0.520   2.516  13.548  0.6278 -0.2908 -0.2687
 2522TIP3   OH229056   6.610   3.970   2.973  0.1758 -0.3783 -0.1589
 2522TIP3    H129057   6.623   3.985   3.067  0.8867 -1.7410 -0.0064
 2522TIP3    H229058   6.697   3.983   2.934 -0.4550  1.9115 -0.9224
 2523TIP3   OH229059   2.352   1.965   6.044  0.2970 -0.2978  0.4843
 2523TIP3    H129060   2.257   1.974   6.040  0.2375 -0.2860  1.5020
 2523TIP3    H229061   2.367   1.890   6.102  0.9010  0.2492  1.0639
 2524TIP3   OH229062   6.407   2.594   5.287  0.2690 -0.2029  0.0594
 2524TIP3    H129063   6.462   2.596   5.209  0.0077 -0.0461 -0.1265
 2524TIP3    H229064   6.452   2.651   5.349  0.2312  0.0672 -0.1542
 2525TIP3   OH229065   0.193   5.552   3.581  0.2528  0.0206  0.4025
 2525TIP3    H129066   0.187   5.457   3.572 -1.0961  0.1962 -0.8021
 2525TIP3    H229067   0.127   5.574   3.646 -0.2410  0.2390 -0.1668
 2526TIP3   OH229068   3.432   5.606  17.357  0.2105 -0.5422 -0.1448
 2526TIP3    H129069   3.462   5.515  17.347  2.6600  0.1150  0.6914
 2526TIP3    H229070   3.512   5.657  17.369 -1.1263  1.7247 -0.2877
 2527TIP3   OH229071   1.085   3.024  15.245  0.0551 -1.1926 -0.2465
 2527TIP3    H129072   1.164   3.004  15.196 -0.8036 -0.1701 -2.1605
 2527TIP3    H229073   1.094   3.115  15.272 -0.2981 -1.1935 -0.1083
 2528TIP3   OH229074   3.054   5.076   0.108  0.2485  1.0770 -0.3717
 2528TIP3    H129075   2.989   5.008   0.089  0.2800  0.5668  1.1892
 2528TIP3    H229076   3.052   5.133   0.032 -0.2061 -0.3463 -1.4803
 2529TIP3   OH229077   5.519   3.469  15.597 -0.2473  0.3013 -0.4317
 2529TIP3    H129078   5.600   3.521  15.600 -0.4776  0.6209  0.7521
 2529TIP3    H229079   5.537   3.393  15.653 -0.3633 -0.2450 -1.1206
 2530TIP3   OH229080   0.018   3.285  16.222  0.2329 -0.7246  0.6403
 2530TIP3    H129081   0.069   3.332  16.288  0.1573 -1.1937  1.0392
 2530TIP3    H229082   0.006   3.348  16.152 -1.1670  0.3661  1.7972
 2531TIP3   OH229083   2.159   1.906   2.728  0.2438 -0.2289 -0.6520
 2531TIP3    H129084   2.250   1.895   2.703  0.0286 -0.9429 -1.1298
 2531TIP3    H229085   2.145   2.001   2.724  1.7333  0.2199  2.2183
 2532TIP3   OH229086   6.446   1.231   1.877  0.3013 -0.0062 -0.3141
 2532TIP3    H129087   6.478   1.152   1.920  0.3107 -0.1008 -0.4936
 2532TIP3    H229088   6.447   1.298   1.945 -0.7081 -0.4176  0.1240
 2533TIP3   OH229089   3.264   6.767   3.797 -0.2067 -0.3327  0.0529
 2533TIP3    H129090   3.340   6.825   3.797  0.2390 -0.8998 -0.5585
 2533TIP3    H229091   3.198   6.815   3.746 -0.6017  0.5658  1.3550
 2534TIP3   OH229092   1.588   3.948   2.234 -0.1734 -0.3449 -0.1305
 2534TIP3    H129093   1.607   3.868   2.283  0.6443 -1.0835 -1.5859
 2534TIP3    H229094   1.543   3.918   2.155  0.7722  0.5237 -1.0320
 2535TIP3   OH229095   3.234   5.658  11.797 -0.5918  0.2976  0.3963
 2535TIP3    H129096   3.216   5.748  11.825  1.2081  0.5839  0.7543
 2535TIP3    H229097   3.285   5.620  11.868  2.2741  0.3693 -1.4565
 2536TIP3   OH229098   4.978   1.894   4.286 -0.6611 -0.1713  0.2260
 2536TIP3    H129099   5.067   1.929   4.279 -0.7534  0.2722  1.1257
 2536TIP3    H229100   4.942   1.903   4.198 -0.2407  0.8510  0.1451
 2537TIP3   OH229101   3.821   5.013   5.856 -0.4768 -0.1077  0.6846
 2537TIP3    H129102   3.823   4.918   5.869 -0.0531 -0.0798  0.8366
 2537TIP3    H229103   3.764   5.025   5.780 -1.1142 -0.4302  1.1006
 2538TIP3   OH229104   4.731   6.539   5.582 -0.4120  0.2292 -0.2119
 2538TIP3    H129105   4.714   6.492   5.663  0.4230  1.5620  0.7693
 2538TIP3    H229106   4.667   6.610   5.581  0.8676  1.4248  0.3159
 2539TIP3   OH229107   1.459   4.879   0.951 -0.6378 -0.4233  0.2674
 2539TIP3    H129108   1.370   4.875   0.919 -0.1745  0.6104 -1.2344
 2539TIP3    H229109   1.493   4.963   0.921  0.2753  0.0393  2.3777
 2540TIP3   OH229110   5.230   0.999  16.762 -0.0666 -0.2652  0.4268
 2540TIP3    H129111   5.260   0.949  16.837  0.4247  0.2916  0.6092
 2540TIP3    H229112   5.186   1.076  16.799  0.1275 -0.0162  0.1555
 2541TIP3   OH229113   5.997   1.159   5.641 -0.0740  0.2921 -0.5055
 2541TIP3    H129114   6.028   1.249   5.644 -0.7736  0.5382  2.3494
 2541TIP3    H229115   5.903   1.166   5.624 -0.8842  0.5004  3.1538
 2542TIP3   OH229116   5.745   5.113   0.068  0.4835  0.1977 -0.5174
 2542TIP3    H129117   5.728   5.062  -0.012  0.7842 -0.2452 -0.3065
 2542TIP3    H229118   5.766   5.046   0.134 -1.2138  0.4289  0.3258
 2543TIP3   OH229119   4.791   5.022   6.520  0.0180  0.7257 -0.5385
 2543TIP3    H129120   4.862   4.959   6.513 -0.8593 -0.3447 -0.0870
 2543TIP3    H229121   4.726   4.992   6.456 -1.4681 -0.2869  1.3550
 2544TIP3   OH229122   4.097   5.124  12.037  0.7317 -0.7010  0.0528
 2544TIP3    H129123   4.173   5.114  11.980  1.6068 -2.1209  1.4139
 2544TIP3    H229124   4.133   5.151  12.121 -0.4705  0.4607  0.2359
 2545TIP3   OH229125   4.313   3.872  15.367 -0.3526  0.3603  0.2878
 2545TIP3    H129126   4.245   3.808  15.389 -0.1469  0.1129  0.2050
 2545TIP3    H229127   4.384   3.820  15.329 -0.4900  0.7172 -0.4696
 2546TIP3   OH229128   4.723   6.378  15.833  0.1997  0.3596  0.0477
 2546TIP3    H129129   4.799   6.430  15.859 -0.6422  1.9869 -0.5901
 2546TIP3    H229130   4.663   6.385  15.908  0.4286 -0.4192  0.3070
 2547TIP3   OH229131   0.668   6.661   3.329  0.2876  0.4334  0.4246
 2547TIP3    H129132   0.629   6.678   3.244 -1.0155 -0.1634  0.8758
 2547TIP3    H229133   0.745   6.607   3.311 -1.0688 -1.3683 -0.2554
 2548TIP3   OH229134   5.627   1.282  16.298 -0.2402 -0.0261 -0.6888
 2548TIP3    H129135   5.552   1.302  16.242 -0.3209  1.2086 -0.1731
 2548TIP3    H229136   5.596   1.298  16.387  0.3863 -0.3185 -0.4079
 2549TIP3   OH229137   2.929   0.445  13.807  0.0397  0.2641  0.4291
 2549TIP3    H129138   2.877   0.421  13.884  0.4530 -1.1647  0.2904
 2549TIP3    H229139   2.879   0.411  13.733 -0.6684  2.1739 -0.0323
 2550TIP3   OH229140   6.009   5.850   0.894  0.7886 -0.2149 -0.0288
 2550TIP3    H129141   6.045   5.914   0.955 -1.5178 -0.4960  1.7350
 2550TIP3    H229142   6.013   5.767   0.941 -0.6887 -0.5135 -0.3973
 2551TIP3   OH229143   4.640   1.157   3.800 -0.1584  0.6614  0.7097
 2551TIP3    H129144   4.579   1.225   3.770 -0.5795 -0.6987 -1.8762
 2551TIP3    H229145   4.617   1.080   3.746  2.4622 -0.5196  1.1540
 2552TIP3   OH229146   3.084   0.657  15.887  0.2226  0.1035 -0.2012
 2552TIP3    H129147   3.001   0.657  15.933 -0.0175  1.8632 -0.5616
 2552TIP3    H229148   3.149   0.681  15.953  0.3971 -0.9033 -0.0016
 2553TIP3   OH229149   3.022   0.617  16.226 -0.2031  0.0657  0.1114
 2553TIP3    H129150   2.937   0.657  16.209 -1.3879 -1.5251  1.8499
 2553TIP3    H229151   3.083   0.691  16.233 -1.1311  1.1557 -2.4882
 2554TIP3   OH229152   4.904   5.001  11.075 -1.1731 -0.0928  0.1477
 2554TIP3    H129153   4.917   5.025  11.167  1.4958 -0.8836  0.0684
 2554TIP3    H229154   4.896   5.085  11.030 -0.0249  0.4123  0.8305
 2555TIP3   OH229155   0.533   4.259  12.838 -0.1468  0.2903 -0.7169
 2555TIP3    H129156   0.540   4.331  12.900  1.8690 -0.0083 -0.5282
 2555TIP3    H229157   0.460   4.207  12.871 -3.0015  3.1803 -1.9642
 2556TIP3   OH229158   5.087   0.820   2.969  0.2622  0.6190 -0.1911
 2556TIP3    H129159   5.059   0.796   3.057  0.9300  0.0163 -0.1377
 2556TIP3    H229160   5.158   0.760   2.949  1.9728  2.4895 -0.0721
 2557TIP3   OH229161   1.995   2.293   6.481 -0.0066  0.1028 -0.2591
 2557TIP3    H129162   2.007   2.251   6.395  1.0080 -0.0447 -0.0645
 2557TIP3    H229163   1.997   2.221   6.543 -0.1744  0.2647 -0.0644
 2558TIP3   OH229164   0.114   2.193   4.479 -0.2159 -0.1538 -0.1510
 2558TIP3    H129165   0.065   2.242   4.413 -1.7896 -1.4867 -0.0499
 2558TIP3    H229166   0.115   2.103   4.445 -1.7202 -1.0369  1.9184
 2559TIP3   OH229167   1.175   2.207   2.902 -0.2389 -0.2263  0.1860
 2559TIP3    H129168   1.124   2.173   2.828 -3.4434 -0.4806  2.3308
 2559TIP3    H229169   1.166   2.302   2.895  0.1413 -0.2141 -0.1751
 2560TIP3   OH229170   3.093   0.243   3.091 -0.0461  0.3975  0.1041
 2560TIP3    H129171   3.051   0.322   3.058 -0.6719 -0.2812 -0.7416
 2560TIP3    H229172   3.106   0.261   3.184  0.0809  1.6055 -0.1285
 2561TIP3   OH229173   2.657   3.145  15.544 -0.2237 -0.1621 -0.1590
 2561TIP3    H129174   2.658   3.150  15.639  0.4918 -1.1745 -0.1000
 2561TIP3    H229175   2.565   3.158  15.521 -0.4310 -0.0833  0.6771
 2562TIP3   OH229176   4.872   2.924  12.487  0.2570  0.0035  0.3059
 2562TIP3    H129177   4.797   2.882  12.528  0.9610  0.0849  1.7336
 2562TIP3    H229178   4.834   2.971  12.413 -1.1523  0.2475  1.1275
 2563TIP3   OH229179   2.658   2.608  13.767 -0.0001 -0.1814  0.7404
 2563TIP3    H129180   2.637   2.555  13.689 -2.1949  0.9997  0.4557
 2563TIP3    H229181   2.620   2.559  13.840 -0.0011 -0.1345  0.7710
 2564TIP3   OH229182   2.382   3.839  12.820 -0.4335 -0.8977 -0.7990
 2564TIP3    H129183   2.421   3.762  12.779  1.0800  0.1569 -1.4084
 2564TIP3    H229184   2.383   3.906  12.751  1.9063  0.8361  0.8080
 2565TIP3   OH229185   2.533   2.882  16.048 -0.6926  0.0309 -0.2748
 2565TIP3    H129186   2.585   2.942  16.101 -3.0220 -0.2348  2.5740
 2565TIP3    H229187   2.564   2.795  16.072  0.0224 -0.0533 -1.4252
 2566TIP3   OH229188   2.868   2.754  11.670  0.7020  0.4274 -0.3849
 2566TIP3    H129189   2.874   2.848  11.689  2.7717 -0.0411  1.7532
 2566TIP3    H229190   2.774   2.736  11.667  0.2609  2.5519 -0.9712
 2567TIP3   OH229191   4.578   4.867  11.934  0.5363  0.0263  0.2333
 2567TIP3    H129192   4.672   4.871  11.951  0.2401  0.2965  2.0533
 2567TIP3    H229193   4.552   4.779  11.961  0.2594 -0.0665 -0.3087
 2568TIP3   OH229194   0.307   6.003   6.037 -0.0471  0.2779  1.1351
 2568TIP3    H129195   0.347   6.048   6.111  2.0786 -1.4392  1.1141
 2568TIP3    H229196   0.346   6.044   5.959  1.6200 -1.2162  1.1121
 2569TIP3   OH229197   1.883   0.807  11.827  0.0625 -0.4006  0.1841
 2569TIP3    H129198   1.873   0.795  11.732 -0.4732 -3.1648  0.5035
 2569TIP3    H229199   1.812   0.866  11.851  0.5475  0.8009 -1.1934
 2570TIP3   OH229200   2.216   6.078  11.267  0.8437 -0.1053  0.2673
 2570TIP3    H129201   2.228   6.147  11.332 -0.5955  0.8030 -0.3827
 2570TIP3    H229202   2.124   6.084  11.242  1.2186 -0.8123 -1.4227
 2571TIP3   OH229203   4.472   4.753  16.081 -0.1286  0.3039 -0.2851
 2571TIP3    H129204   4.484   4.712  16.166 -0.1328  1.8678  0.4950
 2571TIP3    H229205   4.533   4.827  16.081 -0.5051  0.6396 -1.4329
 2572TIP3   OH229206   4.265   4.903  11.590 -0.4936 -0.2192  0.2734
 2572TIP3    H129207   4.339   4.955  11.620 -0.7561  0.2737  0.0809
 2572TIP3    H229208   4.188   4.957  11.610 -0.7233 -0.2421 -0.5225
 2573TIP3   OH229209   4.296   2.136   3.553 -0.5729  0.6418 -0.3318
 2573TIP3    H129210   4.312   2.129   3.647 -0.3820 -1.2399 -0.4781
 2573TIP3    H229211   4.233   2.067   3.533 -2.7495  2.7187 -1.1761
 2574TIP3   OH229212   1.377   3.518  11.562 -0.5775  0.0943  0.2926
 2574TIP3    H129213   1.366   3.564  11.478  0.6576  2.1466  1.1885
 2574TIP3    H229214   1.373   3.425  11.539 -0.0558  0.5972 -2.0841
 2575TIP3   OH229215   0.114   2.251   1.071  0.3425 -0.5018 -0.3884
 2575TIP3    H129216   0.107   2.156   1.074  1.1589 -0.5522  0.4245
 2575TIP3    H229217   0.079   2.280   1.156 -1.0025  0.0128 -1.0890
 2576TIP3   OH229218   4.120   2.285   2.638  0.5690  0.5121 -0.1013
 2576TIP3    H129219   4.177   2.213   2.666 -1.2931 -0.4517  1.4392
 2576TIP3    H229220   4.092   2.261   2.550  0.2454 -0.4886  0.2650
 2577TIP3   OH229221   2.351   0.207  12.627 -0.1761  0.3023  0.0667
 2577TIP3    H129222   2.351   0.226  12.533 -0.9489  0.8057  0.1589
 2577TIP3    H229223   2.305   0.123  12.635  3.0852 -1.6981 -0.3225
 2578TIP3   OH229224   1.940   5.219  14.878 -0.6051  0.2681 -0.3423
 2578TIP3    H129225   1.885   5.206  14.956 -0.8422 -2.6497 -0.8853
 2578TIP3    H229226   1.946   5.132  14.838  1.0268  1.3198 -2.6006
 2579TIP3   OH229227   5.067   4.111   3.258  0.0184  0.1833 -0.2685
 2579TIP3    H129228   5.083   4.206   3.250  1.2049  0.1943  1.5930
 2579TIP3    H229229   5.083   4.092   3.350 -2.4375 -1.4741 -0.0952
 2580TIP3   OH229230   6.012   1.139  12.116 -0.5045 -0.3957  0.5414
 2580TIP3    H129231   6.057   1.204  12.061 -0.0037  0.1135  1.5348
 2580TIP3    H229232   5.920   1.146  12.090 -0.3337  0.1047  0.0369
 2581TIP3   OH229233   6.145   5.629  13.884 -0.4821 -0.3188  0.2433
 2581TIP3    H129234   6.067   5.574  13.889 -0.4732 -0.2112  2.0386
 2581TIP3    H229235   6.115   5.717  13.908  0.2127 -0.3248  1.1983
 2582TIP3   OH229236   1.850   0.971   5.002  0.2573  0.0946 -0.0639
 2582TIP3    H129237   1.874   0.883   4.971 -2.2072 -1.2367  1.4388
 2582TIP3    H229238   1.881   0.973   5.092 -2.4862 -0.6129  0.9979
 2583TIP3   OH229239   0.342   4.790   0.231 -0.0846  0.0934  0.1129
 2583TIP3    H129240   0.266   4.743   0.265  0.2688 -0.4291  0.1954
 2583TIP3    H229241   0.369   4.740   0.154  0.2193  0.2346  0.1257
 2584TIP3   OH229242   0.434   4.860   1.285  0.4840 -0.2969 -0.2156
 2584TIP3    H129243   0.528   4.876   1.296  0.5358  0.7846 -1.8477
 2584TIP3    H229244   0.429   4.793   1.216  0.0755  1.1119 -1.6185
 2585TIP3   OH229245   4.419   5.608   6.308  0.0148 -0.2220  0.7900
 2585TIP3    H129246   4.451   5.553   6.380  2.1420  2.0894  1.7596
 2585TIP3    H229247   4.463   5.692   6.321 -2.9008  1.6850 -0.7290
 2586TIP3   OH229248   1.541   0.992  12.474 -0.0062  0.3039 -0.4629
 2586TIP3    H129249   1.450   0.965  12.464 -0.2669  1.8039 -2.9847
 2586TIP3    H229250   1.592   0.922  12.433 -0.2103  0.5469 -1.1450
 2587TIP3   OH229251   4.497   2.899  14.945  0.3620  0.9180  0.2825
 2587TIP3    H129252   4.542   2.983  14.951  1.7842  0.4117 -1.9376
 2587TIP3    H229253   4.536   2.856  14.868 -0.3060 -1.7791  1.3208
 2588TIP3   OH229254   5.259   4.730  11.708  0.4768  0.5747  0.4204
 2588TIP3    H129255   5.164   4.727  11.719  0.4310  0.0259 -0.0933
 2588TIP3    H229256   5.289   4.787  11.779 -0.2757  1.1440  0.3023
 2589TIP3   OH229257   5.694   3.222   0.956 -0.1118 -0.0388 -0.0294
 2589TIP3    H129258   5.766   3.162   0.974  0.2205 -0.8887 -3.4270
 2589TIP3    H229259   5.616   3.167   0.958 -0.3149  0.2592  0.6443
 2590TIP3   OH229260   5.461   0.010   5.152 -0.3510 -0.1494 -0.0258
 2590TIP3    H129261   5.446  -0.056   5.220  1.9775 -0.8557 -0.1316
 2590TIP3    H229262   5.388  -0.002   5.091 -0.5222 -1.9747  0.4731
 2591TIP3   OH229263   3.199   5.772   0.383 -0.0244  1.0071 -0.0595
 2591TIP3    H129264   3.229   5.743   0.469 -0.3379  0.0482 -0.2586
 2591TIP3    H229265   3.210   5.696   0.326 -0.6330  1.3575 -0.6671
 2592TIP3   OH229266   2.010   5.116   4.310  0.0611 -0.4111  0.4594
 2592TIP3    H129267   1.944   5.095   4.244  0.7565 -1.2971  0.0379
 2592TIP3    H229268   2.006   5.042   4.372  2.1778 -1.6358 -0.7668
 2593TIP3   OH229269   1.583   6.147   3.402 -0.1810  0.1938  0.0304
 2593TIP3    H129270   1.509   6.182   3.450  0.2181  2.1982 -0.7122
 2593TIP3    H229271   1.570   6.052   3.402 -2.9797  0.5009 -0.4515
 2594TIP3   OH229272   4.855   1.617   4.632 -0.1924 -0.2860 -0.1011
 2594TIP3    H129273   4.905   1.658   4.703  2.1228  0.5437 -2.0640
 2594TIP3    H229274   4.835   1.529   4.664  0.2401  0.2534  1.7865
 2595TIP3   OH229275   5.297   2.135  13.298 -0.5122 -0.1004 -0.2240
 2595TIP3    H129276   5.274   2.228  13.293  1.0673  0.2709 -1.2282
 2595TIP3    H229277   5.282   2.102  13.209  0.6112 -0.3693 -0.3300
 2596TIP3   OH229278   3.945   4.212   2.368 -0.6982 -0.1402  0.2759
 2596TIP3    H129279   3.931   4.256   2.284 -0.7720 -0.8423 -0.0884
 2596TIP3    H229280   4.036   4.233   2.391 -0.8347  0.4744  0.2793
 2597TIP3   OH229281   6.142   2.504   4.957  0.4876  0.7370 -0.0895
 2597TIP3    H129282   6.115   2.595   4.962  0.1830  0.6338  0.2072
 2597TIP3    H229283   6.238   2.507   4.954  0.4745  1.1967 -3.0071
 2598TIP3   OH229284   1.084   1.608  12.162  0.3012  0.5332 -0.3114
 2598TIP3    H129285   1.086   1.532  12.104 -2.6188 -0.7383  1.0371
 2598TIP3    H229286   1.156   1.593  12.223  0.3197 -0.6856 -0.6000
 2599TIP3   OH229287   5.753   0.718  15.807 -0.0256 -0.1627  0.3363
 2599TIP3    H129288   5.794   0.778  15.870  0.7112  0.3939 -0.6481
 2599TIP3    H229289   5.797   0.737  15.724 -1.4728 -0.3845 -0.5028
 2600TIP3   OH229290   1.091   2.227  17.038 -0.0049  0.0359  0.6504
 2600TIP3    H129291   1.004   2.196  17.059 -0.7572  0.8026 -1.0871
 2600TIP3    H229292   1.101   2.209  16.944  0.7282  2.1541  0.2705
 2601TIP3   OH229293   0.551   6.280   4.630  0.7958  0.2712 -0.5001
 2601TIP3    H129294   0.501   6.237   4.699  0.5993  1.0982 -0.1075
 2601TIP3    H229295   0.484   6.321   4.574  0.8773 -1.4670 -1.9498
 2602TIP3   OH229296   0.169   0.556   0.142 -0.7185  0.4873  0.4099
 2602TIP3    H129297   0.264   0.566   0.148 -0.0640 -1.6196 -3.3394
 2602TIP3    H229298   0.137   0.643   0.122  0.9187  0.7170 -1.5510
 2603TIP3   OH229299   5.957   2.460  11.258 -0.4508 -0.3220 -0.1422
 2603TIP3    H129300   5.875   2.473  11.211  0.6265  0.7848 -1.8322
 2603TIP3    H229301   5.943   2.382  11.311 -2.3369 -0.5720 -0.9486
 2604TIP3   OH229302   0.934   3.509  13.708  0.1570  0.3959 -0.1842
 2604TIP3    H129303   0.995   3.581  13.695 -0.3914  1.1226  1.0883
 2604TIP3    H229304   0.850   3.551  13.726  0.1487 -0.4678  2.2097
 2605TIP3   OH229305   1.645   4.099   3.473 -0.5685 -0.0952 -0.2151
 2605TIP3    H129306   1.702   4.038   3.519  1.5271  0.6669 -1.6517
 2605TIP3    H229307   1.568   4.047   3.450  0.2028 -1.5899  0.4329
 2606TIP3   OH229308   2.061   1.049  14.287 -0.5180 -0.1783  0.2482
 2606TIP3    H129309   2.154   1.040  14.311 -0.7719 -2.2242  0.6604
 2606TIP3    H229310   2.038   1.138  14.314  2.1822  1.7965 -3.0755
 2607TIP3   OH229311   1.261   0.886   4.201 -0.0738 -0.3464 -0.0951
 2607TIP3    H129312   1.199   0.813   4.204  0.3211 -0.7411 -1.0568
 2607TIP3    H229313   1.331   0.855   4.144 -1.5084  2.0056 -3.4632
 2608TIP3   OH229314   3.543   3.563   3.348  0.5386 -0.3716 -0.1600
 2608TIP3    H129315   3.607   3.602   3.408 -0.3093  1.1721 -0.2200
 2608TIP3    H229316   3.549   3.617   3.269  0.2818 -1.2025 -0.7533
 2609TIP3   OH229317   2.335   4.014   5.927  0.9299  0.2241  0.3611
 2609TIP3    H129318   2.334   3.944   5.862  0.1633  0.1360  0.4680
 2609TIP3    H229319   2.428   4.032   5.940  1.1198 -0.4353 -0.0284
 2610TIP3   OH229320   5.673   2.524  13.105 -0.1930  1.0058 -0.6850
 2610TIP3    H129321   5.646   2.580  13.178 -0.6722 -1.8102  1.4640
 2610TIP3    H229322   5.591   2.506  13.057 -0.3199  0.8320 -0.4040
 2611TIP3   OH229323   2.692   5.249  14.582 -0.8270 -0.2885  0.0413
 2611TIP3    H129324   2.742   5.258  14.663 -1.7429 -0.5637  0.6397
 2611TIP3    H229325   2.638   5.171  14.594  0.0014 -1.1331 -1.3666
 2612TIP3   OH229326   5.319   5.445   4.698  0.2909  0.1490 -0.1916
 2612TIP3    H129327   5.394   5.392   4.672 -0.4363 -1.1569  0.2848
 2612TIP3    H229328   5.319   5.441   4.794 -0.5729 -0.1540 -0.1953
 2613TIP3   OH229329   6.666   3.641  13.510 -0.2733 -0.1653 -0.3278
 2613TIP3    H129330   6.690   3.708  13.446 -2.2928 -0.1837 -1.1947
 2613TIP3    H229331   6.646   3.564  13.457 -2.4291 -0.0438  0.2188
 2614TIP3   OH229332   5.727   0.780  14.500 -0.4540 -0.2393  0.0098
 2614TIP3    H129333   5.766   0.748  14.418 -0.9363  0.0090 -0.3231
 2614TIP3    H229334   5.696   0.868  14.479 -0.7771 -0.2594  0.3969
 2615TIP3   OH229335   4.212   4.299   2.451 -0.5067 -0.4257  0.0126
 2615TIP3    H129336   4.241   4.299   2.360  1.3872  0.8746  0.5503
 2615TIP3    H229337   4.189   4.391   2.469 -1.5652 -0.8003  0.6478
 2616TIP3   OH229338   1.205   1.049   5.110 -0.3959 -0.4123  0.1931
 2616TIP3    H129339   1.242   1.054   5.022  0.5407  0.8692  0.6226
 2616TIP3    H229340   1.231   0.963   5.143  2.6174  0.5208  0.5854
 2617TIP3   OH229341   3.452   0.547  15.929 -0.3846 -0.8671  0.3557
 2617TIP3    H129342   3.473   0.454  15.931  0.0092 -0.7741  1.2700
 2617TIP3    H229343   3.398   0.561  16.007  3.0878  0.4199  2.7856
 2618TIP3   OH229344   4.319   5.821   2.423 -0.4433  0.2839 -0.4395
 2618TIP3    H129345   4.256   5.893   2.429  0.1110  0.6910  0.7345
 2618TIP3    H229346   4.405   5.863   2.431  0.0372 -0.1957 -2.6834
 2619TIP3   OH229347   0.985   6.637   2.585  0.0226  0.3086 -0.2958
 2619TIP3    H129348   0.898   6.598   2.578 -0.1460  0.8976 -1.7782
 2619TIP3    H229349   0.977   6.723   2.544  0.3819  1.9931  2.8588
 2620TIP3   OH229350   5.996   0.604   0.837 -0.0437  0.4066 -0.0383
 2620TIP3    H129351   5.989   0.519   0.793  0.5129  0.5970 -0.5160
 2620TIP3    H229352   6.083   0.636   0.812  0.1055  0.7215  0.8502
 2621TIP3   OH229353   1.217   5.494  14.305  0.6095  0.7231  0.2901
 2621TIP3    H129354   1.216   5.441  14.384  1.3366  0.7195  0.3046
 2621TIP3    H229355   1.289   5.458  14.253 -0.3227  0.2308 -0.7200
 2622TIP3   OH229356   0.425   5.521  15.439  0.4590  0.3465 -0.2601
 2622TIP3    H129357   0.412   5.575  15.517 -0.2711  0.4228 -0.4245
 2622TIP3    H229358   0.445   5.434  15.473 -0.1617  0.3050  0.0273
 2623TIP3   OH229359   6.090   5.189  13.475  0.0765 -0.0699  0.1378
 2623TIP3    H129360   6.123   5.278  13.493  0.0309 -0.2904  1.4158
 2623TIP3    H229361   6.109   5.140  13.555 -0.9295 -0.9195 -0.1215
 2624TIP3   OH229362   2.539   4.076   3.929 -0.0308  0.0000 -1.1681
 2624TIP3    H129363   2.563   4.065   4.021  0.2711 -0.6523 -1.3227
 2624TIP3    H229364   2.603   4.139   3.895 -0.8298  1.1138 -0.6608
 2625TIP3   OH229365   1.249   4.314  15.765 -0.0711 -0.2193 -0.1520
 2625TIP3    H129366   1.156   4.312  15.740 -0.5104 -2.9729  1.3343
 2625TIP3    H229367   1.289   4.244  15.713  0.6282 -0.7119  1.0316
 2626TIP3   OH229368   4.174   2.653  12.860  0.3831 -0.1825  0.1778
 2626TIP3    H129369   4.199   2.740  12.829 -0.3243  0.1990  0.6421
 2626TIP3    H229370   4.236   2.633  12.930  0.2242  0.1874  0.4311
 2627TIP3   OH229371   4.365   4.101   2.567  0.4291 -0.3607  0.3580
 2627TIP3    H129372   4.313   4.175   2.535  1.2726 -0.1349 -0.5425
 2627TIP3    H229373   4.355   4.104   2.662 -2.7590 -1.5042  0.1739
 2628TIP3   OH229374   2.326   2.684   5.219  0.3735 -0.7221 -0.0915
 2628TIP3    H129375   2.283   2.739   5.153  0.9479 -1.1172 -0.8129
 2628TIP3    H229376   2.386   2.744   5.264 -0.1505 -0.4102  0.1888
 2629TIP3   OH229377   4.079   3.565   5.652  0.1784  0.5994 -0.3423
 2629TIP3    H129378   4.156   3.515   5.677  0.7329  1.1336 -0.9321
 2629TIP3    H229379   4.113   3.638   5.600 -0.7146  0.8932 -0.5465
 2630TIP3   OH229380   4.349   5.033   3.810 -0.0620  0.0400  0.0099
 2630TIP3    H129381   4.310   5.119   3.828  0.4953  0.0635  1.1993
 2630TIP3    H229382   4.431   5.033   3.859  0.4022 -0.8254 -0.7314
 2631TIP3   OH229383   2.641   2.709   0.773 -0.2976  0.5340  0.1291
 2631TIP3    H129384   2.596   2.759   0.841  1.0656  0.5195  1.0590
 2631TIP3    H229385   2.726   2.687   0.810  0.0939 -0.3468 -1.2046
 2632TIP3   OH229386   1.484   1.749  13.275 -0.0414 -0.0451  0.1118
 2632TIP3    H129387   1.393   1.779  13.275 -1.5164 -3.9183 -0.4704
 2632TIP3    H229388   1.485   1.676  13.214  3.6372  0.0645 -0.1958
 2633TIP3   OH229389   5.251   0.724   1.527 -0.4063  0.2950 -0.6845
 2633TIP3    H129390   5.247   0.804   1.579 -1.2776  1.4788 -2.4628
 2633TIP3    H229391   5.344   0.702   1.522 -0.3503 -0.4910  2.1922
 2634TIP3   OH229392   5.219   3.494   2.312 -0.1668  0.4630  0.4342
 2634TIP3    H129393   5.176   3.415   2.346 -0.4010  0.6976  0.6849
 2634TIP3    H229394   5.163   3.521   2.239  0.9789 -0.7254 -0.9478
 2635TIP3   OH229395   1.732   3.929   4.252 -0.0839 -0.1144 -0.0723
 2635TIP3    H129396   1.680   3.945   4.173 -3.1612  0.8592  1.9438
 2635TIP3    H229397   1.762   3.838   4.244  0.4575  0.2157 -2.6731
 2636TIP3   OH229398   3.144   6.176  13.501  0.0605 -0.2906 -0.5140
 2636TIP3    H129399   3.177   6.202  13.587 -1.3987  1.2554 -0.3640
 2636TIP3    H229400   3.135   6.259  13.453  1.0953 -1.1371 -2.2776
 2637TIP3   OH229401   0.164   2.856   2.147  0.1731 -0.1418 -0.2205
 2637TIP3    H129402   0.239   2.914   2.154  0.3919 -0.1569 -2.0562
 2637TIP3    H229403   0.094   2.900   2.196  1.4357 -0.3334  1.8714
 2638TIP3   OH229404   4.016   2.034  13.842 -0.1333 -0.7636 -0.0370
 2638TIP3    H129405   4.105   2.064  13.860  0.0775 -0.9433 -0.7518
 2638TIP3    H229406   3.961   2.086  13.901  0.2886  0.5871 -0.7900
 2639TIP3   OH229407   0.029   5.025   4.192  0.5890 -0.1823 -0.4671
 2639TIP3    H129408   0.035   4.930   4.181 -0.2149 -0.6578  2.3308
 2639TIP3    H229409  -0.065   5.044   4.186  0.6908  0.3467 -0.4533
 2640TIP3   OH229410   1.944   6.641  14.115  0.2346 -0.0254 -0.0664
 2640TIP3    H129411   2.034   6.608  14.121  0.6331  0.6848 -1.4755
 2640TIP3    H229412   1.890   6.573  14.154  1.4693  0.0246  1.8262
 2641TIP3   OH229413   0.657   0.858   5.380  0.0455  0.2002 -0.6584
 2641TIP3    H129414   0.713   0.863   5.303 -0.2491 -0.7508 -0.9432
 2641TIP3    H229415   0.638   0.765   5.390 -1.5083  0.4986 -0.5841
 2642TIP3   OH229416   5.947   5.716   6.587  0.2383  0.2157  0.5022
 2642TIP3    H129417   6.034   5.685   6.610 -0.4396 -2.0430  0.3656
 2642TIP3    H229418   5.907   5.740   6.671 -0.3156 -2.6271  1.1637
 2643TIP3   OH229419   5.507   4.961  16.020 -0.5526  0.6405  1.3543
 2643TIP3    H129420   5.442   4.986  16.086 -0.9085 -0.1643  1.3140
 2643TIP3    H229421   5.491   5.021  15.947  0.5461  2.2753  2.3681
 2644TIP3   OH229422   0.403   4.323  11.835 -0.4232 -0.0321 -0.2451
 2644TIP3    H129423   0.452   4.396  11.873  0.8877  0.1909 -2.2342
 2644TIP3    H229424   0.423   4.326  11.742 -3.2996 -0.7017 -0.9916
 2645TIP3   OH229425   1.106   3.606  14.793  0.1239  0.4113 -0.4541
 2645TIP3    H129426   1.154   3.560  14.725  0.0078 -0.7798  0.2355
 2645TIP3    H229427   1.014   3.601  14.767  0.0867  0.0196 -0.2531
 2646TIP3   OH229428   6.666   2.812  15.587  0.1200 -0.4957  0.0306
 2646TIP3    H129429   6.761   2.804  15.580  0.3610  0.3963  1.7469
 2646TIP3    H229430   6.652   2.860  15.669 -1.7106  1.2344 -1.1888
 2647TIP3   OH229431   2.115   5.512   6.485  0.3500 -0.1380  0.0800
 2647TIP3    H129432   2.165   5.540   6.561  0.8715 -2.0499  0.4887
 2647TIP3    H229433   2.179   5.508   6.414  0.4551 -1.1010  0.2287
 2648TIP3   OH229434   1.819   5.734  10.384  0.2324 -0.4712  0.2439
 2648TIP3    H129435   1.837   5.816  10.338 -1.4760 -0.3606 -0.2932
 2648TIP3    H229436   1.796   5.761  10.473 -1.1318 -0.2476 -0.1437
 2649TIP3   OH229437   5.284   4.885  15.101  0.5031  0.5013 -0.0175
 2649TIP3    H129438   5.341   4.855  15.029 -2.6603 -0.3108 -2.4177
 2649TIP3    H229439   5.233   4.808  15.125 -1.0292  1.6511  0.5540
 2650TIP3   OH229440   6.745   3.523   3.028  0.0803  0.0397  0.3020
 2650TIP3    H129441   6.678   3.561   2.970  0.5476 -1.1643 -1.1199
 2650TIP3    H229442   6.700   3.450   3.071  0.3303 -0.5025 -0.3299
 2651TIP3   OH229443   0.252   5.872  16.071  0.0118 -0.4173 -0.3330
 2651TIP3    H129444   0.258   5.835  16.159  0.0318 -1.8779 -0.9114
 2651TIP3    H229445   0.336   5.851  16.031  0.8375  2.0929 -0.0540
 2652TIP3   OH229446   4.633   5.437   4.224  0.2077 -0.4109 -0.2080
 2652TIP3    H129447   4.670   5.514   4.181 -0.2132 -0.5127 -0.7648
 2652TIP3    H229448   4.682   5.429   4.306  0.0192  0.6583  0.0236
 2653TIP3   OH229449   4.433   1.799   3.499 -0.0821 -0.0354  0.7984
 2653TIP3    H129450   4.370   1.760   3.559 -1.0967 -0.7633 -0.6849
 2653TIP3    H229451   4.497   1.730   3.483 -1.0908 -0.6480 -0.7208
 2654TIP3   OH229452   2.894   1.139   2.177 -0.0387 -0.3244 -1.1316
 2654TIP3    H129453   2.868   1.230   2.189  0.9546  0.0667 -1.8682
 2654TIP3    H229454   2.874   1.120   2.085  0.5662 -0.5754 -1.2160
 2655TIP3   OH229455   6.712   2.734  14.110 -0.5452 -0.7201 -0.3352
 2655TIP3    H129456   6.767   2.740  14.032  0.1853 -0.1471  0.2040
 2655TIP3    H229457   6.628   2.770  14.084  0.2590  1.2767 -0.3628
 2656TIP3   OH229458   1.438   3.295   2.634 -0.6603  0.1490  0.2760
 2656TIP3    H129459   1.352   3.335   2.627 -1.3637 -1.2721  0.5936
 2656TIP3    H229460   1.444   3.265   2.725 -0.7865 -1.7850 -0.3043
 2657TIP3   OH229461   5.905   1.385  15.901  0.2572  0.0972 -0.6370
 2657TIP3    H129462   5.969   1.455  15.893  0.0131  0.4719  0.4666
 2657TIP3    H229463   5.879   1.387  15.994  0.9693 -2.0620 -0.3382
 2658TIP3   OH229464   2.338   5.611   1.447  0.2507 -0.3625  0.5413
 2658TIP3    H129465   2.263   5.651   1.403  1.1326 -1.4046 -2.0716
 2658TIP3    H229466   2.362   5.674   1.515 -0.6688  1.8159 -1.0384
 2659TIP3   OH229467   4.551   0.661   5.481 -0.2019  0.3275  0.1651
 2659TIP3    H129468   4.551   0.739   5.537 -0.1990  0.4451  0.0048
 2659TIP3    H229469   4.469   0.667   5.432  0.4531  1.0213 -0.9186
 2660TIP3   OH229470   5.439   5.900   2.502  0.1212 -0.0852 -0.2833
 2660TIP3    H129471   5.368   5.907   2.438  0.4282  2.0007 -0.4638
 2660TIP3    H229472   5.449   5.806   2.516 -2.2195 -0.4719 -0.7352
 2661TIP3   OH229473   2.681   5.788  13.261 -0.0308 -0.6469  0.4847
 2661TIP3    H129474   2.641   5.874  13.276  0.8954 -0.1213  0.0632
 2661TIP3    H229475   2.720   5.764  13.345 -2.8784 -2.1057  1.4984
 2662TIP3   OH229476   3.877   0.267   5.047  0.1333 -0.0702 -0.4760
 2662TIP3    H129477   3.897   0.350   5.090 -0.0608 -0.9662  1.4380
 2662TIP3    H229478   3.839   0.212   5.116  1.1888 -2.1012 -1.4092
 2663TIP3   OH229479   2.635   3.740   4.969 -0.1141 -0.7969  0.0392
 2663TIP3    H129480   2.542   3.756   4.984 -0.5557 -0.6966 -2.4112
 2663TIP3    H229481   2.646   3.647   4.989 -0.6130 -0.7071  0.7997
 2664TIP3   OH229482   2.206   4.088   5.255 -0.1573  0.0250  0.3821
 2664TIP3    H129483   2.143   4.032   5.209 -0.9051  0.6174  0.6476
 2664TIP3    H229484   2.232   4.038   5.332 -1.4381  0.3412  1.0548
 2665TIP3   OH229485   0.512   5.180  16.910  0.1041  0.4711  0.3545
 2665TIP3    H129486   0.553   5.197  16.995 -1.4623  0.1431  1.2098
 2665TIP3    H229487   0.429   5.137  16.932  0.2311 -0.7448 -1.3971
 2666TIP3   OH229488   6.334   1.624   4.756 -0.3235  0.0866  0.2782
 2666TIP3    H129489   6.281   1.568   4.812  1.8358 -1.8523  0.5413
 2666TIP3    H229490   6.361   1.568   4.684 -0.0151  1.5031 -0.7552
 2667TIP3   OH229491   5.559   5.696   3.275 -0.3680 -0.0446 -0.4393
 2667TIP3    H129492   5.498   5.628   3.305  2.0681 -2.6609 -1.0232
 2667TIP3    H229493   5.645   5.665   3.302  1.0311  1.9983 -2.2346
 2668TIP3   OH229494   6.031   2.718  10.573  0.2415 -0.0670 -0.0808
 2668TIP3    H129495   6.077   2.664  10.509  0.1153 -0.7482  0.3950
 2668TIP3    H229496   5.969   2.659  10.615  0.8207  0.1783  1.1672
 2669TIP3   OH229497   5.420   4.590  15.459  0.0322  0.1871  0.1149
 2669TIP3    H129498   5.363   4.650  15.507  1.0166  0.4429  0.9949
 2669TIP3    H229499   5.408   4.505  15.502  0.3567  0.2561  0.3459
 2670TIP3   OH229500   0.581   5.311   4.451 -0.1918 -0.0509 -0.2389
 2670TIP3    H129501   0.643   5.384   4.457  0.0283 -0.3468  2.2632
 2670TIP3    H229502   0.496   5.354   4.443 -0.0963  0.5671  1.5437
 2671TIP3   OH229503   1.972   3.007  15.323  0.2314  0.6342  0.3086
 2671TIP3    H129504   1.918   2.968  15.391  1.5144  0.1083  1.0582
 2671TIP3    H229505   1.980   2.938  15.256 -2.9867  1.9277 -1.6141
 2672TIP3   OH229506   3.206   0.719   6.474 -0.2206 -0.3717  0.3728
 2672TIP3    H129507   3.121   0.733   6.434 -0.1967 -0.8237  0.1671
 2672TIP3    H229508   3.191   0.653   6.542 -0.4914  1.1637  1.8865
 2673TIP3   OH229509   2.814   0.900  17.414 -0.6054 -0.0022  0.2904
 2673TIP3    H129510   2.865   0.819  17.417 -0.3888  0.1288  0.2010
 2673TIP3    H229511   2.878   0.968  17.436 -1.0333  0.0283  1.5008
 2674TIP3   OH229512   1.453   5.116   3.295 -0.0707 -0.2144 -1.0677
 2674TIP3    H129513   1.482   5.046   3.236 -0.6735  0.1526 -1.8136
 2674TIP3    H229514   1.368   5.085   3.327  0.9629 -1.1948  0.9505
 2675TIP3   OH229515   4.735   1.377  11.966  0.4504 -0.0426  0.0878
 2675TIP3    H129516   4.681   1.349  11.891  0.0317 -2.0383  1.0490
 2675TIP3    H229517   4.820   1.399  11.928 -0.1685  0.3057 -1.1286
 2676TIP3   OH229518   5.854   2.289   4.363 -0.3234 -0.3881 -0.1292
 2676TIP3    H129519   5.843   2.255   4.452 -0.7996 -0.9615 -0.4022
 2676TIP3    H229520   5.782   2.351   4.353 -0.6094 -0.7498 -0.3156
 2677TIP3   OH229521   3.894   4.789   0.506  0.3069  0.4496  0.4518
 2677TIP3    H129522   3.947   4.741   0.569 -0.8064 -0.2671  0.8599
 2677TIP3    H229523   3.953   4.856   0.471  1.9907 -1.3797 -0.3539
 2678TIP3   OH229524   3.730   2.714   3.008 -0.5137 -0.0171  0.3330
 2678TIP3    H129525   3.727   2.618   3.010 -0.7096 -0.0364 -0.5495
 2678TIP3    H229526   3.792   2.737   3.077  0.3261 -0.8255 -0.1236
 2679TIP3   OH229527   0.751   4.967   3.114 -0.0495  0.2101 -0.2091
 2679TIP3    H129528   0.773   4.958   3.021  0.9884  0.4679 -0.0027
 2679TIP3    H229529   0.659   4.943   3.119 -0.4872  1.4831 -1.5126
 2680TIP3   OH229530   5.307   6.715   3.763  0.2429 -0.1586  0.6173
 2680TIP3    H129531   5.288   6.660   3.839  0.0698 -2.5328 -1.0367
 2680TIP3    H229532   5.392   6.686   3.732 -1.4234 -2.3507 -2.4860
 2681TIP3   OH229533   2.660   0.579   1.297  0.3054  0.0872  0.1277
 2681TIP3    H129534   2.730   0.531   1.343  0.8218  1.5329  0.9193
 2681TIP3    H229535   2.666   0.549   1.207  1.8266  0.0223  0.2181
 2682TIP3   OH229536   6.692   4.775  13.100 -0.0656  0.6855  0.4873
 2682TIP3    H129537   6.700   4.736  13.013  3.4924 -0.1656  1.0667
 2682TIP3    H229538   6.618   4.728  13.140 -0.6974 -0.0835 -1.4401
 2683TIP3   OH229539   2.872   2.419  12.666 -0.4285  0.1408  0.0670
 2683TIP3    H129540   2.961   2.383  12.656 -0.1766  0.6102  0.5562
 2683TIP3    H229541   2.815   2.342  12.665  0.0481 -0.2300  0.4708
 2684TIP3   OH229542   2.184   0.942   3.693 -0.1834 -0.6206 -0.4446
 2684TIP3    H129543   2.227   1.004   3.633 -1.3576 -1.3594 -2.1371
 2684TIP3    H229544   2.256   0.896   3.735  0.7158 -0.7213 -2.0120
 2685TIP3   OH229545   1.687   0.687  13.408 -0.6559  0.2429 -0.1209
 2685TIP3    H129546   1.646   0.612  13.450 -1.3481  2.2174  3.0175
 2685TIP3    H229547   1.779   0.660  13.396 -1.0114 -1.2851  0.3478
 2686TIP3   OH229548   5.756   5.212  14.280 -0.1537 -0.1265 -0.2370
 2686TIP3    H129549   5.790   5.209  14.190 -2.9160 -3.0210 -1.3899
 2686TIP3    H229550   5.688   5.279  14.278  0.8973  0.9862  0.2233
 2687TIP3   OH229551   3.571   5.047   5.958  0.0870 -0.7555 -0.0992
 2687TIP3    H129552   3.537   4.988   6.025  0.2576  0.4388  1.0774
 2687TIP3    H229553   3.664   5.056   5.979  0.2847 -0.8729 -0.8956
 2688TIP3   OH229554   3.899   0.906  17.289  0.0847 -0.3016  0.1215
 2688TIP3    H129555   3.945   0.871  17.213  0.8474  1.1238 -0.1070
 2688TIP3    H229556   3.807   0.884  17.273  0.2122  0.0522 -1.2744
 2689TIP3   OH229557   5.472   0.866   2.522  0.5785  0.1957 -0.2737
 2689TIP3    H129558   5.508   0.944   2.563  1.0749 -0.7825  1.2294
 2689TIP3    H229559   5.377   0.874   2.534  0.5734  0.8468 -0.6877
 2690TIP3   OH229560   2.449   1.613  15.305  0.6500  0.0965 -0.0090
 2690TIP3    H129561   2.385   1.671  15.345  1.3842  1.7608 -1.1537
 2690TIP3    H229562   2.530   1.630  15.353  1.3282  1.4762 -1.5811
 2691TIP3   OH229563   0.085   3.426  10.891 -0.6656 -0.1675  0.0194
 2691TIP3    H129564   0.037   3.378  10.958 -1.2861  1.2622  0.6289
 2691TIP3    H229565   0.124   3.500  10.937  0.9792 -0.4985 -0.7425
 2692TIP3   OH229566   2.750   4.408  14.957 -0.2808  0.2293  0.1271
 2692TIP3    H129567   2.764   4.501  14.943 -0.0732  0.3394  1.0245
 2692TIP3    H229568   2.725   4.374  14.871  0.3410  0.9810 -0.3582
 2693TIP3   OH229569   0.825   2.663  17.335 -0.6883 -0.3034 -0.0266
 2693TIP3    H129570   0.846   2.692  17.424  0.1419  0.7479 -0.5433
 2693TIP3    H229571   0.909   2.639  17.297 -1.0381 -0.7532 -0.5411
 2694TIP3   OH229572   1.713   0.038  14.740 -0.2718  0.7454  0.2179
 2694TIP3    H129573   1.655   0.075  14.807 -0.4180  1.9504 -0.5623
 2694TIP3    H229574   1.797   0.083  14.753 -0.3156  1.0203 -0.4429
 2695TIP3   OH229575   0.019   1.638   2.838 -0.3569  0.0368 -0.4574
 2695TIP3    H129576   0.005   1.683   2.754 -0.9966 -0.0349 -0.3895
 2695TIP3    H229577  -0.047   1.569   2.840  1.0465 -1.3845 -0.8639
 2696TIP3   OH229578   0.443   4.399   3.203 -0.5275 -0.3551 -0.4666
 2696TIP3    H129579   0.405   4.359   3.281 -0.2947 -0.1882 -0.2641
 2696TIP3    H229580   0.492   4.329   3.160 -0.1258 -0.2915 -0.1172
 2697TIP3   OH229581   2.565   5.101   4.200  0.2540 -0.3364  0.5678
 2697TIP3    H129582   2.532   5.104   4.290 -1.0913 -0.7983  0.1297
 2697TIP3    H229583   2.488   5.078   4.148  0.6604  1.3632 -0.8815
 2698TIP3   OH229584   5.160   6.682   5.241  0.4962 -0.1649  0.2347
 2698TIP3    H129585   5.134   6.590   5.249 -0.9715  0.4032  3.0886
 2698TIP3    H229586   5.188   6.707   5.329 -0.3236  2.4558 -0.1891
 2699TIP3   OH229587   6.072   0.234   3.593  0.9005 -0.0771 -0.0036
 2699TIP3    H129588   6.124   0.182   3.655  0.4545 -2.1595 -1.2723
 2699TIP3    H229589   5.981   0.217   3.619  0.7585  0.4568 -0.1509
 2700TIP3   OH229590   5.108   1.287  15.569 -0.4556 -0.4583  0.0024
 2700TIP3    H129591   5.073   1.200  15.584 -0.4598 -0.4688 -0.0636
 2700TIP3    H229592   5.156   1.279  15.486  0.7041 -0.7427  0.6836
 2701TIP3   OH229593   3.949   0.584  14.838 -0.1167 -0.0801 -0.0305
 2701TIP3    H129594   3.940   0.598  14.932  2.1892 -0.2406  0.2698
 2701TIP3    H229595   4.029   0.532  14.829 -0.1563  0.1413 -2.0875
 2702TIP3   OH229596   2.167   3.298   5.901 -0.3139 -0.2687 -0.1521
 2702TIP3    H129597   2.222   3.315   5.978 -0.5065  0.4691 -0.1667
 2702TIP3    H229598   2.077   3.300   5.935 -0.4431  0.8386 -0.5148
 2703TIP3   OH229599   2.817   6.348   4.109 -1.1141 -0.8204 -0.9843
 2703TIP3    H129600   2.797   6.298   4.030  1.7585 -1.0069 -1.7275
 2703TIP3    H229601   2.817   6.283   4.179 -2.3794 -0.8912 -1.0282
 2704TIP3   OH229602   5.216   4.286  14.529 -0.1897 -0.3825 -0.2127
 2704TIP3    H129603   5.136   4.316  14.573  0.3749  0.6292  0.1718
 2704TIP3    H229604   5.231   4.198  14.563  0.5426  0.5715  2.1263
 2705TIP3   OH229605   2.599   4.822   0.319  0.0732 -0.2482 -0.3081
 2705TIP3    H129606   2.548   4.749   0.353 -1.3228  0.6908 -0.3028
 2705TIP3    H229607   2.685   4.814   0.361 -1.0705 -0.0473  2.2038
 2706TIP3   OH229608   1.886   4.347  12.840 -0.2580  0.2859  0.5726
 2706TIP3    H129609   1.893   4.378  12.750 -0.7013 -1.4431 -0.0782
 2706TIP3    H229610   1.793   4.331  12.853  0.1469 -3.2864 -0.0515
 2707TIP3   OH229611   0.289   4.220  15.079 -0.2083  0.4018 -0.0115
 2707TIP3    H129612   0.261   4.146  15.133  1.1842 -0.7522 -0.7931
 2707TIP3    H229613   0.385   4.218  15.083 -0.1307  1.9581 -0.3452
 2708TIP3   OH229614   0.238   4.497  15.870  0.0711 -0.2411  0.2250
 2708TIP3    H129615   0.204   4.582  15.897  2.4455  1.2262 -1.0927
 2708TIP3    H229616   0.194   4.479  15.787 -0.1619 -0.1327  0.3230
 2709TIP3   OH229617   0.919   3.637  14.234 -0.2088 -0.0484  0.1813
 2709TIP3    H129618   0.979   3.572  14.199 -2.4269 -2.0318 -0.2343
 2709TIP3    H229619   0.970   3.718  14.238  2.0743 -1.3097 -1.2943
 2710TIP3   OH229620   4.460   2.060  12.448 -0.2594  0.1253  0.3266
 2710TIP3    H129621   4.494   2.094  12.365  0.6294  0.6242  0.8745
 2710TIP3    H229622   4.525   1.994  12.475 -0.5163 -0.0034  0.6442
 2711TIP3   OH229623   6.758   4.361   0.905 -0.2373  0.6567  0.4684
 2711TIP3    H129624   6.789   4.441   0.948 -1.7468  1.5549 -0.0248
 2711TIP3    H229625   6.665   4.377   0.890 -0.0767 -0.2434 -1.7739
 2712TIP3   OH229626   2.302   5.745  14.857  0.0403 -0.3176  0.3005
 2712TIP3    H129627   2.227   5.789  14.816 -0.7966  1.0498  3.0478
 2712TIP3    H229628   2.326   5.677  14.795  0.1943  2.7386 -3.3774
 2713TIP3   OH229629   1.101   6.637   1.008 -0.5812  0.3038 -0.7273
 2713TIP3    H129630   1.195   6.643   0.992 -0.3002 -1.0451  0.2536
 2713TIP3    H229631   1.069   6.726   0.994  0.6966  0.6248 -1.8370
 2714TIP3   OH229632   6.709   2.033   0.939  0.5484  0.2557 -0.0768
 2714TIP3    H129633   6.753   2.069   0.862  3.1741 -2.3796  0.0472
 2714TIP3    H229634   6.635   2.093   0.953  0.5712  1.4930 -3.9159
 2715TIP3   OH229635   1.005   6.585  13.761  0.4543  0.0003 -0.3365
 2715TIP3    H129636   1.009   6.503  13.810  0.2317 -1.0256 -1.9903
 2715TIP3    H229637   1.095   6.599  13.731  0.1072 -0.8110 -1.8634
 2716TIP3   OH229638   5.469   6.217  17.102  0.0802  0.3147  0.2178
 2716TIP3    H129639   5.507   6.189  17.185 -0.0477  1.7395  0.7955
 2716TIP3    H229640   5.535   6.194  17.037 -0.8588 -3.1390  0.2982
 2717TIP3   OH229641   4.169   1.498   5.066 -0.4408  0.3918 -0.3020
 2717TIP3    H129642   4.228   1.573   5.058 -2.7538  2.1532 -2.1830
 2717TIP3    H229643   4.090   1.533   5.106 -1.1014 -1.3765  0.0481
 2718TIP3   OH229644   4.826   4.503   4.713 -0.0708 -0.1171 -0.5287
 2718TIP3    H129645   4.896   4.471   4.770 -1.0262 -0.6551  0.3752
 2718TIP3    H229646   4.826   4.441   4.639  1.5400  0.9120 -1.4446
 2719TIP3   OH229647   3.556   5.852   3.267 -0.2247  0.1571  0.5039
 2719TIP3    H129648   3.587   5.849   3.358  0.4198  0.0773  0.2919
 2719TIP3    H229649   3.610   5.787   3.222  0.5368  1.2787 -0.2536
 2720TIP3   OH229650   0.816   0.744   6.075  0.4976 -0.1769 -0.4109
 2720TIP3    H129651   0.765   0.733   6.155  0.0329  0.5194 -0.6032
 2720TIP3    H229652   0.752   0.772   6.009  0.7322 -1.4470 -1.2268
 2721TIP3   OH229653   6.555   5.202  14.495  0.3972  0.0887 -0.2435
 2721TIP3    H129654   6.647   5.224  14.482  0.6231  0.2848  1.4313
 2721TIP3    H229655   6.507   5.277  14.460  0.7499 -0.6715 -2.5513
 2722TIP3   OH229656   3.033   0.530  14.564 -0.1196  0.3042  0.0618
 2722TIP3    H129657   3.030   0.498  14.654  0.1564 -0.8477 -0.3169
 2722TIP3    H229658   2.992   0.461  14.513  0.4150  0.5994 -0.7823
 2723TIP3   OH229659   4.309   3.067   0.184  0.3398  0.5659  0.4935
 2723TIP3    H129660   4.398   3.032   0.181  0.0223 -0.2149 -0.7337
 2723TIP3    H229661   4.274   3.036   0.268  0.8633 -0.0715  0.4887
 2724TIP3   OH229662   3.344   2.203  16.432 -0.2762 -0.5839  0.1333
 2724TIP3    H129663   3.352   2.259  16.509  1.9384  0.2928 -0.6644
 2724TIP3    H229664   3.297   2.256  16.367  1.8477  0.4460 -0.6331
 2725TIP3   OH229665   0.475   1.596   1.591 -0.3544 -0.0868  0.7272
 2725TIP3    H129666   0.458   1.679   1.635 -0.9292 -0.2761  0.8650
 2725TIP3    H229667   0.389   1.565   1.562 -0.2519 -0.9779  1.3115
 2726TIP3   OH229668   4.837   4.848  11.420 -0.3744  0.5363 -0.0336
 2726TIP3    H129669   4.858   4.924  11.366 -0.0628 -1.2197 -2.5508
 2726TIP3    H229670   4.915   4.793  11.415 -0.7705 -0.1877  1.3519
 2727TIP3   OH229671   5.371   2.424   0.306 -0.3481 -0.5005 -0.5908
 2727TIP3    H129672   5.444   2.363   0.292 -0.4686 -0.6844 -0.4245
 2727TIP3    H229673   5.406   2.510   0.283 -0.5621 -0.8017 -2.0944
 2728TIP3   OH229674   3.198   1.530  10.487 -0.7123 -0.0938 -1.1407
 2728TIP3    H129675   3.124   1.517  10.547 -0.7011  1.3804 -0.7679
 2728TIP3    H229676   3.274   1.499  10.536 -0.7871  0.5304 -0.6160
 2729TIP3   OH229677   3.874   2.651  11.774  0.6167 -0.4432 -0.5125
 2729TIP3    H129678   3.829   2.703  11.707 -0.4649 -1.1026 -0.3293
 2729TIP3    H229679   3.855   2.697  11.856  2.2563  0.5750 -0.6747
 2730TIP3   OH229680   2.818   1.804   1.690 -0.0973  1.0676 -0.1318
 2730TIP3    H129681   2.884   1.873   1.703  0.0391  0.9608 -0.2582
 2730TIP3    H229682   2.869   1.724   1.678 -0.2243  1.1436 -1.2173
 2731TIP3   OH229683   1.167   5.453  12.307 -0.1108 -0.2442  0.0238
 2731TIP3    H129684   1.084   5.451  12.260  0.5331 -0.9710 -1.1116
 2731TIP3    H229685   1.151   5.402  12.387 -1.2894  1.2315  0.7678
 2732TIP3   OH229686   3.613   0.047  14.703  0.1491  0.2799  0.0365
 2732TIP3    H129687   3.687  -0.001  14.739 -0.2578 -0.4261 -0.0529
 2732TIP3    H229688   3.652   0.121  14.657  0.8003 -0.0899 -0.0104
 2733TIP3   OH229689   1.495   0.389   5.295 -0.3667 -0.4471 -0.0318
 2733TIP3    H129690   1.419   0.434   5.257  0.9309  0.8424 -1.2443
 2733TIP3    H229691   1.521   0.325   5.228 -1.6403 -2.4487  1.2983
 2734TIP3   OH229692   0.925   0.043   4.892 -0.2358  0.0157 -0.2165
 2734TIP3    H129693   0.948  -0.008   4.815 -1.9746  0.6621 -1.2166
 2734TIP3    H229694   0.838   0.010   4.918  0.4080 -0.3596  1.6331
 2735TIP3   OH229695   2.602   4.371  14.725  0.3629  0.0524  0.1512
 2735TIP3    H129696   2.540   4.438  14.697 -0.1500  0.6307  2.4564
 2735TIP3    H229697   2.597   4.304  14.657 -1.1077  1.1106 -0.8430
 2736TIP3   OH229698   6.190   3.157  16.402 -0.1015 -0.3872 -0.1944
 2736TIP3    H129699   6.153   3.093  16.464  2.4826  0.6465  2.6397
 2736TIP3    H229700   6.159   3.242  16.435  0.8817  0.1496 -0.6261
 2737TIP3   OH229701   6.707   0.273  12.660 -0.3045  0.1897 -0.1793
 2737TIP3    H129702   6.635   0.216  12.688 -2.2620  2.0474 -1.1423
 2737TIP3    H229703   6.728   0.325  12.737 -1.1988  0.8082 -0.3378
 2738TIP3   OH229704   4.075   0.709   5.323  0.4510 -0.2744  0.3939
 2738TIP3    H129705   4.005   0.757   5.280 -0.9859 -2.3042  0.3287
 2738TIP3    H229706   4.050   0.707   5.415  0.8496 -0.3247  0.5056
 2739TIP3   OH229707   4.107   3.806  11.145  0.1227  0.1577  0.5188
 2739TIP3    H129708   4.177   3.871  11.157  0.5450  0.4737 -2.8095
 2739TIP3    H229709   4.033   3.857  11.113  0.8744 -0.9267 -3.5251
 2740TIP3   OH229710   1.192   2.092   5.101  0.1445 -0.6274  0.2241
 2740TIP3    H129711   1.187   2.006   5.058 -0.3989 -1.8766  2.5928
 2740TIP3    H229712   1.285   2.102   5.122  0.2720 -0.4247 -0.4099
 2741TIP3   OH229713   4.490   0.855   1.193 -0.2204 -0.0715  0.7654
 2741TIP3    H129714   4.457   0.942   1.168  0.1516  0.3261  1.6182
 2741TIP3    H229715   4.527   0.868   1.280 -0.7810 -1.2433  1.1959
 2742TIP3   OH229716   4.975   1.880  15.954  0.5661  0.2664 -0.2164
 2742TIP3    H129717   5.005   1.947  16.016  1.7242 -0.9333  0.5805
 2742TIP3    H229718   4.924   1.819  16.007  1.7758 -0.9135 -0.3259
 2743TIP3   OH229719   5.329   5.267  12.727  0.5018 -0.1191 -0.1441
 2743TIP3    H129720   5.341   5.278  12.633 -0.4755 -1.2389 -0.4371
 2743TIP3    H229721   5.297   5.177  12.736 -0.7595  0.4101  1.1111
 2744TIP3   OH229722   6.091   4.883  17.170  0.0974  0.0662  0.2183
 2744TIP3    H129723   6.030   4.956  17.167 -1.7602 -1.3794  0.9990
 2744TIP3    H229724   6.039   4.809  17.202  2.3083 -1.1959  1.1295
 2745TIP3   OH229725   5.854   2.850  15.172  0.0581  0.2188  0.4308
 2745TIP3    H129726   5.940   2.892  15.171  0.1101  0.1139 -0.1779
 2745TIP3    H229727   5.840   2.826  15.263  1.3770 -1.1921  0.2944
 2746TIP3   OH229728   6.261   0.322   0.332 -0.6343  0.3662 -0.1175
 2746TIP3    H129729   6.328   0.254   0.338 -0.8510  0.0254 -1.3797
 2746TIP3    H229730   6.273   0.361   0.246 -0.6926  1.7596  0.4788
 2747TIP3   OH229731   2.665   4.714   1.607  0.3180  0.3518  0.0259
 2747TIP3    H129732   2.760   4.715   1.622  0.3750 -0.9920 -0.1106
 2747TIP3    H229733   2.635   4.634   1.651 -0.2009 -1.2466 -2.9995
 2748TIP3   OH229734   4.009   2.433   2.830 -0.0703  0.0940  0.0061
 2748TIP3    H129735   4.048   2.374   2.765  0.3253 -0.6020  0.8513
 2748TIP3    H229736   3.963   2.499   2.778  0.4598 -0.2928 -0.9804
 2749TIP3   OH229737   6.453   0.774  11.253  0.6391  0.1255  0.2306
 2749TIP3    H129738   6.407   0.695  11.223  0.0606  0.1625  0.9998
 2749TIP3    H229739   6.495   0.808  11.174  0.3553 -0.5882 -0.2448
 2750TIP3   OH229740   0.738   0.378  10.844 -0.5590  0.7879  0.0481
 2750TIP3    H129741   0.650   0.367  10.807  0.6016 -2.1618 -2.1911
 2750TIP3    H229742   0.744   0.310  10.911  0.7545 -0.7351 -1.5277
 2751TIP3   OH229743   2.153   5.408  14.942 -0.2491 -0.1145  0.1709
 2751TIP3    H129744   2.231   5.429  14.892 -0.6773 -0.1642 -0.5372
 2751TIP3    H229745   2.101   5.352  14.883 -0.5175 -0.6231  0.8700
 2752TIP3   OH229746   6.042   5.538   2.669  0.1476 -0.1885 -0.0300
 2752TIP3    H129747   5.974   5.581   2.618 -0.5741 -0.2734  0.8400
 2752TIP3    H229748   6.112   5.521   2.606 -0.1359  0.9674 -0.6805
 2753TIP3   OH229749   3.418   4.686   4.028  0.2327 -0.7734  0.2244
 2753TIP3    H129750   3.444   4.611   4.082 -1.3245 -2.5659 -1.3256
 2753TIP3    H229751   3.462   4.672   3.944  0.6519  0.5975  0.1886
 2754TIP3   OH229752   3.695   2.616   4.155  0.8626  0.0808 -0.3849
 2754TIP3    H129753   3.734   2.702   4.168  1.6371 -0.6243  2.8619
 2754TIP3    H229754   3.601   2.634   4.143  1.4601  1.5326 -4.4672
 2755TIP3   OH229755   4.279   4.058  15.144 -0.2900 -0.7833  0.0004
 2755TIP3    H129756   4.243   4.012  15.219  0.7709 -0.8431  0.4948
 2755TIP3    H229757   4.257   4.150  15.159 -1.2590 -0.9501 -0.3191
 2756TIP3   OH229758   2.296   4.721  17.463  0.6931  0.2359 -0.7174
 2756TIP3    H129759   2.345   4.672  17.529  1.6001  0.8623 -0.9088
 2756TIP3    H229760   2.253   4.791  17.513  1.9413  1.1372 -0.8502
 2757TIP3   OH229761   3.500   5.119  11.620 -0.3334 -0.2752 -0.8147
 2757TIP3    H129762   3.566   5.111  11.552  0.5307  0.6997 -0.1158
 2757TIP3    H229763   3.461   5.032  11.626  0.3934 -0.6772 -1.7318
 2758TIP3   OH229764   4.385   0.457  13.679 -0.1706 -0.4367  0.1404
 2758TIP3    H129765   4.420   0.454  13.767  1.5268  0.5436 -0.4603
 2758TIP3    H229766   4.312   0.395  13.680  0.3445 -1.0721  1.9801
 2759TIP3   OH229767   1.469   5.311   2.735  0.4372  0.6650  0.1182
 2759TIP3    H129768   1.447   5.401   2.712 -0.4815  0.7236  1.1267
 2759TIP3    H229769   1.548   5.292   2.684  0.1909  1.7576 -0.7185
 2760TIP3   OH229770   1.217   4.705  16.277  0.2989  0.0305  0.3456
 2760TIP3    H129771   1.275   4.691  16.353 -0.3299  0.8007  0.9838
 2760TIP3    H229772   1.159   4.629  16.276  0.7157 -0.2923  0.2492
 2761TIP3   OH229773   5.388   5.726   6.410 -0.0691 -0.4054  0.4204
 2761TIP3    H129774   5.447   5.765   6.474  0.8632 -1.2996  0.1327
 2761TIP3    H229775   5.337   5.662   6.460  0.8513 -1.3007  0.2293
 2762TIP3   OH229776   4.550   1.142  16.923  0.1032  0.7664  0.0671
 2762TIP3    H129777   4.520   1.094  16.847  0.0384  1.6626 -0.4848
 2762TIP3    H229778   4.484   1.125  16.990 -0.0616  0.3151 -0.2092
 2763TIP3   OH229779   2.721   4.432  16.083  0.4753 -0.3367  0.3333
 2763TIP3    H129780   2.709   4.427  15.988 -1.3726 -0.8103  0.5504
 2763TIP3    H229781   2.634   4.451  16.117  1.4809  2.0928  1.8223
 2764TIP3   OH229782   0.033   5.946  17.304 -0.0941  0.6782 -0.3804
 2764TIP3    H129783  -0.038   5.939  17.240  0.3033 -0.8904 -0.6990
 2764TIP3    H229784  -0.011   5.942  17.389 -0.4426  0.2750 -0.5758
 2765TIP3   OH229785   1.111   2.636  13.881 -0.5270 -0.5209  0.5212
 2765TIP3    H129786   1.107   2.541  13.870  0.5309 -0.4814 -0.2314
 2765TIP3    H229787   1.127   2.648  13.975 -4.1368 -0.9645  1.3601
 2766TIP3   OH229788   3.409   3.368   3.813 -0.1286  0.3726  1.1032
 2766TIP3    H129789   3.471   3.441   3.820  0.3381 -0.0421  1.3197
 2766TIP3    H229790   3.367   3.381   3.728  1.2195 -0.0970  0.3405
 2767TIP3   OH229791   3.277   2.620  11.457 -0.0045  0.0610  0.0318
 2767TIP3    H129792   3.316   2.693  11.506 -1.2666  1.8220 -1.4533
 2767TIP3    H229793   3.185   2.645  11.447 -0.5980 -2.0176 -0.0945
 2768TIP3   OH229794   3.516   1.342   1.837 -0.1388 -1.0806 -0.1309
 2768TIP3    H129795   3.470   1.365   1.918 -0.2531  0.7387 -0.6689
 2768TIP3    H229796   3.602   1.386   1.845 -0.5533  0.0511 -1.4168
 2769TIP3   OH229797   6.244   6.676  17.373  0.4371  0.4243  0.0574
 2769TIP3    H129798   6.162   6.721  17.394  1.4582  2.4101  0.0622
 2769TIP3    H229799   6.218   6.601  17.320 -1.3949  0.8410  0.3183
 2770TIP3   OH229800   1.852   2.859   5.876  0.2224 -0.5576  0.0118
 2770TIP3    H129801   1.788   2.830   5.810  1.3701 -1.1361 -0.8862
 2770TIP3    H229802   1.912   2.916   5.828 -0.1616  0.7869  1.0656
 2771TIP3   OH229803   6.525   1.878   6.206  0.5636 -0.0706  0.3890
 2771TIP3    H129804   6.610   1.901   6.246 -0.2958  1.4735  1.4249
 2771TIP3    H229805   6.460   1.917   6.265 -0.8374 -0.0162 -1.1419
 2772TIP3   OH229806   5.311   4.866  13.335  0.1227 -0.3970 -0.3772
 2772TIP3    H129807   5.363   4.887  13.413 -1.5953 -1.4238  1.1488
 2772TIP3    H229808   5.321   4.771  13.325 -0.3188 -0.3908 -0.9197
 2773TIP3   OH229809   3.609   1.018   3.355  0.1772 -0.2678 -0.0729
 2773TIP3    H129810   3.644   1.081   3.292 -1.5613 -0.0115 -0.8424
 2773TIP3    H229811   3.669   0.943   3.351 -0.3794 -0.6525 -2.7591
 2774TIP3   OH229812   5.616   0.318   6.333  0.4664  0.6390  0.3196
 2774TIP3    H129813   5.640   0.237   6.378  0.5250  1.0363  1.0168
 2774TIP3    H229814   5.530   0.341   6.369  0.1451  0.5259 -0.3725
 2775TIP3   OH229815   3.306   0.511  11.076  0.0223  0.1914 -0.0766
 2775TIP3    H129816   3.316   0.591  11.024  0.5301 -1.0674 -2.0585
 2775TIP3    H229817   3.347   0.531  11.160 -2.4948  2.9397  0.6186
 2776TIP3   OH229818   0.229   4.639  14.871  0.5694 -0.2056 -0.6400
 2776TIP3    H129819   0.308   4.594  14.842 -0.0436 -1.2503 -0.7180
 2776TIP3    H229820   0.212   4.704  14.803  1.9623  0.7995 -0.0834
 2777TIP3   OH229821   4.502   0.626   5.913  0.3154 -0.5406 -1.0048
 2777TIP3    H129822   4.573   0.639   5.850  1.2092  2.3198  0.4044
 2777TIP3    H229823   4.545   0.594   5.992 -0.1259  0.0491 -0.5136
 2778TIP3   OH229824   4.341   3.462  12.385  0.0544 -0.3174  0.9893
 2778TIP3    H129825   4.352   3.521  12.459 -0.7197  2.9270 -1.2698
 2778TIP3    H229826   4.246   3.448  12.379  0.0729 -0.1618  0.3135
 2779TIP3   OH229827   1.946   0.266  15.752  0.2095 -0.5947  0.1346
 2779TIP3    H129828   1.964   0.332  15.684 -0.9979  0.5665  0.8871
 2779TIP3    H229829   2.019   0.276  15.814 -0.5252  0.8770  0.8262
 2780TIP3   OH229830   2.338   3.591   4.360 -1.0518  0.5289 -0.3954
 2780TIP3    H129831   2.255   3.622   4.323  0.6990  1.1578 -4.3449
 2780TIP3    H229832   2.364   3.519   4.303  0.4024 -0.7275  1.7446
 2781TIP3   OH229833   0.676   3.921  12.056 -0.6718  1.0417 -0.1049
 2781TIP3    H129834   0.627   3.840  12.039 -0.8298  1.2596 -0.7251
 2781TIP3    H229835   0.614   3.977  12.102 -0.5217  0.7660  0.4418
 2782TIP3   OH229836   2.495   5.198  13.204  0.2413  0.0498 -0.3920
 2782TIP3    H129837   2.441   5.129  13.242 -0.6586  0.5763 -0.6896
 2782TIP3    H229838   2.542   5.155  13.133 -2.2063  0.2562 -2.2375
 2783TIP3   OH229839   1.488   0.675  12.765 -0.1000 -0.2325  0.8479
 2783TIP3    H129840   1.433   0.618  12.712 -1.2183 -0.0189  1.7217
 2783TIP3    H229841   1.574   0.632  12.767 -0.6755 -1.4142  0.7509
 2784TIP3   OH229842   6.008   6.101  13.641 -0.0798 -0.8614 -0.7915
 2784TIP3    H129843   5.920   6.091  13.677  0.3968  0.2214  0.7852
 2784TIP3    H229844   6.012   6.037  13.570 -2.3351 -0.5076 -1.3245
 2785TIP3   OH229845   1.351   0.061  15.992 -0.2054 -0.6631 -0.6287
 2785TIP3    H129846   1.331   0.151  16.018  0.7393 -1.0038  1.4935
 2785TIP3    H229847   1.422   0.071  15.928 -0.0434  0.0912 -0.3458
 2786TIP3   OH229848   0.831   1.800  12.536  0.0344  1.0823 -0.4597
 2786TIP3    H129849   0.845   1.771  12.446 -0.0046  0.3333 -0.2310
 2786TIP3    H229850   0.747   1.844  12.535  0.4760  1.9456 -0.9883
 2787TIP3   OH229851   5.536   5.512  17.008 -0.2205  0.8615  0.0099
 2787TIP3    H129852   5.615   5.564  16.999 -0.7174  1.5017 -0.7208
 2787TIP3    H229853   5.546   5.468  17.093  2.2747 -1.4111 -1.3399
 2788TIP3   OH229854   1.811   2.098   2.659  0.8527 -0.2725  0.4763
 2788TIP3    H129855   1.804   2.014   2.705  0.8292 -0.1206  0.7506
 2788TIP3    H229856   1.788   2.077   2.568 -0.4500 -0.3186  0.7970
 2789TIP3   OH229857   6.213   1.628   5.927  0.3231 -0.1188 -0.3029
 2789TIP3    H129858   6.305   1.611   5.943  1.2303  4.1721  0.2427
 2789TIP3    H229859   6.208   1.651   5.834 -0.0565  0.2455 -0.1992
 2790TIP3   OH229860   5.162   3.120  17.327 -0.3686 -0.3421  0.5126
 2790TIP3    H129861   5.127   3.097  17.242 -2.4188  0.8573  0.9809
 2790TIP3    H229862   5.247   3.162  17.308 -1.4780  1.3231 -1.0762
 2791TIP3   OH229863   5.598   1.432  15.424 -0.4115 -0.3718 -0.3796
 2791TIP3    H129864   5.676   1.404  15.377  0.2803 -0.3457  0.7120
 2791TIP3    H229865   5.628   1.448  15.513 -1.1473  2.0178 -0.4735
 2792TIP3   OH229866   2.086   1.370   0.636 -0.1605 -1.0626  1.0386
 2792TIP3    H129867   2.085   1.459   0.672  1.1527 -0.9575  0.8438
 2792TIP3    H229868   2.142   1.320   0.695  2.9735 -0.6304 -1.3376
 2793TIP3   OH229869   6.049   5.288  12.765  0.1919 -0.1674 -0.0615
 2793TIP3    H129870   6.106   5.336  12.704 -0.5030 -0.9966 -1.4074
 2793TIP3    H229871   6.019   5.212  12.715 -1.9121  0.1214  0.6930
 2794TIP3   OH229872   6.221   4.262   4.541 -1.0780 -0.2007 -0.4792
 2794TIP3    H129873   6.250   4.208   4.467 -1.1060  0.3985 -0.9390
 2794TIP3    H229874   6.221   4.202   4.616 -0.1146 -0.5807 -0.7654
 2795TIP3   OH229875   1.019   6.058  14.481 -0.3103 -0.0025  0.3637
 2795TIP3    H129876   1.092   6.093  14.531 -0.4799 -0.0089  0.6189
 2795TIP3    H229877   1.036   5.964  14.477  0.8047  0.2380 -1.3992
 2796TIP3   OH229878   0.507   0.273   4.282  0.0343 -0.0317  0.4065
 2796TIP3    H129879   0.561   0.278   4.203 -2.1215 -1.1845 -1.2632
 2796TIP3    H229880   0.559   0.221   4.343  1.9578  1.2847 -0.0046
 2797TIP3   OH229881   1.610   1.806  12.252 -0.2759  0.3377 -0.5913
 2797TIP3    H129882   1.681   1.808  12.188 -0.5001  0.5838 -0.8389
 2797TIP3    H229883   1.545   1.868  12.218 -1.1689 -0.7817 -1.0229
 2798TIP3   OH229884   1.844   3.397  14.697 -0.3313 -0.1366 -0.0618
 2798TIP3    H129885   1.887   3.483  14.693  0.3681 -0.4457  0.5483
 2798TIP3    H229886   1.914   3.337  14.724 -0.1431 -1.3587 -2.8463
 2799TIP3   OH229887   1.800   0.348  11.415 -0.1545  0.2313 -0.1159
 2799TIP3    H129888   1.775   0.419  11.474  1.9530  0.5086  0.5351
 2799TIP3    H229889   1.798   0.270  11.470  2.0609  0.5268  0.4749
 2800TIP3   OH229890   2.962   4.184   1.362 -0.0633 -0.3229 -0.1679
 2800TIP3    H129891   2.873   4.177   1.394 -0.5622 -0.6868 -1.5499
 2800TIP3    H229892   3.003   4.101   1.386  0.1095  0.0718  0.9823
 2801TIP3   OH229893   1.954   0.677  12.772 -0.0682 -0.1875  0.2700
 2801TIP3    H129894   2.048   0.670  12.785 -0.2286 -2.2006  0.5933
 2801TIP3    H229895   1.943   0.681  12.677  0.3459  0.1891  0.2373
 2802TIP3   OH229896   6.536   0.633   5.922 -0.3351  0.0563  0.1358
 2802TIP3    H129897   6.600   0.677   5.867 -0.3665  1.5886  1.2590
 2802TIP3    H229898   6.502   0.562   5.867 -0.1905  1.3377 -1.6973
 2803TIP3   OH229899   1.287   5.699  12.316 -0.1305 -0.2008  0.3561
 2803TIP3    H129900   1.378   5.682  12.341 -0.6964  0.5358  3.3196
 2803TIP3    H229901   1.243   5.614  12.325  0.1624 -0.4932 -0.7935
 2804TIP3   OH229902   1.744   5.450  15.127  0.3509  0.1168  0.4907
 2804TIP3    H129903   1.715   5.538  15.104 -0.4771 -0.2152  0.2008
 2804TIP3    H229904   1.839   5.456  15.135  0.4576  0.7232 -0.9345
 2805TIP3   OH229905   0.131   0.553  14.356  0.2854 -0.2505 -0.0282
 2805TIP3    H129906   0.183   0.491  14.408  0.3220 -0.0508  0.1731
 2805TIP3    H229907   0.044   0.550  14.396  1.1512  2.6108  2.4579
 2806TIP3   OH229908   2.852   1.949  12.336  0.1273  0.4366 -0.1389
 2806TIP3    H129909   2.757   1.958  12.335 -0.1208 -1.7562 -0.4203
 2806TIP3    H229910   2.876   1.938  12.244  0.7376  1.4778 -0.1214
 2807TIP3   OH229911   2.240   2.494  12.416  0.0059 -0.1045  0.2218
 2807TIP3    H129912   2.203   2.406  12.432 -1.1956  0.5051  0.9481
 2807TIP3    H229913   2.323   2.494  12.463  0.0660 -0.8935  0.1332
 2808TIP3   OH229914   0.630   6.714   0.135  0.1258  0.1548  0.3668
 2808TIP3    H129915   0.541   6.730   0.166  0.1473  0.2605  0.3754
 2808TIP3    H229916   0.661   6.800   0.105  0.5263  0.2859  1.1352
 2809TIP3   OH229917   2.350   1.102  16.452 -0.5775 -0.3649  0.7759
 2809TIP3    H129918   2.389   1.068  16.533 -1.0099 -0.3590  0.9907
 2809TIP3    H229919   2.357   1.030  16.390  3.5721  0.8474 -0.5573
 2810TIP3   OH229920   0.559   1.653  17.075  0.6494  0.3296 -0.4325
 2810TIP3    H129921   0.566   1.705  16.995 -0.6516  0.3856 -0.5307
 2810TIP3    H229922   0.538   1.564  17.043  0.9300  0.1765 -0.1910
 2811TIP3   OH229923   4.098   1.732  11.511 -0.4204  0.4561  0.1845
 2811TIP3    H129924   4.135   1.820  11.515 -0.6478  0.5226  1.2816
 2811TIP3    H229925   4.173   1.674  11.527 -0.2541  0.4437 -0.6326
 2812TIP3   OH229926   3.153   2.721   2.496 -0.2774  0.0230  0.0259
 2812TIP3    H129927   3.167   2.644   2.552  0.6445 -0.9064 -1.4144
 2812TIP3    H229928   3.059   2.722   2.481 -0.3221 -0.7371  0.1905
 2813TIP3   OH229929   5.071   2.905   0.003  0.8768  0.3412  0.5428
 2813TIP3    H129930   5.128   2.832  -0.024 -0.2191 -0.1949 -0.4351
 2813TIP3    H229931   5.109   2.982  -0.038  0.0994 -0.2383 -1.3659
 2814TIP3   OH229932   3.963   2.295  14.261 -0.2250 -0.3904  0.4425
 2814TIP3    H129933   3.921   2.309  14.345  1.0182  2.3789  0.7451
 2814TIP3    H229934   4.054   2.275  14.282  0.6249  2.4204 -0.1192
 2815TIP3   OH229935   0.898   0.071  16.543  0.0613 -0.6209 -0.1709
 2815TIP3    H129936   0.981   0.023  16.535  1.7015  1.9856 -0.2054
 2815TIP3    H229937   0.908   0.122  16.623 -1.2352  0.2470 -0.5316
 2816TIP3   OH229938   1.622   0.113  11.129  0.1036  0.4688 -0.5400
 2816TIP3    H129939   1.609   0.192  11.076  0.1175  0.2420 -0.8890
 2816TIP3    H229940   1.585   0.135  11.214 -0.9415  0.4575 -0.9743
 2817TIP3   OH229941   2.186   1.777   2.301 -0.1221  0.2040 -0.5027
 2817TIP3    H129942   2.194   1.715   2.373 -1.4374 -0.0439 -0.5439
 2817TIP3    H229943   2.135   1.849   2.337  1.1990  1.1880 -0.5223
 2818TIP3   OH229944   2.428   4.946   3.072 -0.3297 -0.0950 -0.1547
 2818TIP3    H129945   2.422   4.888   2.996 -1.5477  1.9020 -1.6680
 2818TIP3    H229946   2.512   4.991   3.061 -0.3509 -0.0491 -0.1269
 2819TIP3   OH229947   3.946   2.737   0.289  0.0965 -0.3143 -0.0288
 2819TIP3    H129948   3.930   2.752   0.382  0.0012 -1.7681  0.2108
 2819TIP3    H229949   3.865   2.698   0.257 -0.3027  1.2315 -1.0115
 2820TIP3   OH229950   4.980   2.144  11.824 -0.1424 -0.3681  0.6411
 2820TIP3    H129951   4.935   2.070  11.864 -0.4471 -0.9985 -0.7998
 2820TIP3    H229952   4.928   2.164  11.746  0.8142  0.3623  0.1759
 2821TIP3   OH229953   1.232   0.233   1.189 -0.0697  0.2396  0.2294
 2821TIP3    H129954   1.194   0.156   1.231 -0.6200  0.3644 -0.0286
 2821TIP3    H229955   1.173   0.305   1.211  0.3417  0.5572  0.3155
 2822TIP3   OH229956   2.115   5.395   1.314 -0.1480 -0.1602  0.1924
 2822TIP3    H129957   2.084   5.340   1.386  0.4715 -0.9692 -0.1515
 2822TIP3    H229958   2.196   5.353   1.284 -0.1817  0.3926 -0.7133
 2823TIP3   OH229959   1.351   0.092   2.677 -0.5151  0.1643  0.4413
 2823TIP3    H129960   1.437   0.070   2.641 -0.5795  0.4317  0.1137
 2823TIP3    H229961   1.368   0.121   2.766 -0.3662 -0.6417  0.6878
 2824TIP3   OH229962   5.337   4.134  12.266 -0.1404  0.1984  0.0714
 2824TIP3    H129963   5.394   4.141  12.189  0.1379 -0.6425  0.2015
 2824TIP3    H229964   5.270   4.201  12.251  0.4510  0.6938 -0.4379
 2825TIP3   OH229965   1.148   4.912  13.869 -0.0576  0.1169  0.7591
 2825TIP3    H129966   1.197   4.994  13.862 -2.2034  1.6648  2.3459
 2825TIP3    H229967   1.117   4.894  13.780  0.5870  0.9188  0.3631
 2826TIP3   OH229968   1.749   0.305  12.187 -0.1677  0.0255 -0.1028
 2826TIP3    H129969   1.826   0.274  12.139 -0.4040 -2.5501  0.9964
 2826TIP3    H229970   1.675   0.264  12.142 -0.3781 -2.6209  2.3800
 2827TIP3   OH229971   5.732   4.017  11.597 -0.1254 -0.2991  0.7536
 2827TIP3    H129972   5.775   4.028  11.512 -1.1533 -0.5768  0.1834
 2827TIP3    H229973   5.797   3.971  11.651  0.5986  0.0303  0.1752
 2828TIP3   OH229974   5.328   4.964  14.054  0.3548 -0.1693 -0.3969
 2828TIP3    H129975   5.287   5.047  14.031  1.6599  0.7191  0.3204
 2828TIP3    H229976   5.279   4.898  14.005 -0.7404  1.0132 -0.9473
 2829TIP3   OH229977   0.335   1.163  12.689 -0.2581  0.0180  0.5530
 2829TIP3    H129978   0.303   1.236  12.636 -0.0266 -0.3727 -0.1381
 2829TIP3    H229979   0.298   1.085  12.649  0.5113 -0.3410  0.5174
 2830TIP3   OH229980   0.003   2.557   4.881 -0.1987 -0.1660  0.3018
 2830TIP3    H129981   0.068   2.623   4.853  0.6503 -1.9048 -2.2677
 2830TIP3    H229982  -0.064   2.560   4.812 -0.0524 -2.0330  0.0406
 2831TIP3   OH229983   5.246   2.622  16.124 -0.6685  0.1488 -0.3328
 2831TIP3    H129984   5.262   2.691  16.061 -0.1708 -0.4202 -0.8351
 2831TIP3    H229985   5.291   2.650  16.203 -1.0434  0.7170 -0.3149
 2832TIP3   OH229986   1.594   2.529  16.788 -0.2043  0.4195 -0.2283
 2832TIP3    H129987   1.621   2.591  16.721 -0.7438  0.0468 -0.8020
 2832TIP3    H229988   1.649   2.550  16.864  0.2813  0.9689 -0.7201
 2833TIP3   OH229989   4.773   5.252   4.470  0.1816  0.3634 -0.0774
 2833TIP3    H129990   4.823   5.253   4.551  2.0027  0.5112 -1.1385
 2833TIP3    H229991   4.735   5.340   4.464 -1.7159 -0.2745  1.5718
 2834TIP3   OH229992   1.946   3.389  16.414  0.5465 -0.9177  0.1876
 2834TIP3    H129993   1.881   3.353  16.353 -0.7917  1.2179  0.2341
 2834TIP3    H229994   2.023   3.403  16.360 -0.2453 -0.1444 -0.7975
 2835TIP3   OH229995   3.904   6.372   2.966  0.5241 -0.7276 -0.1077
 2835TIP3    H129996   3.947   6.345   2.885  0.3001 -0.6945 -0.2409
 2835TIP3    H229997   3.971   6.364   3.033  1.1816  0.7454 -0.5531
 2836TIP3   OH229998   4.023   6.335  12.907  0.3200 -0.2945 -0.3128
 2836TIP3    H129999   4.042   6.270  12.839 -0.4190 -1.5366  0.6200
 2836TIP3    H230000   3.930   6.323  12.926  0.6193 -0.3253  1.2651
 2837TIP3   OH230001   4.969   0.421   4.210 -0.0836 -0.2239 -0.0869
 2837TIP3    H130002   5.003   0.506   4.240 -1.3518  0.2232  0.1287
 2837TIP3    H230003   4.887   0.409   4.258 -0.1601 -1.3592 -0.4701
 2838TIP3   OH230004   1.796   4.043   3.272  0.3724  0.2665  0.3547
 2838TIP3    H130005   1.738   3.972   3.244  1.2904 -0.3111 -0.1071
 2838TIP3    H230006   1.743   4.094   3.333 -0.3088 -0.7893  0.6632
 2839TIP3   OH230007   5.236   0.566   2.409  0.1772  0.0173 -0.4677
 2839TIP3    H130008   5.235   0.534   2.500  0.4539  0.8186 -0.1735
 2839TIP3    H230009   5.275   0.653   2.415 -0.4345  0.3585 -1.2634
 2840TIP3   OH230010   1.642   2.418   1.624  0.1889 -0.0459 -0.8412
 2840TIP3    H130011   1.679   2.462   1.700  0.3918 -1.2677 -0.2194
 2840TIP3    H230012   1.548   2.437   1.630  0.3518  0.8787 -0.9851
 2841TIP3   OH230013   0.672   5.909  13.664 -0.0040 -0.0505 -0.1739
 2841TIP3    H130014   0.680   5.829  13.611 -0.8825  0.4307 -1.0618
 2841TIP3    H230015   0.748   5.962  13.638  0.0406 -0.1801 -0.3110
 2842TIP3   OH230016   0.814   6.694  15.765 -0.4197  0.7202 -0.0563
 2842TIP3    H130017   0.872   6.770  15.764 -0.2417  0.5916  0.3004
 2842TIP3    H230018   0.865   6.625  15.723 -0.7045  0.8822 -0.6781
 2843TIP3   OH230019   1.078   5.748  11.566 -0.2335  0.7312  0.1454
 2843TIP3    H130020   1.111   5.716  11.650  0.1085 -0.3199 -0.3665
 2843TIP3    H230021   1.037   5.671  11.526 -1.8247  1.6014  0.0345
 2844TIP3   OH230022   0.865   2.771   3.359 -0.2350  0.4372  0.0743
 2844TIP3    H130023   0.947   2.756   3.312 -0.6579 -0.6228 -0.3610
 2844TIP3    H230024   0.890   2.821   3.436  1.0079 -0.8993  0.5787
 2845TIP3   OH230025   3.802   1.110   5.326 -0.2187  0.0972 -0.2483
 2845TIP3    H130026   3.726   1.072   5.370  0.1197  0.9234  1.1365
 2845TIP3    H230027   3.876   1.089   5.384 -0.2600  4.3167  1.7204
 2846TIP3   OH230028   1.998   5.918  13.856  0.0689 -0.5353  0.0984
 2846TIP3    H130029   1.997   6.009  13.885 -0.9310 -0.8186  0.9816
 2846TIP3    H230030   1.990   5.866  13.936  1.5450 -1.4513 -0.2872
 2847TIP3   OH230031   5.204   6.766  16.158  0.4655 -0.4267  0.3071
 2847TIP3    H130032   5.143   6.836  16.135  1.7183  1.0633  1.3151
 2847TIP3    H230033   5.288   6.794  16.123  0.8544 -1.8275  0.0524
 2848TIP3   OH230034   5.604   4.082  14.457 -0.0276 -0.0906  0.5579
 2848TIP3    H130035   5.624   3.990  14.471  0.0257  0.0890  1.7980
 2848TIP3    H230036   5.625   4.124  14.540  0.1919  1.0851 -0.0639
 2849TIP3   OH230037   2.064   5.895  13.454  0.2947 -0.4385  0.1664
 2849TIP3    H130038   2.038   5.803  13.453  0.6700 -0.5426 -0.2877
 2849TIP3    H230039   2.143   5.898  13.400 -0.1933  0.2858 -0.5254
 2850TIP3   OH230040   1.454   0.340  14.090 -1.0327  0.7844  0.1830
 2850TIP3    H130041   1.536   0.367  14.131 -0.4124  0.5250 -0.8548
 2850TIP3    H230042   1.436   0.408  14.025 -1.1386  0.3437 -0.2495
 2851TIP3   OH230043   0.663   0.382   5.491  0.5497 -0.2210  0.3203
 2851TIP3    H130044   0.734   0.414   5.436  0.0879 -0.8798 -0.6969
 2851TIP3    H230045   0.700   0.308   5.539  0.5315 -0.6342 -0.2917
 2852TIP3   OH230046   4.913   5.971  14.594 -0.2635 -0.0358  0.0803
 2852TIP3    H130047   4.858   5.893  14.603  0.2104 -0.5554 -1.2454
 2852TIP3    H230048   4.919   6.006  14.683 -1.5624 -0.7588  0.4890
 2853TIP3   OH230049   4.428   1.720   0.536 -0.7639 -0.5739  0.0822
 2853TIP3    H130050   4.508   1.772   0.536 -1.8304  1.1896  1.0578
 2853TIP3    H230051   4.400   1.720   0.628 -3.2062  1.1038 -0.5781
 2854TIP3   OH230052   2.681   5.305   0.772  0.2686 -0.3542 -0.5020
 2854TIP3    H130053   2.717   5.374   0.827 -0.8256 -0.1250 -0.0484
 2854TIP3    H230054   2.725   5.225   0.802  1.2182  0.0641 -0.7398
 2855TIP3   OH230055   6.569   0.822   4.255 -0.3091 -0.0829 -0.3171
 2855TIP3    H130056   6.598   0.818   4.164 -0.5664  2.4697 -0.5853
 2855TIP3    H230057   6.474   0.810   4.251 -0.1775 -1.2377 -0.2223
 2856TIP3   OH230058   0.014   2.936   2.577  0.0972  0.1278  0.1895
 2856TIP3    H130059   0.037   3.006   2.638 -0.7383  1.0114 -0.4846
 2856TIP3    H230060   0.099   2.904   2.545  0.5411 -0.2108  1.6168
 2857TIP3   OH230061   2.443   1.481   2.923 -0.4016  0.3836  0.3419
 2857TIP3    H130062   2.505   1.469   2.851  0.2658  0.5687  0.8814
 2857TIP3    H230063   2.429   1.575   2.928 -2.3383  0.2516 -1.1030
 2858TIP3   OH230064   6.071   3.963   4.345 -0.0877 -0.7639  0.1650
 2858TIP3    H130065   5.992   3.909   4.338  0.1742 -1.1781  0.3328
 2858TIP3    H230066   6.089   3.966   4.439  0.0026 -0.5301  0.1416
 2859TIP3   OH230067   2.187   5.856  15.115  0.4892  0.2585  0.3316
 2859TIP3    H130068   2.227   5.943  15.106 -0.1722  0.5909  0.5412
 2859TIP3    H230069   2.228   5.804  15.045  1.0718  0.6672  0.3613
 2860TIP3   OH230070   3.970   6.356  14.487  0.6696  0.0867  0.1207
 2860TIP3    H130071   4.013   6.423  14.434  0.3722  0.6332  0.5684
 2860TIP3    H230072   3.880   6.386  14.497  0.7159 -0.0140  0.9190
 2861TIP3   OH230073   5.088   1.063   5.211  0.7322 -0.4596 -0.2513
 2861TIP3    H130074   4.994   1.057   5.227  0.5533  1.5408 -0.3039
 2861TIP3    H230075   5.127   1.072   5.299  0.8223 -0.5844 -0.2774
 2862TIP3   OH230076   0.456   3.920   1.245 -0.4657  0.1052 -0.5898
 2862TIP3    H130077   0.364   3.947   1.242 -0.4253  0.1760 -1.2360
 2862TIP3    H230078   0.493   3.972   1.317 -1.6304 -2.2136  1.8893
 2863TIP3   OH230079   2.476   4.276  12.800  0.0656  0.2534 -0.3412
 2863TIP3    H130080   2.394   4.324  12.796 -0.8663 -1.0804  1.4994
 2863TIP3    H230081   2.533   4.320  12.736 -2.4195  0.4829 -2.5744
 2864TIP3   OH230082   6.533   0.793  16.179 -0.2480 -0.2404 -0.0454
 2864TIP3    H130083   6.443   0.790  16.146 -0.6574 -0.2247  1.0360
 2864TIP3    H230084   6.586   0.818  16.103 -1.2542  0.5461 -0.5051
 2865TIP3   OH230085   3.670   6.276   1.038 -0.4051 -0.4440  0.2820
 2865TIP3    H130086   3.660   6.341   1.108 -0.3189 -0.3845  0.2400
 2865TIP3    H230087   3.582   6.265   1.003 -0.5142 -0.7510  0.6428
 2866TIP3   OH230088   5.101   5.564  15.449 -0.2616  0.1964 -0.2936
 2866TIP3    H130089   5.086   5.658  15.440  2.0439  0.5261 -1.4612
 2866TIP3    H230090   5.022   5.532  15.493 -1.8300  2.3992 -1.2444
 2867TIP3   OH230091   4.563   5.402  10.411 -0.4605  0.1281  0.0783
 2867TIP3    H130092   4.599   5.489  10.431  0.3775 -0.2708  0.3739
 2867TIP3    H230093   4.470   5.417  10.397 -0.2688  1.1261 -0.2037
 2868TIP3   OH230094   1.713   6.415  12.033  0.0230 -0.0587 -0.1741
 2868TIP3    H130095   1.793   6.456  12.066  0.6759  0.1519 -1.8997
 2868TIP3    H230096   1.690   6.466  11.955 -3.8490  2.1764  2.0609
 2869TIP3   OH230097   4.715   2.309   6.150  0.2744  0.1353 -0.0901
 2869TIP3    H130098   4.705   2.223   6.189 -1.8999 -0.4000 -1.6185
 2869TIP3    H230099   4.751   2.292   6.063 -1.0621  0.6258 -0.7691
 2870TIP3   OH230100   1.408   0.107   2.968  0.1538 -0.1017 -0.4797
 2870TIP3    H130101   1.439   0.168   3.034  0.6441 -1.0474  0.1910
 2870TIP3    H230102   1.475   0.038   2.965 -0.2508 -0.4850 -1.3923
 2871TIP3   OH230103   0.485   4.517  15.606  0.0076  0.1335  0.0004
 2871TIP3    H130104   0.490   4.490  15.698  1.6090 -0.1370 -0.1436
 2871TIP3    H230105   0.460   4.437  15.559  0.2394  0.0042  0.0927
 2872TIP3   OH230106   0.078   6.727  15.541  0.2047 -0.4211  0.0951
 2872TIP3    H130107   0.087   6.721  15.636  1.1000  1.0637  0.1444
 2872TIP3    H230108   0.021   6.802  15.527 -2.6061 -2.5390 -0.5368
 2873TIP3   OH230109   4.659   5.105   6.152  0.3436 -0.2512  0.0769
 2873TIP3    H130110   4.583   5.062   6.191  0.3558 -0.7165 -0.4001
 2873TIP3    H230111   4.622   5.173   6.097  0.2397 -0.8535 -0.6084
 2874TIP3   OH230112   3.488   5.177   3.290  0.0631  0.7797  0.3597
 2874TIP3    H130113   3.501   5.162   3.196  0.8141 -0.2643  0.6167
 2874TIP3    H230114   3.468   5.271   3.296 -1.2770  0.6097 -0.9586
 2875TIP3   OH230115   5.433   0.720  16.779  0.4393 -0.5648 -0.0855
 2875TIP3    H130116   5.413   0.792  16.838  0.7401 -1.0015  0.5606
 2875TIP3    H230117   5.396   0.643  16.821 -1.8893 -0.5100 -1.8472
 2876TIP3   OH230118   2.405   1.266  15.096 -0.0489  0.0104  0.0635
 2876TIP3    H130119   2.342   1.249  15.166 -0.6169 -0.3189 -0.5162
 2876TIP3    H230120   2.464   1.333  15.131 -0.6248  0.2026  0.6678
 2877TIP3   OH230121   3.847   4.511   2.413 -0.0637  0.5698  0.6300
 2877TIP3    H130122   3.827   4.438   2.355  1.7211 -0.2131  0.9558
 2877TIP3    H230123   3.785   4.580   2.387 -0.4221 -0.3476 -1.0479
 2878TIP3   OH230124   6.603   2.720   4.042  0.4764 -0.1314  0.5780
 2878TIP3    H130125   6.680   2.777   4.035 -0.3272  0.8900 -0.1987
 2878TIP3    H230126   6.582   2.719   4.136  1.0414  0.1110  0.7107
 2879TIP3   OH230127   1.814   5.367  16.977  0.3717 -0.0068  0.1029
 2879TIP3    H130128   1.772   5.427  17.039 -0.8049 -0.2062 -0.4622
 2879TIP3    H230129   1.860   5.424  16.916 -0.7690  0.3570 -0.4549
 2880TIP3   OH230130   2.159   2.482  16.452 -0.3757 -0.1229  0.7139
 2880TIP3    H130131   2.129   2.392  16.469  0.0083 -0.3679  0.1435
 2880TIP3    H230132   2.247   2.485  16.489 -0.7079  0.2886  1.4918
 2881TIP3   OH230133   6.356   0.737   1.736  0.4936 -0.1677  0.6923
 2881TIP3    H130134   6.261   0.741   1.749  0.4922 -1.0523  1.0063
 2881TIP3    H230135   6.370   0.658   1.685  0.9299  0.8208 -0.7741
 2882TIP3   OH230136   4.245   1.867  14.904  0.2595 -0.0924 -0.1584
 2882TIP3    H130137   4.203   1.944  14.943 -0.8527 -0.8666  0.2159
 2882TIP3    H230138   4.173   1.808  14.885  1.2655 -2.2841  2.2864
 2883TIP3   OH230139   0.324   6.502   3.029 -0.4055 -0.0082 -1.2780
 2883TIP3    H130140   0.303   6.410   3.014 -0.5781 -0.1365 -0.3260
 2883TIP3    H230141   0.276   6.525   3.109  0.2036  0.7041 -1.1060
 2884TIP3   OH230142   5.325   5.030  11.532 -0.1451 -0.5141 -0.1978
 2884TIP3    H130143   5.331   4.979  11.452  0.6491 -2.0258  0.7683
 2884TIP3    H230144   5.416   5.044  11.559 -0.3977  0.0037  0.4296
 2885TIP3   OH230145   4.299   5.082   0.769  0.4066 -0.7185 -0.2988
 2885TIP3    H130146   4.323   4.994   0.799 -4.0451 -2.1023 -0.0554
 2885TIP3    H230147   4.226   5.107   0.826  0.2946  2.3529 -1.6052
 2886TIP3   OH230148   0.623   2.461   1.360  0.5629  0.0825  0.5285
 2886TIP3    H130149   0.664   2.480   1.275 -1.7459 -0.1772 -0.7087
 2886TIP3    H230150   0.605   2.547   1.397 -1.1391  0.2991 -0.6781
 2887TIP3   OH230151   2.927   5.562   1.290  0.1681 -0.1712  0.0065
 2887TIP3    H130152   2.856   5.550   1.353 -0.3482  0.2816 -0.4821
 2887TIP3    H230153   2.883   5.577   1.206  0.8468 -1.1856 -0.5468
 2888TIP3   OH230154   1.802   5.046   4.156 -0.1783  0.2915 -0.2303
 2888TIP3    H130155   1.776   5.001   4.075 -0.1868 -0.0764 -0.0289
 2888TIP3    H230156   1.720   5.055   4.205 -0.3827  1.6068 -0.7806
 2889TIP3   OH230157   1.516   2.441   0.104 -0.2718  0.0349  0.1366
 2889TIP3    H130158   1.451   2.385   0.062 -0.4651  0.4034 -0.0519
 2889TIP3    H230159   1.597   2.390   0.099 -0.6392 -0.6511  0.8380
 2890TIP3   OH230160   4.613   6.583  14.428  0.1561 -0.2372 -0.1964
 2890TIP3    H130161   4.530   6.536  14.435 -0.5496  1.0854  0.9028
 2890TIP3    H230162   4.603   6.639  14.351  0.0469 -0.1490 -0.1193
 2891TIP3   OH230163   2.569   3.619  11.193 -0.4035  0.3166  0.7210
 2891TIP3    H130164   2.513   3.545  11.219 -1.7701  1.8842  2.4880
 2891TIP3    H230165   2.532   3.648  11.109 -0.0065 -0.8092  0.1328
 2892TIP3   OH230166   5.699   2.593   4.232  0.0671 -0.0014  0.1353
 2892TIP3    H130167   5.641   2.539   4.287 -0.8300  0.0052 -0.7690
 2892TIP3    H230168   5.725   2.535   4.161 -1.1563  0.7965 -1.0214
 2893TIP3   OH230169   0.598   0.247   4.666  0.1606 -0.4034 -0.0355
 2893TIP3    H130170   0.645   0.199   4.598  1.5622 -0.3831  0.8590
 2893TIP3    H230171   0.568   0.327   4.623  2.0348  0.1714 -0.3937
 2894TIP3   OH230172   5.341   3.381   4.996 -0.2816  0.5972 -0.2877
 2894TIP3    H130173   5.348   3.470   5.032 -0.0627  0.2882  0.4669
 2894TIP3    H230174   5.251   3.374   4.966 -1.2833  0.0137  2.5856
 2895TIP3   OH230175   0.297   4.082   5.306  0.1550  0.0798 -0.1740
 2895TIP3    H130176   0.248   4.135   5.243 -1.2823  0.8079  1.4604
 2895TIP3    H230177   0.259   3.995   5.300 -1.4169  0.6226  1.0347
 2896TIP3   OH230178   5.848   0.459   2.877 -0.3759 -0.4003  0.2030
 2896TIP3    H130179   5.893   0.490   2.955  1.0617 -1.2563 -0.2470
 2896TIP3    H230180   5.800   0.536   2.844  0.9183  0.6091  0.5989
 2897TIP3   OH230181   6.033   0.754  14.081  0.2621 -0.3344 -0.1889
 2897TIP3    H130182   6.028   0.840  14.122 -0.2865 -0.1212 -0.6999
 2897TIP3    H230183   6.079   0.769  13.998 -2.1554 -0.0233 -1.5671
 2898TIP3   OH230184   1.554   3.283   5.724  0.4055 -0.3515 -0.4596
 2898TIP3    H130185   1.609   3.304   5.649 -1.8799  0.2533 -2.0813
 2898TIP3    H230186   1.466   3.273   5.687 -0.7553 -0.3708  2.1016
 2899TIP3   OH230187   0.073   4.243   0.010  0.1239 -0.1811  0.2174
 2899TIP3    H130188  -0.018   4.255   0.036  0.8503  1.1274  2.5162
 2899TIP3    H230189   0.091   4.315  -0.050 -0.3479 -0.5032 -0.3246
 2900TIP3   OH230190   3.255   4.767  15.376 -0.2872  0.2895 -0.6626
 2900TIP3    H130191   3.225   4.677  15.392  0.2515 -0.1774 -2.1309
 2900TIP3    H230192   3.334   4.757  15.324  0.6287  1.6037  0.4255
 2901TIP3   OH230193   1.179   4.109   5.756  0.0268 -0.1783  0.3813
 2901TIP3    H130194   1.087   4.133   5.749 -0.2546 -1.0033  1.0260
 2901TIP3    H230195   1.178   4.025   5.802  0.9797 -1.2194 -1.4011
 2902TIP3   OH230196   0.607   1.086   1.772 -0.1092 -0.5689 -0.2158
 2902TIP3    H130197   0.608   0.992   1.758 -1.8757 -0.4558 -1.3980
 2902TIP3    H230198   0.688   1.118   1.732  0.0134 -1.4776 -0.7124
 2903TIP3   OH230199   3.867   6.044   4.655 -0.3431  0.2475 -0.2283
 2903TIP3    H130200   3.924   6.060   4.580  0.2436 -0.2459  0.0980
 2903TIP3    H230201   3.918   6.072   4.731 -0.9882  0.8823 -0.0142
 2904TIP3   OH230202   5.017   4.282   1.564 -0.1077 -0.3654 -0.2989
 2904TIP3    H130203   4.962   4.312   1.491 -1.9558  0.6220  1.3922
 2904TIP3    H230204   5.036   4.190   1.543  0.1432  0.1137 -2.4085
 2905TIP3   OH230205   4.274   3.828   3.315 -0.4390  0.0370  0.2675
 2905TIP3    H130206   4.223   3.843   3.394  0.3775  0.0855  0.8064
 2905TIP3    H230207   4.295   3.735   3.317 -0.2339  0.0809  0.2312
 2906TIP3   OH230208   6.646   5.866   5.811 -0.1460 -0.4789  0.3000
 2906TIP3    H130209   6.599   5.918   5.746 -1.2256 -0.3851  1.1214
 2906TIP3    H230210   6.735   5.861   5.778 -0.9617 -1.6352 -1.9071
 2907TIP3   OH230211   5.193   3.466   6.123 -0.0128  0.4965 -0.5995
 2907TIP3    H130212   5.261   3.405   6.153 -0.7290  0.4727  1.1171
 2907TIP3    H230213   5.112   3.428   6.157 -0.6053  1.7639 -0.5589
 2908TIP3   OH230214   5.166   6.001   0.651 -0.1075 -0.4215  0.1870
 2908TIP3    H130215   5.183   6.021   0.743  0.6956 -1.8137  0.3732
 2908TIP3    H230216   5.122   6.079   0.617 -2.0723 -0.5846  2.1892
 2909TIP3   OH230217   3.186   6.158   3.131  0.1857 -0.7056  0.1274
 2909TIP3    H130218   3.187   6.250   3.157 -0.0821 -0.5733 -0.3216
 2909TIP3    H230219   3.220   6.111   3.207 -0.2800 -0.2950  0.5930
 2910TIP3   OH230220   3.455   4.185   4.665  0.4120 -0.5110 -0.3643
 2910TIP3    H130221   3.504   4.110   4.700  1.1188 -0.8310 -1.8947
 2910TIP3    H230222   3.502   4.262   4.697  2.4254 -0.8124 -2.2876
 2911TIP3   OH230223   5.602   2.826   0.384 -0.3174  0.0985 -0.5620
 2911TIP3    H130224   5.511   2.795   0.390  0.2841 -1.5534  0.4644
 2911TIP3    H230225   5.649   2.756   0.339 -0.0277  2.1884 -3.8795
 2912TIP3   OH230226   3.679   3.188   4.086 -0.3699  0.1464  0.8755
 2912TIP3    H130227   3.768   3.178   4.118  0.2822  0.1783 -0.7836
 2912TIP3    H230228   3.664   3.283   4.084  0.1518  0.2291 -0.2398
 2913TIP3   OH230229   6.371   0.384  16.206  0.0146  0.2764 -0.3645
 2913TIP3    H130230   6.372   0.288  16.203  1.2788  0.2205  0.5894
 2913TIP3    H230231   6.459   0.409  16.178  0.0117  1.1013  0.3206
 2914TIP3   OH230232   0.594   3.512  12.976  0.1450  0.3925 -0.8384
 2914TIP3    H130233   0.511   3.495  13.021  0.3612 -1.4890 -1.1046
 2914TIP3    H230234   0.568   3.562  12.899 -0.7993 -0.4795 -1.1116
 2915TIP3   OH230235   0.452   2.666  10.892  0.4035  0.2350  0.2870
 2915TIP3    H130236   0.390   2.714  10.838  0.9651 -0.4667 -1.0497
 2915TIP3    H230237   0.529   2.655  10.836 -0.0303 -3.0307  0.1115
 2916TIP3   OH230238   1.901   4.112   4.772 -0.0533 -0.2353 -0.6811
 2916TIP3    H130239   1.920   4.075   4.859 -1.8447  0.3885  0.0148
 2916TIP3    H230240   1.943   4.198   4.774  1.4536 -0.9272 -1.1418
 2917TIP3   OH230241   1.386   2.768   3.322  0.6721 -0.0227  0.3093
 2917TIP3    H130242   1.359   2.808   3.404  2.0502  1.5385  0.0768
 2917TIP3    H230243   1.394   2.675   3.341 -0.5676  0.0923  1.4911
 2918TIP3   OH230244   6.439   2.988  17.263  0.4412  0.1653 -0.2643
 2918TIP3    H130245   6.487   3.071  17.258 -1.1042  1.1760  0.8243
 2918TIP3    H230246   6.474   2.936  17.191  1.9905  1.4609 -0.5115
 2919TIP3   OH230247   0.621   3.362  15.002 -0.2872 -0.5304  0.0169
 2919TIP3    H130248   0.550   3.337  15.061  0.3961 -0.0817  1.0632
 2919TIP3    H230249   0.692   3.301  15.023  0.2137  0.0994  0.1853
 2920TIP3   OH230250   6.520   2.777  15.139  0.0283  0.1767 -0.6412
 2920TIP3    H130251   6.541   2.858  15.186 -0.5244  0.5205 -0.9776
 2920TIP3    H230252   6.430   2.757  15.163  1.0244 -1.9594  1.7495
 2921TIP3   OH230253   2.673   6.431  16.724 -0.1980  0.3135 -0.6728
 2921TIP3    H130254   2.581   6.407  16.713 -0.9961  3.2445 -1.1858
 2921TIP3    H230255   2.705   6.441  16.634  0.1624  0.8187 -0.4899
 2922TIP3   OH230256   2.770   0.404  17.092  0.1842 -0.1722 -0.2681
 2922TIP3    H130257   2.765   0.436  17.002  0.5786 -2.9958 -1.3926
 2922TIP3    H230258   2.682   0.419  17.127 -0.6044 -0.8928 -1.8362
 2923TIP3   OH230259   1.681   5.217   4.522  0.0393 -0.5727  0.4123
 2923TIP3    H130260   1.614   5.150   4.532 -0.8924  0.4280  1.1743
 2923TIP3    H230261   1.764   5.169   4.526 -0.5991 -1.7047  0.5623
 2924TIP3   OH230262   1.075   6.657   5.621 -0.5768 -0.2131  0.2419
 2924TIP3    H130263   0.994   6.667   5.671 -0.9508 -0.6087 -0.2806
 2924TIP3    H230264   1.139   6.627   5.686 -0.5840  1.0648  0.8698
 2925TIP3   OH230265   5.692   5.725  13.329 -0.0188  0.3855  0.1699
 2925TIP3    H130266   5.730   5.674  13.257 -0.0552 -0.6466  0.8476
 2925TIP3    H230267   5.633   5.786  13.287 -0.0088 -0.1709 -0.6830
 2926TIP3   OH230268   6.312   1.402   3.166 -0.7966 -0.4615 -0.4409
 2926TIP3    H130269   6.403   1.387   3.141 -0.5024  0.5504 -0.0305
 2926TIP3    H230270   6.308   1.380   3.259 -1.0982 -1.0127 -0.5821
 2927TIP3   OH230271   4.536   6.555  12.722  0.3762  0.6014  0.1680
 2927TIP3    H130272   4.563   6.608  12.647  0.6621  1.0509  0.5753
 2927TIP3    H230273   4.580   6.471  12.709  0.0894  0.5316 -0.3770
 2928TIP3   OH230274   3.011   2.451  13.473 -0.0925 -0.5063  0.3465
 2928TIP3    H130275   3.011   2.509  13.550 -2.3332  0.4563 -0.3250
 2928TIP3    H230276   2.960   2.375  13.501  1.0044 -1.2254  0.4946
 2929TIP3   OH230277   6.439   4.811   4.994  0.1807  0.7453 -0.5310
 2929TIP3    H130278   6.387   4.859   4.930 -1.1542  0.0545 -0.0006
 2929TIP3    H230279   6.376   4.754   5.039  1.5188 -0.7170 -0.4108
 2930TIP3   OH230280   3.949   5.631   1.934  0.3396 -0.5613  0.0831
 2930TIP3    H130281   3.915   5.721   1.938 -1.3387 -1.2142  2.1233
 2930TIP3    H230282   4.042   5.643   1.913 -0.2427  1.4950 -1.8169
 2931TIP3   OH230283   5.614   0.570  11.332  0.1426 -0.2622 -0.2457
 2931TIP3    H130284   5.615   0.664  11.318 -1.2450 -0.1044  0.5445
 2931TIP3    H230285   5.569   0.558  11.415  0.7373 -1.6070 -0.0780
 2932TIP3   OH230286   0.705   3.830  15.517  0.4167 -0.1353 -0.1911
 2932TIP3    H130287   0.796   3.838  15.544  0.1389 -2.3754  1.7309
 2932TIP3    H230288   0.709   3.809  15.424  1.9564 -1.3105  0.1022
 2933TIP3   OH230289   1.334   5.823  15.448  0.1224 -0.3664 -0.2724
 2933TIP3    H130290   1.326   5.849  15.357  0.3659 -0.0729 -0.2136
 2933TIP3    H230291   1.270   5.753  15.459 -1.2680  0.8626 -0.1842
 2934TIP3   OH230292   0.362   2.870   4.528  0.0708  0.1696  0.3961
 2934TIP3    H130293   0.362   2.868   4.432 -1.1649  0.9149  0.3590
 2934TIP3    H230294   0.375   2.779   4.554  1.2639  0.0613 -0.4495
 2935TIP3   OH230295   0.995   1.050  14.760 -0.5618  0.2360 -0.1535
 2935TIP3    H130296   1.086   1.073  14.744 -0.0679  0.1264  2.1340
 2935TIP3    H230297   0.958   1.126  14.805 -2.1743  1.0076 -2.5267
 2936TIP3   OH230298   2.432   3.864   3.732  0.2524 -0.6431 -0.0083
 2936TIP3    H130299   2.513   3.860   3.784  0.5679 -1.0023 -0.5205
 2936TIP3    H230300   2.372   3.916   3.786  0.7544 -0.5448  0.4699
 2937TIP3   OH230301   2.605   0.667  13.864 -0.0456 -0.2094  0.3596
 2937TIP3    H130302   2.648   0.665  13.949 -1.4639  0.2454  1.1284
 2937TIP3    H230303   2.541   0.738  13.871  1.2778  1.3337 -1.8574
 2938TIP3   OH230304   6.010   0.097  15.276  0.2656 -0.5072  0.3021
 2938TIP3    H130305   5.933   0.141  15.313 -0.1004  0.6384 -1.6615
 2938TIP3    H230306   6.001   0.110  15.181  2.7249 -0.6033  0.0053
 2939TIP3   OH230307   3.758   3.598   0.516 -0.2257 -0.1288 -0.2796
 2939TIP3    H130308   3.704   3.658   0.465 -0.8361  2.2079  2.7665
 2939TIP3    H230309   3.695   3.540   0.558 -0.1870  0.6689  0.9470
 2940TIP3   OH230310   2.941   6.407  16.646  0.4394 -0.2070 -0.0591
 2940TIP3    H130311   2.981   6.488  16.614  1.9382 -0.3507  1.3025
 2940TIP3    H230312   2.852   6.408  16.610  0.7723  1.4992 -0.9517
 2941TIP3   OH230313   2.487   1.295  15.603 -0.2629  0.0403  0.2492
 2941TIP3    H130314   2.433   1.348  15.660 -0.6872 -0.7319  0.5828
 2941TIP3    H230315   2.571   1.340  15.600 -0.7404  0.9543  0.1706
 2942TIP3   OH230316   1.497   5.833  17.245  0.4230 -0.6350 -0.1858
 2942TIP3    H130317   1.589   5.841  17.270  1.0401  1.9884 -2.6944
 2942TIP3    H230318   1.498   5.826  17.149 -1.9742 -2.5206 -0.1883
 2943TIP3   OH230319   6.115   3.378  13.410  0.1057  0.0538 -0.3212
 2943TIP3    H130320   6.079   3.463  13.435  0.9552 -0.0620  1.4649
 2943TIP3    H230321   6.198   3.398  13.368  0.5462  0.1157  0.5529
 2944TIP3   OH230322   3.688   6.597   5.367  0.8457  0.1160  0.6025
 2944TIP3    H130323   3.634   6.532   5.412 -0.5803  0.9586  0.1873
 2944TIP3    H230324   3.753   6.546   5.319  0.1744 -0.9570  0.8010
 2945TIP3   OH230325   4.248   1.411   2.220 -0.0821 -0.0295  0.1329
 2945TIP3    H130326   4.156   1.423   2.244 -0.0902 -0.2040  0.1861
 2945TIP3    H230327   4.285   1.357   2.290  0.5658  1.7347  1.2318
 2946TIP3   OH230328   6.718   2.952   0.048  0.3031  0.4428 -0.0152
 2946TIP3    H130329   6.801   2.969   0.093  1.8404 -0.0468 -2.4538
 2946TIP3    H230330   6.690   3.037   0.017 -0.0099  0.5798  0.6316
 2947TIP3   OH230331   0.422   2.992   3.625  0.1370 -0.0245 -0.0774
 2947TIP3    H130332   0.347   2.964   3.677 -0.7010  1.1360 -0.6138
 2947TIP3    H230333   0.409   2.950   3.540 -0.4429  0.9458 -0.4793
 2948TIP3   OH230334   3.528   3.707   6.400 -0.3218 -0.3798 -0.2801
 2948TIP3    H130335   3.481   3.626   6.382 -0.7304 -0.2942  0.3700
 2948TIP3    H230336   3.618   3.679   6.418 -0.4195 -0.6715 -0.2461
 2949TIP3   OH230337   4.181   2.629  12.389  0.8649 -0.1429  0.0490
 2949TIP3    H130338   4.203   2.569  12.460  0.4594  1.2953  1.4502
 2949TIP3    H230339   4.118   2.691  12.427 -0.7812 -0.3653 -2.0578
 2950TIP3   OH230340   0.518   3.914  16.687 -0.3190 -0.4604  0.8292
 2950TIP3    H130341   0.523   3.867  16.604  1.4282 -0.7394  1.0401
 2950TIP3    H230342   0.426   3.940  16.695 -0.3770  0.4546 -1.6760
 2951TIP3   OH230343   4.394   4.202  16.825  0.2935 -0.1490 -0.4596
 2951TIP3    H130344   4.408   4.210  16.919  0.6846  2.9421 -0.6868
 2951TIP3    H230345   4.479   4.219  16.786 -0.1950  0.2921 -1.3880
 2952TIP3   OH230346   5.455   3.222  17.359 -0.2966  0.2315 -0.4748
 2952TIP3    H130347   5.532   3.236  17.413 -0.3725  0.4311 -0.4164
 2952TIP3    H230348   5.420   3.310  17.344 -1.8353  0.0094  1.4376
 2953TIP3   OH230349   1.182   2.723  17.410  0.2255 -0.6240  0.2353
 2953TIP3    H130350   1.193   2.629  17.394 -0.6718 -0.5337 -1.1037
 2953TIP3    H230351   1.224   2.765  17.335  1.4662  0.1050  1.3043
 2954TIP3   OH230352   1.928   1.279  14.380 -0.4188 -0.1616  0.3699
 2954TIP3    H130353   1.978   1.358  14.400 -3.0555  1.5940  0.4769
 2954TIP3    H230354   1.910   1.240  14.466 -0.2867 -0.1021  0.4251
 2955TIP3   OH230355   5.911   1.771   2.158 -0.2128 -0.2322  0.9259
 2955TIP3    H130356   5.995   1.816   2.171 -0.4126  0.5178 -0.2728
 2955TIP3    H230357   5.927   1.714   2.083 -0.7304 -0.2076  0.7986
 2956TIP3   OH230358   5.108   6.369   5.334  0.2616  0.3539 -0.2938
 2956TIP3    H130359   5.078   6.421   5.409 -0.6573  0.6289 -0.8369
 2956TIP3    H230360   5.039   6.303   5.321  0.8129 -0.2171 -0.3885
 2957TIP3   OH230361   6.342   0.363  15.541 -0.4465  0.0331 -0.3999
 2957TIP3    H130362   6.269   0.332  15.488 -0.0710 -0.0878 -0.8485
 2957TIP3    H230363   6.303   0.429  15.599 -1.3942 -1.7150  1.0437
 2958TIP3   OH230364   2.211   6.565  13.543  0.9111 -0.4088 -0.7529
 2958TIP3    H130365   2.305   6.546  13.553  0.7658 -0.9536 -0.3677
 2958TIP3    H230366   2.171   6.479  13.531  0.1824 -0.4533  1.5060
 2959TIP3   OH230367   5.732   4.006   4.666 -0.5032  0.8235 -0.4903
 2959TIP3    H130368   5.732   3.967   4.578  2.9420 -1.7045  0.4250
 2959TIP3    H230369   5.809   4.063   4.667 -1.1172  1.6639  0.5917
 2960TIP3   OH230370   5.489   0.569  16.176 -0.1772 -0.1374 -0.0621
 2960TIP3    H130371   5.432   0.526  16.112  0.5840 -0.4479 -0.5453
 2960TIP3    H230372   5.523   0.498  16.231 -1.6611  0.2315  1.4110
 2961TIP3   OH230373   1.587   6.083  11.740  0.7514  0.8796  0.2588
 2961TIP3    H130374   1.675   6.112  11.767  0.9436  0.1097  0.4773
 2961TIP3    H230375   1.551   6.158  11.693  2.4220  0.4058 -1.9165
 2962TIP3   OH230376   6.172   3.931   5.771 -0.0083 -0.5782  0.2563
 2962TIP3    H130377   6.180   3.899   5.681 -1.4728  0.1376 -0.1575
 2962TIP3    H230378   6.167   3.852   5.824 -1.6218 -1.0798 -0.5598
 2963TIP3   OH230379   3.222   4.697  17.467  0.1622  0.0665 -0.0884
 2963TIP3    H130380   3.304   4.724  17.509  0.0786  2.1138 -1.1727
 2963TIP3    H230381   3.158   4.698  17.538  0.8441 -0.6081  0.5679
 2964TIP3   OH230382   4.766   2.811  15.505  0.2534 -0.2890 -0.1346
 2964TIP3    H130383   4.723   2.889  15.469 -0.1715 -0.9766 -1.1667
 2964TIP3    H230384   4.780   2.832  15.597  0.2511  1.0540 -0.4136
 2965TIP3   OH230385   4.434   5.841  17.429 -0.3870 -0.2822  0.3724
 2965TIP3    H130386   4.422   5.864  17.337 -3.2017 -0.4052  0.6234
 2965TIP3    H230387   4.389   5.911  17.477 -2.9633 -2.4832  1.4077
 2966TIP3   OH230388   6.654   4.571  15.981 -0.4013 -0.5066 -0.3721
 2966TIP3    H130389   6.627   4.511  16.051 -1.3854  1.0351  0.6282
 2966TIP3    H230390   6.597   4.647  15.991  1.4670  1.0655 -0.9076
 2967TIP3   OH230391   3.330   5.457  16.464  0.1725 -0.3186 -0.0753
 2967TIP3    H130392   3.416   5.499  16.470  1.5552 -2.9020 -0.2078
 2967TIP3    H230393   3.333   5.387  16.529 -2.3671  0.2734  0.8015
 2968TIP3   OH230394   2.581   0.459   3.783  0.0490 -0.1169  0.3886
 2968TIP3    H130395   2.550   0.489   3.868  0.1634  0.9733  0.0700
 2968TIP3    H230396   2.580   0.364   3.788 -0.6564 -0.0703  1.3514
 2969TIP3   OH230397   0.924   0.092  17.451  0.0013 -0.0112 -1.0944
 2969TIP3    H130398   1.000   0.147  17.469  0.5983 -0.6587 -1.5878
 2969TIP3    H230399   0.952   0.004  17.475 -1.6267  0.1193  1.7005
 2970TIP3   OH230400   3.461   5.177  14.088  0.8183  0.1349 -0.5134
 2970TIP3    H130401   3.532   5.229  14.052  2.3738 -2.0641 -0.7900
 2970TIP3    H230402   3.385   5.201  14.035  1.8012  1.0908 -1.5373
 2971TIP3   OH230403   4.247   0.406  16.035  0.1617  0.0682 -0.0775
 2971TIP3    H130404   4.190   0.435  15.964 -0.5001  1.5428  1.0168
 2971TIP3    H230405   4.335   0.431  16.006 -0.2585  2.1376  0.2699
 2972TIP3   OH230406   6.547   2.659   2.814 -0.4569 -0.7477  0.0335
 2972TIP3    H130407   6.589   2.698   2.737 -1.4024 -1.4876 -0.8777
 2972TIP3    H230408   6.460   2.697   2.817 -0.4970 -0.8703  0.6289
 2973TIP3   OH230409   4.822   0.722   4.562  0.3772  0.0173  0.3864
 2973TIP3    H130410   4.777   0.805   4.572  0.3993 -0.0562  1.1116
 2973TIP3    H230411   4.912   0.747   4.538 -0.4964  0.1558 -3.4202
 2974TIP3   OH230412   4.493   1.142  11.075 -0.3022  0.3618  0.0019
 2974TIP3    H130413   4.517   1.221  11.027  1.2843  0.0523  0.2101
 2974TIP3    H230414   4.539   1.071  11.030 -0.0670 -0.1482  0.9954
 2975TIP3   OH230415   3.966   2.998  13.895  0.0339 -0.0964 -0.4488
 2975TIP3    H130416   3.954   3.093  13.894 -0.4080 -0.1425 -1.4171
 2975TIP3    H230417   3.910   2.967  13.823  1.2221 -0.9437 -1.0367
 2976TIP3   OH230418   1.793   0.005  15.571  0.9524 -0.6884 -0.7198
 2976TIP3    H130419   1.738  -0.066  15.537 -0.8551  0.4872 -0.4165
 2976TIP3    H230420   1.774   0.079  15.513  2.0805 -0.1923 -0.4753
 2977TIP3   OH230421   4.743   3.529   0.204  0.0278  0.4064  0.1775
 2977TIP3    H130422   4.769   3.438   0.217  0.3741  0.6669  1.4319
 2977TIP3    H230423   4.825   3.578   0.201 -0.2109  1.0213  2.4618
 2978TIP3   OH230424   1.219   5.917  13.943 -0.0660  0.0380 -0.6010
 2978TIP3    H130425   1.198   5.989  13.885 -0.6395  1.0893  0.8479
 2978TIP3    H230426   1.294   5.948  13.994  0.4182 -0.8447 -0.7532
 2979TIP3   OH230427   3.875   5.959   2.049  0.3003 -0.1726 -0.3421
 2979TIP3    H130428   3.852   5.907   1.972  1.3513 -0.8974 -0.1913
 2979TIP3    H230429   3.808   5.935   2.114 -0.8464  0.7623 -1.1285
 2980TIP3   OH230430   0.148   1.224   1.485  0.1527  0.0319  0.1158
 2980TIP3    H130431   0.106   1.202   1.568 -0.3490  1.5979  0.3193
 2980TIP3    H230432   0.240   1.235   1.507 -0.0045  0.6087  0.5182
 2981TIP3   OH230433   0.852   6.616   4.648  0.0204  0.0727 -0.0661
 2981TIP3    H130434   0.821   6.530   4.678 -0.3684  0.2538  0.0503
 2981TIP3    H230435   0.834   6.617   4.554 -0.0074  0.0450 -0.0607
 2982TIP3   OH230436   3.068   0.227   1.617  0.3185 -0.3469 -0.1364
 2982TIP3    H130437   3.047   0.223   1.524  0.8736 -0.9757 -0.2402
 2982TIP3    H230438   3.006   0.167   1.659  0.1019 -0.1021 -0.1019
 2983TIP3   OH230439   5.119   1.588   3.164  0.4220  0.1818 -0.2830
 2983TIP3    H130440   5.154   1.501   3.145  0.0826  0.1712 -0.8885
 2983TIP3    H230441   5.139   1.603   3.257 -1.3818 -1.4331  0.4325
 2984TIP3   OH230442   4.427   4.697   4.146 -0.1124 -0.2907 -0.9614
 2984TIP3    H130443   4.393   4.726   4.230 -0.1490 -2.3715 -0.2045
 2984TIP3    H230444   4.377   4.748   4.081 -1.9448 -0.4911  0.2113
 2985TIP3   OH230445   6.012   3.268  16.806  0.4030 -0.1408 -0.3550
 2985TIP3    H130446   6.020   3.351  16.759  1.0298  0.6088  1.0230
 2985TIP3    H230447   5.930   3.230  16.775  0.4190  0.6902 -1.4609
 2986TIP3   OH230448   4.099   4.584   4.336 -0.1812 -0.2535 -0.5139
 2986TIP3    H130449   4.110   4.678   4.351 -0.5045 -0.2510 -0.2901
 2986TIP3    H230450   4.057   4.579   4.250 -2.4093 -0.0767  0.4910
 2987TIP3   OH230451   5.433   1.149  15.563 -0.4753  0.4536 -0.6583
 2987TIP3    H130452   5.519   1.126  15.529 -1.0139 -0.0769 -1.7308
 2987TIP3    H230453   5.430   1.107  15.650  0.3602  0.5363 -0.5780
 2988TIP3   OH230454   6.152   4.024  14.718 -0.0962 -0.2766  0.4741
 2988TIP3    H130455   6.210   4.100  14.727 -1.5513  1.1171 -1.1988
 2988TIP3    H230456   6.122   4.006  14.807  0.9671  0.5176  1.0207
 2989TIP3   OH230457   6.174   6.620   5.013  0.6505  0.3795 -0.4596
 2989TIP3    H130458   6.261   6.642   5.047  0.7538 -0.4975 -0.1301
 2989TIP3    H230459   6.192   6.573   4.932  0.4631  0.5938 -0.6269
 2990TIP3   OH230460   3.258   3.963   4.661  0.0073  0.4503  0.2836
 2990TIP3    H130461   3.168   3.962   4.628 -0.4739  2.4642  1.4117
 2990TIP3    H230462   3.301   4.033   4.612  2.3118 -3.0309 -3.2746
 2991TIP3   OH230463   6.405   5.593   5.092 -0.0752 -0.2462 -0.1723
 2991TIP3    H130464   6.371   5.664   5.147  0.7023 -1.3700  1.8771
 2991TIP3    H230465   6.489   5.626   5.060  1.3318 -0.8928  2.5098
 2992TIP3   OH230466   3.051   3.404   0.488  0.0639  0.4117  0.2050
 2992TIP3    H130467   3.021   3.367   0.405 -1.2269  0.7705  0.4865
 2992TIP3    H230468   3.121   3.346   0.517 -0.7372 -0.7913 -0.2181
 2993TIP3   OH230469   3.398   5.150  16.252 -0.3943 -0.2724  0.3765
 2993TIP3    H130470   3.471   5.208  16.229 -1.2528  1.4246  1.7156
 2993TIP3    H230471   3.403   5.079  16.187  0.0615  1.8043 -2.0277
 2994TIP3   OH230472   0.403   2.484  17.104  0.4156  0.3022  0.0607
 2994TIP3    H130473   0.324   2.538  17.111  1.0250  1.3748 -0.9291
 2994TIP3    H230474   0.471   2.545  17.075  1.2697 -0.8776 -0.4935
 2995TIP3   OH230475   2.059   2.112  17.177  0.2275  0.2870 -0.2172
 2995TIP3    H130476   2.016   2.186  17.219 -1.3089 -0.1524 -0.9440
 2995TIP3    H230477   2.084   2.144  17.090  0.4230  0.2278 -0.1842
 2996TIP3   OH230478   0.509   2.383   6.683  0.4720 -0.3560 -0.5335
 2996TIP3    H130479   0.570   2.331   6.630 -0.5928 -0.2378 -1.9280
 2996TIP3    H230480   0.480   2.324   6.752  0.3831 -1.1523 -1.2464
 2997TIP3   OH230481   1.031   0.382  14.923  0.4278  0.1619 -0.0629
 2997TIP3    H130482   1.102   0.317  14.926  0.6963  0.4780  0.5723
 2997TIP3    H230483   1.075   0.465  14.908  0.0105  0.1087 -1.8667
 2998TIP3   OH230484   1.128   0.372   3.801 -0.0463  0.5552  0.3539
 2998TIP3    H130485   1.182   0.339   3.730  1.4946  1.1369  1.2059
 2998TIP3    H230486   1.061   0.304   3.814 -0.6313  0.6265 -1.8789
 2999TIP3   OH230487   1.808   3.031   2.635 -0.8385  0.4798 -0.0619
 2999TIP3    H130488   1.765   3.066   2.713 -0.7336 -1.2631  0.8325
 2999TIP3    H230489   1.744   3.040   2.566 -1.0621  1.7565  0.2939
 3000TIP3   OH230490   0.010   4.464  14.845 -0.1025 -0.0293  0.0509
 3000TIP3    H130491  -0.048   4.533  14.814  2.1511  1.9448 -0.0023
 3000TIP3    H230492   0.085   4.509  14.883  0.3473 -2.4418  2.3534
 3001TIP3   OH230493   1.997   5.783  13.057  0.0875  0.1330 -0.0901
 3001TIP3    H130494   2.024   5.801  12.967  0.3420  1.1517  0.1815
 3001TIP3    H230495   2.063   5.722  13.090  1.8663  2.1954  0.4071
 3002TIP3   OH230496   0.775   4.110  13.125 -0.3951  0.1464  0.0158
 3002TIP3    H130497   0.826   4.052  13.068  0.9180  0.7583  0.5107
 3002TIP3    H230498   0.688   4.070  13.129  0.2195 -1.3083 -0.3502
 3003TIP3   OH230499   1.164   0.308  10.933  0.6525 -0.0267 -0.3626
 3003TIP3    H130500   1.096   0.241  10.923 -1.0847  1.7254 -0.8816
 3003TIP3    H230501   1.201   0.318  10.845  1.5587 -0.9210 -0.0979
 3004TIP3   OH230502   1.770   5.985  16.825  0.2124  1.1863 -0.4345
 3004TIP3    H130503   1.811   6.047  16.764 -0.1620  3.6997  1.6902
 3004TIP3    H230504   1.808   5.900  16.802  1.4145  2.2934 -2.9433
 3005TIP3   OH230505   5.051   1.599  11.452  0.0945  0.2362 -0.1890
 3005TIP3    H130506   5.123   1.615  11.513  0.8688  0.3695 -1.1279
 3005TIP3    H230507   5.081   1.527  11.397 -0.3298  0.5580 -0.8508
 3006TIP3   OH230508   0.725   5.560   5.708 -0.4001  0.0226 -0.2285
 3006TIP3    H130509   0.671   5.525   5.780 -0.4568 -0.9525 -0.7307
 3006TIP3    H230510   0.800   5.501   5.704 -0.4770 -0.0215 -1.0717
 3007TIP3   OH230511   5.280   0.613   2.741  0.1448 -0.0100 -0.0518
 3007TIP3    H130512   5.369   0.592   2.713 -0.0542 -1.0662  0.0834
 3007TIP3    H230513   5.292   0.649   2.829  0.4169 -0.4185  0.0829
 3008TIP3   OH230514   2.720   5.627  10.969 -0.2467  0.0384  0.7087
 3008TIP3    H130515   2.637   5.670  10.991 -0.4805 -0.9896  1.9752
 3008TIP3    H230516   2.699   5.533  10.972  0.3944 -0.2287 -1.3328
 3009TIP3   OH230517   0.189   5.179  13.525  0.2971 -0.0485  0.1235
 3009TIP3    H130518   0.140   5.170  13.606  1.7797  0.1013  1.0718
 3009TIP3    H230519   0.226   5.092  13.510  0.4092  0.0457 -0.1483
 3010TIP3   OH230520   1.062   3.712   1.406 -0.0796  0.3434 -0.3070
 3010TIP3    H130521   1.076   3.746   1.495 -1.0766 -0.7400  0.2925
 3010TIP3    H230522   0.967   3.721   1.392 -0.1351 -0.7409 -0.7190
 3011TIP3   OH230523   1.141   4.541  15.174 -0.3679 -0.0789 -0.0370
 3011TIP3    H130524   1.225   4.500  15.153  0.3999  0.6029  1.5702
 3011TIP3    H230525   1.115   4.502  15.257 -1.1211  0.4921  0.0074
 3012TIP3   OH230526   1.297   5.172   6.502  0.2044  0.3750 -0.3955
 3012TIP3    H130527   1.341   5.113   6.441  1.3658  0.8237 -0.0202
 3012TIP3    H230528   1.300   5.125   6.586  1.7666  1.2258  0.0620
 3013TIP3   OH230529   6.536   5.400  11.545  0.8531  0.0601 -0.2393
 3013TIP3    H130530   6.504   5.349  11.619  0.1199  1.6333  0.5836
 3013TIP3    H230531   6.564   5.335  11.481 -0.2315 -1.3556  0.6665
 3014TIP3   OH230532   4.177   1.410  13.256  0.8249  0.2799  0.2060
 3014TIP3    H130533   4.240   1.429  13.187 -0.1607  0.1554 -0.7633
 3014TIP3    H230534   4.229   1.372  13.327  1.6245 -1.3957 -1.2170
 3015TIP3   OH230535   6.455   3.124  16.675  0.0340  0.0724  0.1783
 3015TIP3    H130536   6.439   3.038  16.636  0.4147  0.3872 -0.6977
 3015TIP3    H230537   6.388   3.132  16.743  1.0938 -1.6679  1.5418
 3016TIP3   OH230538   5.525   3.461  13.075  0.1082  0.0169 -0.5184
 3016TIP3    H130539   5.474   3.541  13.060  0.0640  0.2554  0.7740
 3016TIP3    H230540   5.601   3.491  13.124  0.0214 -0.7592  0.0962
 3017TIP3   OH230541   4.247   5.591  16.304  0.0836 -0.7855  0.0544
 3017TIP3    H130542   4.273   5.499  16.301 -1.5023 -1.2586 -0.1501
 3017TIP3    H230543   4.193   5.598  16.383 -0.0397 -0.0961 -0.0833
 3018TIP3   OH230544   5.810   4.475  12.232 -0.3995 -0.6540  0.0361
 3018TIP3    H130545   5.768   4.428  12.303 -1.3100 -1.4671 -0.9974
 3018TIP3    H230546   5.738   4.505  12.176  0.2285  0.9988  0.0525
 3019TIP3   OH230547   4.146   6.242   4.207 -0.2286  0.1894  0.0878
 3019TIP3    H130548   4.083   6.297   4.160  1.4221  0.9037 -1.3920
 3019TIP3    H230549   4.195   6.197   4.138  0.7842 -0.4388  1.1869
 3020TIP3   OH230550   2.418   6.325  15.194 -0.2361 -0.3351  0.0460
 3020TIP3    H130551   2.331   6.347  15.228 -0.6677  2.3934 -2.4610
 3020TIP3    H230552   2.477   6.386  15.239 -0.0313 -0.2754 -0.3042
 3021TIP3   OH230553   1.494   6.148   4.700  0.6145 -0.5066 -0.0244
 3021TIP3    H130554   1.502   6.091   4.777 -2.6428 -1.4882 -0.2829
 3021TIP3    H230555   1.480   6.235   4.737 -0.2775 -0.8644  0.5114
 3022TIP3   OH230556   5.972   5.544  12.836 -0.3825 -0.3441  0.1908
 3022TIP3    H130557   6.002   5.573  12.750 -0.0435 -0.5648  0.2349
 3022TIP3    H230558   5.994   5.450  12.839 -0.6412 -0.3990  0.4082
 3023TIP3   OH230559   5.654   1.683   4.519 -0.2519  0.4811  0.6503
 3023TIP3    H130560   5.705   1.650   4.445 -0.4956 -0.2262  0.7824
 3023TIP3    H230561   5.596   1.749   4.481 -2.1576 -1.6118 -0.3057
 3024TIP3   OH230562   5.205   4.179  16.206 -0.4900 -0.1250  0.0658
 3024TIP3    H130563   5.207   4.105  16.144  0.7456 -0.6732  0.7291
 3024TIP3    H230564   5.295   4.187  16.236 -0.6971  1.3882  0.3512
 3025TIP3   OH230565   6.336   2.326  15.040  0.5083  0.0018  0.6364
 3025TIP3    H130566   6.358   2.251  15.095  0.0103 -0.0203  0.8077
 3025TIP3    H230567   6.334   2.400  15.100  1.5709  0.2632  0.3736
 3026TIP3   OH230568   6.105   6.266   1.704  0.0853  0.4048  0.2152
 3026TIP3    H130569   6.025   6.274   1.654 -0.3067 -0.2195  0.7267
 3026TIP3    H230570   6.083   6.300   1.791  0.3260  0.1100  0.3965
 3027TIP3   OH230571   2.309   1.291   3.049  0.0862 -0.0483  0.2237
 3027TIP3    H130572   2.377   1.225   3.033  0.0863 -0.4434  1.7695
 3027TIP3    H230573   2.341   1.369   3.003  1.0328 -0.5598 -0.0140
 3028TIP3   OH230574   0.208   5.102   2.401 -0.0208  0.1189 -0.0882
 3028TIP3    H130575   0.198   5.115   2.495 -0.1200  1.1229 -0.2166
 3028TIP3    H230576   0.120   5.114   2.366 -0.0449 -0.5900 -0.2756
 3029TIP3   OH230577   5.675   0.599   6.626 -0.1730 -0.6478 -0.5444
 3029TIP3    H130578   5.717   0.602   6.540 -0.5136 -0.4347 -0.7081
 3029TIP3    H230579   5.748   0.593   6.688  0.1247  0.1444 -0.8007
 3030TIP3   OH230580   6.509   1.968   5.929  0.5255 -0.1644  0.3028
 3030TIP3    H130581   6.477   1.882   5.954 -0.4787 -0.4254 -1.7068
 3030TIP3    H230582   6.465   2.029   5.989  0.8788 -0.9828  1.4223
 3031TIP3   OH230583   3.927   5.360  15.372 -0.3094  0.0190  0.3877
 3031TIP3    H130584   4.004   5.338  15.318  0.0958  0.1303  0.9123
 3031TIP3    H230585   3.964   5.403  15.449 -0.8086 -0.9849  1.2116
 3032TIP3   OH230586   1.140   2.109  13.399 -0.3865  0.3943  0.8775
 3032TIP3    H130587   1.207   2.132  13.334 -0.7301 -0.1328  0.3243
 3032TIP3    H230588   1.119   2.192  13.442 -0.6894  0.8962 -0.1929
 3033TIP3   OH230589   0.545   5.182   4.195 -0.1027 -0.3574  0.0721
 3033TIP3    H130590   0.595   5.199   4.274 -1.4371  2.5231  0.4246
 3033TIP3    H230591   0.476   5.122   4.222  1.9794 -3.0725 -0.0699
 3034TIP3   OH230592   2.056   5.655   1.358  0.1548  0.2424  0.1563
 3034TIP3    H130593   2.095   5.572   1.329  0.3093  0.9159 -1.6868
 3034TIP3    H230594   1.989   5.628   1.422 -0.9812 -1.4974 -1.6224
 3035TIP3   OH230595   1.473   1.065  16.254  0.0722  0.8118 -0.0886
 3035TIP3    H130596   1.470   1.159  16.237 -1.0636  0.9740  0.8246
 3035TIP3    H230597   1.386   1.044  16.289  0.3503 -0.5517 -0.1391
 3036TIP3   OH230598   5.745   0.004   2.923 -0.0924  0.0043 -0.3846
 3036TIP3    H130599   5.691   0.080   2.900 -0.1494  0.3771  0.8950
 3036TIP3    H230600   5.824   0.015   2.871 -1.5147 -0.9772 -2.9172
 3037TIP3   OH230601   3.145   5.549  11.554  0.1775 -0.2663  0.0618
 3037TIP3    H130602   3.210   5.579  11.491 -0.8561  0.8923 -0.4773
 3037TIP3    H230603   3.169   5.592  11.636 -0.0176  0.3204 -0.1858
 3038TIP3   OH230604   3.562   2.532  14.980 -0.5983 -0.2368 -0.1791
 3038TIP3    H130605   3.613   2.598  15.027 -2.8707  0.4524  1.5222
 3038TIP3    H230606   3.596   2.534  14.890 -0.3062  2.9647 -0.0997
 3039TIP3   OH230607   3.627   1.827   6.025  0.3156 -0.0440 -0.5853
 3039TIP3    H130608   3.590   1.910   5.995 -1.2287 -1.0117 -1.4904
 3039TIP3    H230609   3.598   1.763   5.960  0.6951 -1.4575  0.5869
 3040TIP3   OH230610   6.468   3.597  14.940 -0.2178 -0.5781 -0.7272
 3040TIP3    H130611   6.519   3.675  14.918 -0.8592 -0.5243 -2.1004
 3040TIP3    H230612   6.526   3.545  14.996  1.1227 -0.2388 -1.7526
 3041TIP3   OH230613   5.401   4.489  11.681 -0.3571  0.8529  0.6848
 3041TIP3    H130614   5.354   4.573  11.685  1.9933  2.4620 -1.5850
 3041TIP3    H230615   5.474   4.500  11.742 -0.2465  0.2827  0.6581
 3042TIP3   OH230616   2.280   2.432  10.664 -0.4773 -0.2312  0.2709
 3042TIP3    H130617   2.366   2.425  10.623 -0.3839 -0.5575  0.5198
 3042TIP3    H230618   2.220   2.386  10.605 -0.6787  0.9368 -0.4601
 3043TIP3   OH230619   0.498   6.001   0.106  0.0615 -0.6557  0.0384
 3043TIP3    H130620   0.445   6.008   0.027 -0.2067  1.0577  0.3355
 3043TIP3    H230621   0.582   6.041   0.081  0.9505 -2.5303 -0.1593
 3044TIP3   OH230622   6.724   6.300   2.752 -0.2946 -0.5539  0.2348
 3044TIP3    H130623   6.725   6.267   2.842 -0.3298 -1.0921  0.0418
 3044TIP3    H230624   6.664   6.241   2.706 -1.5466  0.6887  0.2209
 3045TIP3   OH230625   6.317   2.832   4.066  1.1970  0.6226  0.1077
 3045TIP3    H130626   6.393   2.781   4.096  0.6994  0.2544  0.7910
 3045TIP3    H230627   6.247   2.767   4.058  0.2180  1.3283  2.1419
 3046TIP3   OH230628   3.476   5.005  11.158 -0.4699 -0.9873  0.9737
 3046TIP3    H130629   3.463   5.097  11.134  0.1750 -0.8056  1.3067
 3046TIP3    H230630   3.472   4.958  11.074 -0.5459 -0.6326  0.7748
 3047TIP3   OH230631   4.037   6.504  11.411  0.2899 -0.0451 -0.7525
 3047TIP3    H130632   4.036   6.498  11.315 -2.0769 -0.5268 -0.7698
 3047TIP3    H230633   4.067   6.418  11.440  1.9072  0.3953 -1.0214
 3048TIP3   OH230634   5.502   3.758   3.011 -0.3997  0.9139  0.0835
 3048TIP3    H130635   5.470   3.847   3.021  1.6357  1.9432 -1.8183
 3048TIP3    H230636   5.424   3.703   3.023 -1.7467  2.9049  1.0469
 3049TIP3   OH230637   2.446   3.277   2.248 -0.0282 -0.2200  0.2177
 3049TIP3    H130638   2.490   3.195   2.223  1.1856 -0.1610  2.0117
 3049TIP3    H230639   2.511   3.345   2.231 -0.3767  0.1722  0.4625
 3050TIP3   OH230640   0.917   2.847   1.181 -0.0026  0.2604  0.8352
 3050TIP3    H130641   0.879   2.806   1.259  0.1782 -1.4891  0.0684
 3050TIP3    H230642   0.858   2.918   1.160 -0.5469  0.1953  2.0473
 3051TIP3   OH230643   3.385   5.371   1.636 -0.1505  0.4036 -0.0262
 3051TIP3    H130644   3.433   5.445   1.674 -0.2580  0.4591  0.0042
 3051TIP3    H230645   3.293   5.396   1.646 -0.1760  0.5333 -0.5496
 3052TIP3   OH230646   0.806   6.740   0.897  0.1589 -0.0327  0.2667
 3052TIP3    H130647   0.866   6.767   0.967  0.7913 -1.0485  0.1463
 3052TIP3    H230648   0.831   6.649   0.879 -0.0573  0.1791 -1.2109
 3053TIP3   OH230649   6.053   5.712   2.449  0.1402 -1.1031  0.0104
 3053TIP3    H130650   6.112   5.638   2.436 -1.1414 -2.1155 -0.2969
 3053TIP3    H230651   6.093   5.762   2.520  0.9383 -2.1965  0.3608
 3054TIP3   OH230652   3.360   4.204  17.336 -1.0469 -0.3887  0.0386
 3054TIP3    H130653   3.321   4.197  17.249 -1.3931  0.2763  0.1257
 3054TIP3    H230654   3.285   4.209  17.396 -0.8122 -1.6293  0.4540
 3055TIP3   OH230655   4.443   2.735   4.249  0.0792  0.5371 -0.2704
 3055TIP3    H130656   4.361   2.767   4.211  1.1237  1.1451 -2.1283
 3055TIP3    H230657   4.424   2.728   4.343 -2.1659  0.3915 -0.6719
 3056TIP3   OH230658   1.067   3.821  12.666  0.2115 -0.7038  0.3274
 3056TIP3    H130659   0.983   3.847  12.630  0.6501  0.5382  0.1519
 3056TIP3    H230660   1.046   3.755  12.732 -0.9038 -0.3430  0.3429
 3057TIP3   OH230661   3.296   5.522  13.082 -0.0614 -0.1743  0.1264
 3057TIP3    H130662   3.345   5.558  13.156  1.0245  0.2446 -0.7683
 3057TIP3    H230663   3.217   5.576  13.078  0.1128  0.1361  0.6620
 3058TIP3   OH230664   1.746   1.889  16.870  0.0264  0.5284  0.4013
 3058TIP3    H130665   1.734   1.906  16.963 -2.1843 -0.4897  0.3710
 3058TIP3    H230666   1.749   1.976  16.830  1.4114  0.9851  1.4289
 3059TIP3   OH230667   1.881   0.259   2.655 -0.3813  0.6672  0.1000
 3059TIP3    H130668   1.911   0.333   2.603  1.2712  0.0126  0.0786
 3059TIP3    H230669   1.935   0.185   2.626  0.4756  0.2247  2.5654
 3060TIP3   OH230670   6.122   4.099   6.021 -0.1274 -0.2827 -0.1725
 3060TIP3    H130671   6.173   4.179   6.036 -1.1147  0.4308 -0.5177
 3060TIP3    H230672   6.147   4.071   5.933  0.2792 -0.3943 -0.0222
 3061TIP3   OH230673   2.655   0.321   2.191 -0.0675 -0.0579  0.6437
 3061TIP3    H130674   2.726   0.385   2.192 -0.9091  0.8981  0.7834
 3061TIP3    H230675   2.629   0.312   2.282  0.6999 -1.3839  0.7615
 3062TIP3   OH230676   0.814   3.018   2.147  0.1251 -0.5420 -0.0918
 3062TIP3    H130677   0.865   2.957   2.199  0.0602 -0.9338 -0.4822
 3062TIP3    H230678   0.864   3.100   2.149 -0.1123 -0.4118  0.9722
 3063TIP3   OH230679   2.679   4.763  13.696 -0.1742 -0.1623  0.3437
 3063TIP3    H130680   2.746   4.745  13.629  0.5781  0.3304  0.9552
 3063TIP3    H230681   2.700   4.703  13.767 -0.2974  0.0986  0.5998
 3064TIP3   OH230682   6.019   6.690   3.691 -0.0712  0.4599 -0.0104
 3064TIP3    H130683   6.026   6.595   3.681  0.1060  0.4580  0.1371
 3064TIP3    H230684   6.085   6.713   3.756 -1.0697  0.4988  1.0247
 3065TIP3   OH230685   2.801   2.217   1.866 -0.6257 -0.2030 -0.0002
 3065TIP3    H130686   2.826   2.137   1.913  2.6918  1.4755  1.4192
 3065TIP3    H230687   2.727   2.252   1.916 -0.6758 -1.2368  0.6892
 3066TIP3   OH230688   5.144   4.904  15.975  0.1705 -0.2056  0.7541
 3066TIP3    H130689   5.215   4.840  15.983 -0.1444 -0.8392 -1.0551
 3066TIP3    H230690   5.090   4.871  15.904 -1.0193  1.1561  0.9809
 3067TIP3   OH230691   3.544   2.111   1.349  0.0781  0.6191 -0.1797
 3067TIP3    H130692   3.541   2.142   1.439  0.6193 -0.3526  0.1843
 3067TIP3    H230693   3.605   2.170   1.305  1.8668 -0.4694  0.7404
 3068TIP3   OH230694   3.045   1.326  11.641 -0.4182  0.5370 -0.0505
 3068TIP3    H130695   2.999   1.270  11.578  0.4912  2.3782 -2.4741
 3068TIP3    H230696   3.081   1.264  11.705 -0.3006 -1.5866 -2.0316
 3069TIP3   OH230697   3.285   2.051   0.641 -0.0721  0.3090 -0.3851
 3069TIP3    H130698   3.280   2.134   0.689  2.5018  0.4478 -0.2288
 3069TIP3    H230699   3.365   2.058   0.589 -0.0189 -1.9149 -0.6897
 3070TIP3   OH230700   2.355   2.677  11.562  0.2841 -0.0689 -0.8986
 3070TIP3    H130701   2.352   2.643  11.473  1.1949  1.1763 -1.4303
 3070TIP3    H230702   2.273   2.726  11.572  0.2132 -0.1529 -1.0752
 3071TIP3   OH230703   2.155   3.685  12.998 -0.1551  0.1149 -0.5398
 3071TIP3    H130704   2.108   3.644  12.925  1.8486 -1.9046 -0.8121
 3071TIP3    H230705   2.216   3.746  12.956  0.3855 -0.3990 -0.5136
 3072TIP3   OH230706   2.893   5.121  13.504 -0.4036 -0.9944 -0.1688
 3072TIP3    H130707   2.800   5.108  13.484 -0.5423  0.3596 -0.5273
 3072TIP3    H230708   2.938   5.109  13.421 -0.4403 -0.1787 -0.3186
 3073TIP3   OH230709   4.430   2.751  14.075 -0.0355  0.0299 -0.1241
 3073TIP3    H130710   4.370   2.708  14.135  0.5294 -0.1623  0.3173
 3073TIP3    H230711   4.378   2.819  14.032 -0.7665 -0.6785 -0.3571
 3074TIP3   OH230712   5.931   4.053   3.047 -0.0055 -0.3677 -0.4609
 3074TIP3    H130713   5.964   3.969   3.080 -0.2568 -0.7104 -1.0704
 3074TIP3    H230714   5.850   4.067   3.096  1.0052  0.4775  1.0400
 3075TIP3   OH230715   1.184   6.561  15.781 -0.5255 -0.0552  0.3920
 3075TIP3    H130716   1.220   6.524  15.862 -0.9122 -2.9803 -0.6489
 3075TIP3    H230717   1.232   6.518  15.711 -2.7610 -0.4985 -0.9665
 3076TIP3   OH230718   5.726   4.395   0.234 -1.0679 -0.0807  0.2519
 3076TIP3    H130719   5.729   4.403   0.139  0.3005  0.2945  0.3063
 3076TIP3    H230720   5.772   4.314   0.253 -0.3057  0.4366  0.6536
 3077TIP3   OH230721   0.016   6.187  10.966  0.6865 -0.4469 -0.2315
 3077TIP3    H130722  -0.030   6.111  11.002 -1.6573 -0.4604 -2.8705
 3077TIP3    H230723  -0.046   6.259  10.977  1.3227  0.2555 -1.0645
 3078TIP3   OH230724   0.376   5.753   4.389  0.2219  0.1344 -0.1812
 3078TIP3    H130725   0.320   5.827   4.412  0.8787  0.9509 -1.1396
 3078TIP3    H230726   0.354   5.734   4.297  0.4888 -0.4807 -0.1252
 3079TIP3   OH230727   0.980   3.493  11.021 -0.0053 -0.3603  0.1629
 3079TIP3    H130728   0.975   3.588  11.011  2.4858 -0.2246 -0.4967
 3079TIP3    H230729   0.916   3.459  10.959 -1.0494  0.8847  0.5237
 3080TIP3   OH230730   0.443   4.992  12.468  0.3373  0.6069 -0.7644
 3080TIP3    H130731   0.366   5.050  12.463 -0.3442 -0.0138  1.2976
 3080TIP3    H230732   0.498   5.032  12.536 -0.7248 -1.6955  1.6108
 3081TIP3   OH230733   2.959   4.272  17.083 -0.4071 -0.1426  0.8363
 3081TIP3    H130734   2.996   4.202  17.137  1.9378  1.1391  1.0371
 3081TIP3    H230735   3.019   4.277  17.008 -1.1143  0.9965  0.3323
 3082TIP3   OH230736   1.911   0.279  16.820 -0.2616  0.2592  0.2652
 3082TIP3    H130737   1.902   0.184  16.827 -0.0470  0.1406 -0.7877
 3082TIP3    H230738   1.823   0.311  16.800 -0.4065  0.3329  0.9901
 3083TIP3   OH230739   1.665   0.833   3.765  0.0481  0.4471 -0.5163
 3083TIP3    H130740   1.590   0.855   3.820  0.2757  2.2942 -0.8909
 3083TIP3    H230741   1.730   0.901   3.784  1.8075 -1.3124  0.0697
 3084TIP3   OH230742   6.476   6.302   2.428  0.0308 -0.2160 -0.0484
 3084TIP3    H130743   6.477   6.232   2.493  0.8004  0.4530  0.6824
 3084TIP3    H230744   6.524   6.374   2.469 -2.9479  1.7498  0.3666
 3085TIP3   OH230745   3.529   4.841  14.777  0.1277 -0.2645  0.2917
 3085TIP3    H130746   3.482   4.828  14.694  1.0630 -0.9355 -0.1502
 3085TIP3    H230747   3.613   4.796  14.765  0.6978  0.4881  1.2392
 3086TIP3   OH230748   2.546   0.214  13.935 -0.0758 -0.6119  0.0812
 3086TIP3    H130749   2.579   0.297  13.899 -0.7716 -0.3838 -0.0438
 3086TIP3    H230750   2.458   0.205  13.898 -0.5457 -0.7109  1.1848
 3087TIP3   OH230751   0.324   4.674  13.460  0.5243  0.2066 -0.2443
 3087TIP3    H130752   0.356   4.606  13.519  0.8153  1.1292  0.6868
 3087TIP3    H230753   0.229   4.665  13.462  0.5112  0.4581  0.6616
 3088TIP3   OH230754   0.313   1.309   5.194 -1.0242  0.2125 -0.0020
 3088TIP3    H130755   0.323   1.248   5.121 -4.4421 -0.4472 -0.1143
 3088TIP3    H230756   0.297   1.252   5.270  1.3662  0.9180  1.1511
 3089TIP3   OH230757   0.459   1.285  11.572  0.2519  0.2089  0.2266
 3089TIP3    H130758   0.442   1.266  11.480  3.8239 -0.6197 -0.4207
 3089TIP3    H230759   0.512   1.211  11.603 -2.2887 -0.4833  3.5782
 3090TIP3   OH230760   2.917   5.467   3.017 -0.4814 -0.8630 -0.6303
 3090TIP3    H130761   2.905   5.424   2.932 -0.6634  0.4117 -1.2816
 3090TIP3    H230762   2.948   5.555   2.994 -0.6051 -0.4810  0.6240
 3091TIP3   OH230763   6.030   6.689  14.842  0.0927 -0.0382 -0.5040
 3091TIP3    H130764   6.066   6.723  14.760  1.0566  0.1806 -0.0012
 3091TIP3    H230765   6.048   6.595  14.838  0.7197  0.0686 -0.2597
 3092TIP3   OH230766   1.589   2.689   0.584  0.2852 -0.0732 -0.4493
 3092TIP3    H130767   1.636   2.686   0.500 -0.4056 -0.9345 -0.8128
 3092TIP3    H230768   1.498   2.704   0.560  0.1827  0.3811  0.1948
 3093TIP3   OH230769   6.477   1.487   2.016  0.1978  0.3757 -0.0536
 3093TIP3    H130770   6.506   1.524   1.933  0.1179  1.2022  0.2774
 3093TIP3    H230771   6.400   1.538   2.041 -0.3792 -0.5173  0.0456
 3094TIP3   OH230772   4.142   3.509   2.759  0.1242  0.5624 -0.1443
 3094TIP3    H130773   4.118   3.579   2.819  0.6665  1.0080 -0.4415
 3094TIP3    H230774   4.064   3.453   2.755  0.2922  0.1635  1.4595
 3095TIP3   OH230775   4.332   4.032   3.099  0.3450  0.1318 -0.6083
 3095TIP3    H130776   4.318   3.977   3.176 -0.3962  0.3224 -0.5982
 3095TIP3    H230777   4.403   4.092   3.125  0.3124 -0.0087 -0.1833
 3096TIP3   OH230778   1.323   3.019  15.093  0.0080 -0.4464  0.0634
 3096TIP3    H130779   1.322   2.923  15.092 -1.1929 -0.5148  2.2073
 3096TIP3    H230780   1.331   3.043  15.001 -0.2957 -2.6103 -0.5952
 3097TIP3   OH230781   6.574   0.879   4.528  0.0689  0.2303 -0.0803
 3097TIP3    H130782   6.484   0.852   4.545  0.2241 -0.6155 -0.5541
 3097TIP3    H230783   6.586   0.865   4.434  1.2526 -1.4031  0.2715
 3098TIP3   OH230784   5.533   5.345  15.546  0.4791  0.3865  0.0863
 3098TIP3    H130785   5.484   5.358  15.464 -1.0671  0.6866  1.0102
 3098TIP3    H230786   5.608   5.292  15.520 -1.2519 -1.6619 -1.1817
 3099TIP3   OH230787   6.459   3.354   0.004 -0.4716 -0.1691 -0.7229
 3099TIP3    H130788   6.388   3.360  -0.060 -0.8883 -0.8509 -0.3305
 3099TIP3    H230789   6.539   3.365  -0.047 -0.8750  2.0398 -0.9967
 3100TIP3   OH230790   1.754   6.065  17.084  0.1041  0.1305 -0.4136
 3100TIP3    H130791   1.788   5.999  17.144 -1.5439 -0.4801 -0.0950
 3100TIP3    H230792   1.778   6.033  16.997 -0.8705 -1.0341 -0.2768
 3101TIP3   OH230793   0.344   1.966  12.205  0.4349 -0.3806 -0.0108
 3101TIP3    H130794   0.291   1.952  12.126 -0.8687  0.5427  0.6900
 3101TIP3    H230795   0.283   1.999  12.270  2.2290  2.8665  0.2004
 3102TIP3   OH230796   5.468   0.493  15.293 -0.1646  0.3815  0.4432
 3102TIP3    H130797   5.553   0.520  15.257  0.5022 -0.5679  1.2430
 3102TIP3    H230798   5.411   0.568  15.278 -0.2315 -0.2715 -3.4513
 3103TIP3   OH230799   2.477   2.078  16.896  0.2783 -0.0951 -0.2040
 3103TIP3    H130800   2.393   2.033  16.892 -0.6593  1.6127 -0.6334
 3103TIP3    H230801   2.457   2.164  16.933  1.6802  0.6827 -1.1641
 3104TIP3   OH230802   2.757   4.444  12.711 -0.4790  0.3162 -0.1327
 3104TIP3    H130803   2.742   4.515  12.648  0.6872  1.5811  0.9603
 3104TIP3    H230804   2.852   4.442  12.723 -0.5221 -1.1593  0.1987
 3105TIP3   OH230805   3.653   6.050   2.339  0.0976 -0.4700 -0.1164
 3105TIP3    H130806   3.663   6.142   2.363  0.3970 -0.9314  1.6460
 3105TIP3    H230807   3.734   6.009   2.369  0.4979 -1.1424 -1.9498
 3106TIP3   OH230808   4.832   1.625   3.187  0.0210 -0.4009 -0.4423
 3106TIP3    H130809   4.911   1.572   3.193  0.5012  0.4001  0.6928
 3106TIP3    H230810   4.824   1.667   3.273 -0.3785  1.2768 -1.2432
 3107TIP3   OH230811   5.912   4.067  11.107  0.0724 -0.5955  0.4087
 3107TIP3    H130812   5.974   4.110  11.048  1.0568 -3.0983 -0.5366
 3107TIP3    H230813   5.838   4.043  11.051  1.4614 -3.9195 -0.2704
 3108TIP3   OH230814   3.541   2.578   5.631 -0.3626  0.1081 -0.5080
 3108TIP3    H130815   3.543   2.521   5.708 -1.4322 -0.4806 -0.8854
 3108TIP3    H230816   3.633   2.590   5.608 -0.0616 -0.3210  0.4147
 3109TIP3   OH230817   4.223   4.407   2.985  0.6276 -0.1811 -0.6317
 3109TIP3    H130818   4.135   4.371   2.978  0.1234  0.5977  1.0466
 3109TIP3    H230819   4.213   4.500   2.965  0.9653  0.0014  0.0211
 3110TIP3   OH230820   2.140   1.849  16.054  0.1015 -0.3386 -1.1444
 3110TIP3    H130821   2.151   1.778  15.991 -1.4642 -1.3368 -0.3447
 3110TIP3    H230822   2.046   1.849  16.074  0.4857  0.2434  0.8432
 3111TIP3   OH230823   2.218   3.620   1.215  0.5872 -0.4462  0.3813
 3111TIP3    H130824   2.259   3.578   1.140  0.2653  0.9953 -0.6451
 3111TIP3    H230825   2.126   3.595   1.210  0.0119  1.7573 -1.3049
 3112TIP3   OH230826   5.511   3.308   3.339  0.3175  0.5168 -0.2090
 3112TIP3    H130827   5.468   3.340   3.418 -0.5151 -1.5936  0.2616
 3112TIP3    H230828   5.522   3.386   3.284 -0.2115  1.8158  1.4580
 3113TIP3   OH230829   3.160   5.739   0.841 -0.2741 -0.1447  0.2799
 3113TIP3    H130830   3.127   5.655   0.871  0.6200 -1.0610 -1.2232
 3113TIP3    H230831   3.249   5.722   0.811 -0.9271  0.7233 -2.4951
 3114TIP3   OH230832   0.795   1.843  15.506  0.0403 -0.2070 -0.0076
 3114TIP3    H130833   0.874   1.896  15.503  0.5297 -0.9529 -2.6262
 3114TIP3    H230834   0.724   1.907  15.495  0.5795  0.0998 -2.2724
 3115TIP3   OH230835   2.147   3.636   0.130  0.4196  0.6374 -0.0586
 3115TIP3    H130836   2.073   3.641   0.190 -0.7226 -1.3272 -1.2231
 3115TIP3    H230837   2.116   3.677   0.050 -0.7880 -3.0995 -1.7302
 3116TIP3   OH230838   4.010   6.496   3.312 -0.1055 -0.0124  0.4128
 3116TIP3    H130839   4.025   6.402   3.306 -1.5077 -0.3554  1.6458
 3116TIP3    H230840   4.056   6.523   3.391  0.3924  0.3740 -0.0010
 3117TIP3   OH230841   4.883   4.688  13.491 -0.3443 -0.3956 -0.2770
 3117TIP3    H130842   4.839   4.758  13.540 -1.4212 -0.9139 -0.4837
 3117TIP3    H230843   4.967   4.726  13.465 -1.1220  1.0070 -0.8291
 3118TIP3   OH230844   3.212   6.684   4.896  0.6674  0.3996 -0.0832
 3118TIP3    H130845   3.284   6.685   4.959 -0.0009 -0.8284  0.7441
 3118TIP3    H230846   3.225   6.762   4.843  2.0523  0.7093  0.6734
 3119TIP3   OH230847   6.188   5.266   0.993 -0.4549  0.1510  0.1732
 3119TIP3    H130848   6.197   5.189   1.048 -0.7036 -1.6533 -2.1673
 3119TIP3    H230849   6.107   5.307   1.023  0.7475  0.7547  2.8175
 3120TIP3   OH230850   4.099   5.477  14.691 -0.2388 -0.8669 -0.6438
 3120TIP3    H130851   4.031   5.527  14.646 -1.1196  0.1081  1.6298
 3120TIP3    H230852   4.053   5.404  14.732 -0.0934  0.1781  1.4822
 3121TIP3   OH230853   6.412   0.198  16.650  0.7607 -0.4101 -0.3103
 3121TIP3    H130854   6.467   0.261  16.605  1.6407 -0.0849  1.1415
 3121TIP3    H230855   6.466   0.165  16.722  0.2951 -2.7703 -0.9527
 3122TIP3   OH230856   1.547   4.267  15.301  0.0282  0.6287 -0.4824
 3122TIP3    H130857   1.570   4.181  15.336 -0.4012  0.0453 -1.5910
 3122TIP3    H230858   1.590   4.271  15.216 -0.7732  1.0993 -0.8760
 3123TIP3   OH230859   5.732   2.183  16.159  0.3650 -0.1182 -0.2242
 3123TIP3    H130860   5.648   2.160  16.120 -0.3792  0.8981  0.7300
 3123TIP3    H230861   5.713   2.260  16.214  1.3778 -1.3538  1.9920
 3124TIP3   OH230862   6.428   3.273  16.991 -0.3416  0.5675 -0.4038
 3124TIP3    H130863   6.479   3.327  16.932 -0.3689  0.6374 -0.3618
 3124TIP3    H230864   6.380   3.213  16.933 -0.1789  0.4701 -0.4389
 3125TIP3   OH230865   4.906   3.670  11.815  0.2835  0.1870 -0.2489
 3125TIP3    H130866   4.812   3.668  11.827  0.3732  0.7186  0.5638
 3125TIP3    H230867   4.934   3.752  11.856  0.9315  0.7303 -1.6910
 3126TIP3   OH230868   1.507   4.963   1.225  0.0618  0.0590 -0.2947
 3126TIP3    H130869   1.474   4.885   1.180  0.8581  0.0726 -0.9093
 3126TIP3    H230870   1.462   4.961   1.310 -0.3925 -0.7288 -0.5365
 3127TIP3   OH230871   5.584   4.214  11.910 -0.2147  0.2896 -0.3818
 3127TIP3    H130872   5.674   4.223  11.879 -0.3936 -1.5963 -1.6333
 3127TIP3    H230873   5.590   4.156  11.986 -0.2009  1.7494  0.7703
 3128TIP3   OH230874   3.402   3.057  11.292  0.0402  0.0189  0.0562
 3128TIP3    H130875   3.485   3.055  11.245 -0.8787 -0.7007 -1.6401
 3128TIP3    H230876   3.335   3.054  11.223 -1.4365  1.7743  1.2994
 3129TIP3   OH230877   1.750   4.276  11.200 -0.5355 -0.7830  0.3056
 3129TIP3    H130878   1.837   4.236  11.191  0.1355  0.5823  0.4883
 3129TIP3    H230879   1.733   4.274  11.294 -0.8447 -1.3096  0.2446
 3130TIP3   OH230880   6.624   1.918   1.277  0.4414 -0.3266  0.3024
 3130TIP3    H130881   6.601   2.011   1.272 -0.7841 -0.6425 -0.2556
 3130TIP3    H230882   6.595   1.881   1.193  0.0539 -1.3994  0.8903
 3131TIP3   OH230883   6.466   6.117   5.289 -0.7173  0.1616 -0.2214
 3131TIP3    H130884   6.507   6.115   5.376 -0.3220 -1.2757 -0.4155
 3131TIP3    H230885   6.372   6.115   5.308 -0.6342 -0.1076  0.1801
 3132TIP3   OH230886   3.696   1.139  14.456 -0.3659 -0.4078  0.2000
 3132TIP3    H130887   3.750   1.127  14.534  0.2710 -0.8326 -0.3011
 3132TIP3    H230888   3.719   1.067  14.398 -2.5946 -1.5232  0.5800
 3133TIP3   OH230889   6.132   2.315   0.963  0.1622  0.6688  0.0474
 3133TIP3    H130890   6.158   2.319   0.871  0.7739 -1.9834  0.0095
 3133TIP3    H230891   6.048   2.270   0.962  0.2931  0.3872  0.7708
 3134TIP3   OH230892   3.358   6.172  10.303 -0.0531  0.1336 -0.0938
 3134TIP3    H130893   3.448   6.150  10.325 -0.4031 -1.0095  0.2639
 3134TIP3    H230894   3.304   6.115  10.358 -0.9799  0.0136 -1.0697
 3135TIP3   OH230895   1.556   1.921   4.048 -0.4670 -0.4989 -0.1049
 3135TIP3    H130896   1.636   1.880   4.080  0.7471  0.4575 -1.7914
 3135TIP3    H230897   1.543   1.996   4.106 -0.5176 -1.0040  0.5542
 3136TIP3   OH230898   3.027   6.632  10.520  0.1261  0.1608 -0.2747
 3136TIP3    H130899   2.944   6.586  10.505  1.0956 -2.2478  1.0544
 3136TIP3    H230900   3.008   6.694  10.590 -0.5486 -0.3965  0.0459
 3137TIP3   OH230901   1.438   1.659   5.361 -0.4482  0.0759 -0.7303
 3137TIP3    H130902   1.391   1.597   5.305  0.8594 -0.0998 -1.6984
 3137TIP3    H230903   1.530   1.630   5.356  0.1228  1.7822 -0.7942
 3138TIP3   OH230904   5.969   4.908  12.329 -0.0776 -0.1495  0.2177
 3138TIP3    H130905   5.983   4.817  12.305 -0.6492 -0.2286  0.1829
 3138TIP3    H230906   5.953   4.907  12.423  0.4042 -0.0257  0.3075
 3139TIP3   OH230907   1.251   3.267  13.262 -0.2350  1.2488 -1.0440
 3139TIP3    H130908   1.262   3.181  13.220 -2.4403 -0.0771  0.8736
 3139TIP3    H230909   1.341   3.296  13.280  0.5712 -1.1879 -0.7121
 3140TIP3   OH230910   3.180   1.960   1.949  0.2742 -0.6276  0.3123
 3140TIP3    H130911   3.125   2.005   1.885 -0.4534 -1.5442  0.2823
 3140TIP3    H230912   3.255   2.019   1.961 -0.5259  0.4606  0.0837
 3141TIP3   OH230913   3.925   1.360   0.552  0.1896  0.0283 -0.2404
 3141TIP3    H130914   3.911   1.342   0.459 -1.5634 -0.6940  0.1363
 3141TIP3    H230915   3.950   1.276   0.589  1.6413  0.4645 -0.1427
 3142TIP3   OH230916   6.315   0.342  12.621 -0.3367  0.4520  0.5221
 3142TIP3    H130917   6.314   0.338  12.525 -1.3023  0.2274  0.5376
 3142TIP3    H230918   6.359   0.261  12.647 -0.5317  0.2678  0.2828
 3143TIP3   OH230919   2.510   0.447  13.736 -0.2846  0.5223 -0.1104
 3143TIP3    H130920   2.547   0.524  13.777 -2.0284  2.1367 -1.3863
 3143TIP3    H230921   2.577   0.418  13.674  0.4997  0.8042  0.5910
 3144TIP3   OH230922   4.906   1.820   2.853  0.3606 -0.5581  0.0216
 3144TIP3    H130923   4.868   1.826   2.765  1.5537 -0.0753 -0.4776
 3144TIP3    H230924   4.840   1.860   2.911 -0.1748 -0.3393 -0.7233
 3145TIP3   OH230925   4.087   5.724   5.820 -0.0308  0.1536  0.1782
 3145TIP3    H130926   4.054   5.757   5.904 -0.6400 -2.2445  0.9604
 3145TIP3    H230927   4.177   5.696   5.838  0.1177  0.3825 -0.1926
 3146TIP3   OH230928   2.895   5.279  15.057 -0.4830  0.1894 -0.0685
 3146TIP3    H130929   2.882   5.215  14.986 -0.6378  0.2185 -0.0674
 3146TIP3    H230930   2.841   5.246  15.129 -1.3458  0.8381 -0.3988
 3147TIP3   OH230931   2.250   5.960  14.133  0.2822 -0.8821  0.7988
 3147TIP3    H130932   2.217   6.039  14.090 -1.0259 -2.4968 -1.3713
 3147TIP3    H230933   2.337   5.947  14.095 -0.2926 -1.5087 -0.3659
 3148TIP3   OH230934   6.122   0.723   4.423 -0.0428 -0.1914  0.3312
 3148TIP3    H130935   6.074   0.713   4.505 -0.7105 -1.4366 -0.1899
 3148TIP3    H230936   6.092   0.651   4.368 -0.9911  1.6520 -1.7199
 3149TIP3   OH230937   3.698   5.767   6.175  0.2202  0.5337 -0.0218
 3149TIP3    H130938   3.731   5.696   6.121  0.1947  1.3948 -1.2153
 3149TIP3    H230939   3.735   5.751   6.262 -0.3528 -1.2961 -0.0917
 3150TIP3   OH230940   1.097   6.362   3.827 -0.1974 -0.7660  0.2934
 3150TIP3    H130941   1.092   6.336   3.919 -1.0642  0.3276  0.5861
 3150TIP3    H230942   1.040   6.300   3.781 -0.9338 -0.4289  0.7312
 3151TIP3   OH230943   0.790   5.749   4.932  0.7330 -0.3411  0.2470
 3151TIP3    H130944   0.714   5.782   4.980 -0.1586  0.0308 -1.3558
 3151TIP3    H230945   0.815   5.669   4.980  0.7714  0.7320  2.1214
 3152TIP3   OH230946   3.019   5.735  12.829 -0.5746 -0.1024 -0.0221
 3152TIP3    H130947   2.953   5.799  12.857 -1.4793 -0.4328 -1.3251
 3152TIP3    H230948   2.995   5.654  12.873 -0.8175 -0.1341 -0.2158
 3153TIP3   OH230949   0.800   0.526   2.747 -0.1134  0.4781  0.3630
 3153TIP3    H130950   0.819   0.610   2.704 -1.1128  0.2959 -0.4884
 3153TIP3    H230951   0.807   0.545   2.841  0.0352  1.4302  0.1732
 3154TIP3   OH230952   5.069   5.282   6.105 -0.1428  0.5491  0.1486
 3154TIP3    H130953   5.096   5.199   6.143 -1.7306 -0.9536 -1.7916
 3154TIP3    H230954   4.977   5.291   6.130  0.1760  2.1197  0.9057
 3155TIP3   OH230955   6.619   4.044  13.638 -0.2488  0.4436  0.3544
 3155TIP3    H130956   6.584   3.960  13.668  1.4991 -1.5385 -2.6654
 3155TIP3    H230957   6.592   4.050  13.547  1.1525  2.3362  0.0135
 3156TIP3   OH230958   1.693   3.670  13.067 -0.1138  0.1730 -0.0483
 3156TIP3    H130959   1.631   3.698  13.135  0.9149  0.7887  0.6821
 3156TIP3    H230960   1.738   3.595  13.106 -1.6306 -1.4600 -1.3032
 3157TIP3   OH230961   3.713   5.878  13.285 -0.0819  0.4707 -0.1816
 3157TIP3    H130962   3.653   5.917  13.349 -0.9220  2.0628 -1.8651
 3157TIP3    H230963   3.660   5.814  13.238  0.7328 -1.2462  1.1444
 3158TIP3   OH230964   5.735   1.909   2.455  0.2721 -0.1464  0.3546
 3158TIP3    H130965   5.666   1.946   2.510 -0.1167 -0.0905 -0.1609
 3158TIP3    H230966   5.707   1.819   2.438 -1.2512  0.7171 -2.3164
 3159TIP3   OH230967   2.858   1.601   1.062  0.4508 -0.2268 -0.0205
 3159TIP3    H130968   2.936   1.638   1.020  0.0852  0.2597 -0.2980
 3159TIP3    H230969   2.806   1.678   1.086  0.4399 -0.5257  0.9113
 3160TIP3   OH230970   1.350   3.975   2.533 -0.0356 -0.0136 -0.9726
 3160TIP3    H130971   1.306   3.899   2.571 -0.1038 -0.3753 -1.7640
 3160TIP3    H230972   1.282   4.018   2.480  0.0839  0.4400 -0.7676
 3161TIP3   OH230973   1.015   0.718   5.836 -0.7436 -0.5976  0.4071
 3161TIP3    H130974   0.978   0.695   5.751 -0.8173  0.1301  0.2357
 3161TIP3    H230975   1.094   0.665   5.843  0.5548  1.0146 -1.1535
 3162TIP3   OH230976   2.098   3.420   1.408 -0.1515 -0.7390 -0.2429
 3162TIP3    H130977   2.082   3.438   1.501  1.6118  1.8653 -0.3282
 3162TIP3    H230978   2.170   3.357   1.408 -0.3500 -0.9708  0.1468
 3163TIP3   OH230979   3.161   2.345   3.465 -0.0550  0.6687  0.0761
 3163TIP3    H130980   3.133   2.268   3.416  0.5395 -1.0650  2.2788
 3163TIP3    H230981   3.255   2.334   3.478 -0.1098  1.2898  1.1836
 3164TIP3   OH230982   4.247   5.370  17.051  0.0690 -0.2864  0.1385
 3164TIP3    H130983   4.321   5.412  17.007 -0.3933  0.5268  0.1277
 3164TIP3    H230984   4.239   5.285  17.008  0.3420  0.0415 -0.5788
 3165TIP3   OH230985   5.334   4.007  14.579 -0.1513  0.0473 -0.5254
 3165TIP3    H130986   5.353   3.914  14.592 -0.9592  0.0464  0.8008
 3165TIP3    H230987   5.391   4.052  14.640 -0.9820  0.3081  0.0795
 3166TIP3   OH230988   2.336   1.147   0.552  0.6577 -0.1746  0.0145
 3166TIP3    H130989   2.389   1.072   0.527  0.1296 -1.2486  1.8695
 3166TIP3    H230990   2.278   1.162   0.478  1.1498 -1.2467 -0.6084
 3167TIP3   OH230991   5.563   5.343  17.217 -0.1352  0.1613 -0.0860
 3167TIP3    H130992   5.564   5.361  17.311  2.2438 -0.4859  0.0774
 3167TIP3    H230993   5.571   5.248  17.210 -0.3778  0.1928 -0.9410
 3168TIP3   OH230994   4.452   6.440   2.280  0.4156 -0.1476 -0.0365
 3168TIP3    H130995   4.510   6.517   2.284  0.1480  0.2306 -2.1559
 3168TIP3    H230996   4.475   6.397   2.198 -0.2957 -1.6708  0.5292
 3169TIP3   OH230997   2.894   3.816   6.489 -0.0423 -0.9730  0.6102
 3169TIP3    H130998   2.923   3.748   6.550  0.6731  0.9171  2.4966
 3169TIP3    H230999   2.813   3.849   6.527 -0.6577 -1.0751 -0.5671
 3170TIP3   OH231000   6.685   2.059   6.513 -0.3112 -0.5613 -0.0615
 3170TIP3    H131001   6.736   1.987   6.549 -0.1169 -0.4660 -0.1424
 3170TIP3    H231002   6.751   2.121   6.482 -0.4738 -0.7483 -0.7964
 3171TIP3   OH231003   5.607   2.290   5.557  0.1294  0.0968  0.5642
 3171TIP3    H131004   5.542   2.333   5.502  0.7336  1.1246  0.6330
 3171TIP3    H231005   5.558   2.259   5.633 -1.4315 -4.1983 -1.8138
 3172TIP3   OH231006   6.727   1.066  12.483  0.0045 -0.2340  0.2857
 3172TIP3    H131007   6.809   1.086  12.436  0.8209 -2.2402  0.7636
 3172TIP3    H231008   6.752   1.065  12.575 -0.3041 -1.7714  0.3859
 3173TIP3   OH231009   5.063   0.376  12.237  0.2910  0.2788 -0.1932
 3173TIP3    H131010   5.112   0.297  12.259 -0.5753 -0.3616 -0.5157
 3173TIP3    H231011   5.110   0.413  12.162  1.0778  0.4336  0.3715
 3174TIP3   OH231012   3.873   4.296  14.423  0.2199  1.0176  0.4120
 3174TIP3    H131013   3.793   4.257  14.390  0.2813  1.9185 -0.9244
 3174TIP3    H231014   3.936   4.224  14.426 -0.2980  0.5554  0.2756
 3175TIP3   OH231015   2.593   1.047  16.124  0.0247 -0.2374  0.1835
 3175TIP3    H131016   2.653   1.101  16.176  0.7560 -0.1918 -0.6961
 3175TIP3    H231017   2.572   1.100  16.048  0.7743 -1.1834 -0.7034
 3176TIP3   OH231018   3.252   5.503   0.326 -0.0335 -0.1119 -0.1872
 3176TIP3    H131019   3.240   5.535   0.237  1.1377 -0.8626 -0.6335
 3176TIP3    H231020   3.202   5.421   0.328 -1.4026  0.6952  0.3646
 3177TIP3   OH231021   2.070   0.955   0.178 -0.2822  0.4404 -0.0302
 3177TIP3    H131022   2.103   1.036   0.215 -0.6111  0.4153  0.3251
 3177TIP3    H231023   2.064   0.972   0.084 -2.4763  1.6204  0.2640
 3178TIP3   OH231024   1.523   6.579  14.721 -0.7601 -0.4484 -0.1965
 3178TIP3    H131025   1.486   6.554  14.636 -0.5231 -0.2912 -0.3472
 3178TIP3    H231026   1.579   6.654  14.701  0.5420 -1.3847 -0.1542
 3179TIP3   OH231027   3.715   6.256  13.680  0.4724 -0.3036 -0.3648
 3179TIP3    H131028   3.786   6.195  13.659  1.2754  0.5883 -0.3278
 3179TIP3    H231029   3.755   6.318  13.742 -0.8847 -0.9008  1.1748
 3180TIP3   OH231030   5.262   1.918   1.880  0.2842  0.5191 -0.0070
 3180TIP3    H131031   5.178   1.873   1.879  1.0426 -0.9911  0.6964
 3180TIP3    H231032   5.242   2.007   1.909 -1.2522  0.6531 -1.3640
 3181TIP3   OH231033   5.911   4.143   5.493 -0.0199  0.4641 -0.0166
 3181TIP3    H131034   6.005   4.131   5.508 -0.1833 -1.7669 -0.4903
 3181TIP3    H231035   5.906   4.224   5.442  1.7072  0.2891 -0.5473
 3182TIP3   OH231036   1.708   5.145   0.907 -0.2260  0.1638  0.0591
 3182TIP3    H131037   1.766   5.199   0.962  0.8360  1.0949 -1.8819
 3182TIP3    H231038   1.765   5.110   0.839 -1.7348  0.1925 -1.2721
 3183TIP3   OH231039   2.868   4.943  14.158 -0.4123  0.3042 -0.8500
 3183TIP3    H131040   2.905   4.955  14.246 -2.5952  3.6948 -0.2332
 3183TIP3    H231041   2.819   4.861  14.164  2.1351 -1.3017 -0.0460
 3184TIP3   OH231042   2.070   4.611   3.399 -0.4845 -0.1526  0.3074
 3184TIP3    H131043   2.026   4.574   3.323 -1.9166 -1.2016  1.5945
 3184TIP3    H231044   2.094   4.535   3.453  0.0289  0.5877  1.1514
 3185TIP3   OH231045   4.225   1.878  13.546  0.3764  0.3239  0.2003
 3185TIP3    H131046   4.172   1.906  13.472  1.9758 -1.0412 -1.5649
 3185TIP3    H231047   4.187   1.793  13.571  1.4797 -0.5287 -0.8955
 3186TIP3   OH231048   1.521   0.408  13.450 -0.1376  0.2228 -0.9913
 3186TIP3    H131049   1.490   0.325  13.414  2.1364 -1.8002  1.3670
 3186TIP3    H231050   1.449   0.438  13.506 -0.2340 -1.2614 -0.2701
 3187TIP3   OH231051   5.237   5.943  16.894 -0.2267 -0.1804  0.2354
 3187TIP3    H131052   5.252   6.037  16.887  0.2668 -0.2938 -0.3258
 3187TIP3    H231053   5.306   5.903  16.841  0.5277 -0.9324  1.7081
 3188TIP3   OH231054   0.642   4.086  15.297  0.1626 -0.3170  0.0081
 3188TIP3    H131055   0.712   4.085  15.231  0.5798 -2.4118  0.4231
 3188TIP3    H231056   0.644   4.175  15.332 -0.3826  1.0356 -3.0727
 3189TIP3   OH231057   0.111   0.944   5.923 -0.1706 -0.1900 -0.7868
 3189TIP3    H131058   0.086   0.853   5.905  2.0688 -0.7248 -1.5121
 3189TIP3    H231059   0.142   0.943   6.013 -1.5530  0.2209 -0.2814
 3190TIP3   OH231060   4.786   4.159  13.057  0.5488  0.0883  0.4587
 3190TIP3    H131061   4.772   4.125  13.145 -0.4751 -0.1750  0.2089
 3190TIP3    H231062   4.824   4.086  13.008 -0.3025 -0.2593  0.2975
 3191TIP3   OH231063   5.126   5.348  13.697  0.1246  0.9574  0.6288
 3191TIP3    H131064   5.089   5.382  13.615  0.6431  1.2602  0.5163
 3191TIP3    H231065   5.210   5.393  13.706 -0.2380  1.4556  1.6888
 3192TIP3   OH231066   2.861   4.274   3.030 -0.7604  0.0841 -1.3543
 3192TIP3    H131067   2.912   4.208   2.983  0.1305 -0.6951  0.5969
 3192TIP3    H231068   2.785   4.226   3.064 -0.2060  0.0532 -0.0879
 3193TIP3   OH231069   0.413   3.433  14.303 -0.2914 -0.3078  0.3606
 3193TIP3    H131070   0.406   3.383  14.221  1.7597 -0.5127  0.2464
 3193TIP3    H231071   0.439   3.521  14.276  0.2416 -0.3331  0.7772
 3194TIP3   OH231072   4.612   0.559  11.514  0.3217 -0.2128  0.5905
 3194TIP3    H131073   4.610   0.481  11.459 -0.9443  0.1922  0.0266
 3194TIP3    H231074   4.680   0.614  11.475  0.1813 -0.3987  0.0735
 3195TIP3   OH231075   0.862   1.451  15.406  0.3845 -0.5193 -0.5760
 3195TIP3    H131076   0.917   1.512  15.357 -1.3476  1.8735  0.2345
 3195TIP3    H231077   0.776   1.493  15.407 -0.6149 -2.4331  1.0947
 3196TIP3   OH231078   3.857   4.979  12.092 -0.1782 -0.0459  0.0101
 3196TIP3    H131079   3.870   4.896  12.047 -0.5110 -0.5080  0.7343
 3196TIP3    H231080   3.921   5.038  12.053 -0.0187 -0.6057 -0.6007
 3197TIP3   OH231081   4.944   4.810  16.189  0.4076 -0.2404  0.6468
 3197TIP3    H131082   5.001   4.819  16.113  1.0246 -0.8467  1.0298
 3197TIP3    H231083   4.871   4.755  16.158  0.9111 -0.9025  0.6220
 3198TIP3   OH231084   5.416   1.622  16.913 -0.1243  0.0595  0.4718
 3198TIP3    H131085   5.405   1.695  16.974  1.1556  0.6937 -0.0176
 3198TIP3    H231086   5.461   1.555  16.964  1.7268  0.9141  0.0476
 3199TIP3   OH231087   6.466   1.690   0.863 -0.0088  0.1021  0.8095
 3199TIP3    H131088   6.451   1.753   0.792  0.7507 -0.8362 -0.2199
 3199TIP3    H231089   6.388   1.698   0.919 -1.3764 -0.2047 -0.9561
 3200TIP3   OH231090   5.179   0.524   1.954 -0.2996  0.2508  0.2471
 3200TIP3    H131091   5.147   0.609   1.982 -0.3486  0.4858 -0.5036
 3200TIP3    H231092   5.187   0.473   2.035 -1.5844  0.5125  0.5484
 3201TIP3   OH231093   3.426   3.566  13.053 -0.0294 -0.2066  0.3352
 3201TIP3    H131094   3.432   3.661  13.064 -0.1941 -0.0351 -0.8960
 3201TIP3    H231095   3.365   3.554  12.980  0.2566 -1.2411  0.2497
 3202TIP3   OH231096   6.108   4.108   1.203 -0.1747  0.2262 -0.3985
 3202TIP3    H131097   6.019   4.135   1.225  0.7869  1.4378  2.4045
 3202TIP3    H231098   6.111   4.015   1.225 -1.3741 -0.5063 -2.9521
 3203TIP3   OH231099   3.252   6.260   3.456  0.5679  0.2056 -0.2170
 3203TIP3    H131100   3.243   6.178   3.408 -2.3927 -0.8381  1.8135
 3203TIP3    H231101   3.289   6.234   3.541 -1.4842  0.6837  0.8962
 3204TIP3   OH231102   2.127   2.327   3.252 -0.2475 -0.0648 -0.2205
 3204TIP3    H131103   2.174   2.277   3.319 -0.6441 -1.0374 -0.6508
 3204TIP3    H231104   2.051   2.273   3.231 -1.2697  1.2118  0.0546
 3205TIP3   OH231105   2.628   5.771   1.138  0.1169 -0.0374  0.1044
 3205TIP3    H131106   2.562   5.835   1.162 -0.1356 -0.5377  0.7413
 3205TIP3    H231107   2.587   5.686   1.152 -0.6236 -0.4360 -3.5171
 3206TIP3   OH231108   1.780   0.343   0.420  0.6395 -0.6241 -0.0358
 3206TIP3    H131109   1.847   0.410   0.431 -0.9992  1.0257  0.4198
 3206TIP3    H231110   1.808   0.271   0.476  1.6959  0.2743  0.6357
 3207TIP3   OH231111   5.370   5.573   3.723  0.1955 -0.1652  0.2927
 3207TIP3    H131112   5.429   5.521   3.777  0.8820 -0.7126 -0.9470
 3207TIP3    H231113   5.282   5.551   3.756  0.5304 -1.3810  0.4191
 3208TIP3   OH231114   2.748   6.010  13.505 -0.2912  0.1885 -0.3973
 3208TIP3    H131115   2.722   6.096  13.538 -0.1247 -0.9580  3.1607
 3208TIP3    H231116   2.671   5.954  13.519 -0.2858 -0.3911 -2.3244
 3209TIP3   OH231117   3.992   1.422  11.481 -0.0988  0.1510 -0.0360
 3209TIP3    H131118   4.043   1.430  11.400 -0.3705  2.1124 -0.0750
 3209TIP3    H231119   3.978   1.513  11.509 -1.7407 -0.4069  1.1212
 3210TIP3   OH231120   0.539   2.777   1.408 -0.1128  0.0177 -0.2443
 3210TIP3    H131121   0.450   2.757   1.435  0.2451 -0.5119  0.5786
 3210TIP3    H231122   0.540   2.872   1.397 -0.9238 -0.0367 -0.8315
 3211TIP3   OH231123   0.455   2.754  11.891  0.6235 -0.6969  0.2489
 3211TIP3    H131124   0.534   2.736  11.942 -0.4012  0.0625  2.2134
 3211TIP3    H231125   0.397   2.799  11.953 -0.4901  0.8002 -1.7683
 3212TIP3   OH231126   0.912   0.177   3.472  0.1482  0.3900  0.4160
 3212TIP3    H131127   0.837   0.227   3.505 -0.2309 -0.0825  0.2820
 3212TIP3    H231128   0.988   0.222   3.509 -0.1370  1.5130 -0.2999
 3213TIP3   OH231129   2.167   3.032   3.608 -0.1080 -0.3985  0.0708
 3213TIP3    H131130   2.098   3.096   3.628 -0.0812 -0.4701  0.4040
 3213TIP3    H231131   2.127   2.974   3.543 -0.5948 -0.8394  0.7537
 3214TIP3   OH231132   0.373   2.562  13.107 -0.0697 -0.1351 -0.0514
 3214TIP3    H131133   0.280   2.587  13.105  0.4699  2.1253 -0.1266
 3214TIP3    H231134   0.419   2.645  13.100  1.9810 -1.2579 -0.4937
 3215TIP3   OH231135   2.331   1.922   1.883 -0.1890  0.1222  0.0341
 3215TIP3    H131136   2.387   1.863   1.832 -0.8877 -0.4384 -0.1010
 3215TIP3    H231137   2.356   1.907   1.974  0.0504  0.0525 -0.0426
 3216TIP3   OH231138   2.825   2.602  16.766 -0.2570 -0.0236 -0.0954
 3216TIP3    H131139   2.851   2.511  16.755  1.2081  0.4199 -0.5544
 3216TIP3    H231140   2.806   2.611  16.859 -0.1002 -0.7268  0.0069
 3217TIP3   OH231141   1.859   3.070  13.027  0.1777  0.4790 -0.2247
 3217TIP3    H131142   1.801   3.005  12.987 -0.1716  0.5308  0.1879
 3217TIP3    H231143   1.808   3.150  13.029  0.9173  1.0189 -1.5448
 3218TIP3   OH231144   1.343   2.078   3.430 -0.0445  0.3901 -0.2085
 3218TIP3    H131145   1.279   2.007   3.437  0.1370  0.2795  0.4346
 3218TIP3    H231146   1.343   2.119   3.517 -0.8418  1.7935 -0.8437
 3219TIP3   OH231147   2.968   6.632  15.938  0.0193  0.1122 -0.1978
 3219TIP3    H131148   3.023   6.650  16.014 -2.4765  0.3873  1.6942
 3219TIP3    H231149   3.029   6.615  15.867  2.4896  1.3767  1.4905
 3220TIP3   OH231150   2.295   2.667  12.143  0.1082  0.2601  0.2346
 3220TIP3    H131151   2.321   2.642  12.054 -0.7541  0.1272  0.0078
 3220TIP3    H231152   2.298   2.586  12.193 -2.8102 -0.4663 -0.5320
 3221TIP3   OH231153   6.763   0.960  10.857  0.6718  0.2439 -0.4452
 3221TIP3    H131154   6.711   0.890  10.895  1.4654  0.2240  0.6573
 3221TIP3    H231155   6.768   0.938  10.763  0.6571 -1.0077 -0.1699
 3222TIP3   OH231156   4.940   1.935   2.227  0.2019 -0.3986 -0.0320
 3222TIP3    H131157   5.034   1.917   2.234  0.5593  1.7219  1.5204
 3222TIP3    H231158   4.898   1.868   2.282  0.6674 -1.9522 -1.4919
 3223TIP3   OH231159   5.197   4.494  14.019  0.0052  0.4528 -0.0404
 3223TIP3    H131160   5.107   4.509  13.990 -0.2248 -2.0633 -0.9259
 3223TIP3    H231161   5.207   4.398  14.017  2.5838  0.6343  0.4026
 3224TIP3   OH231162   5.623   5.356  11.073 -0.3223  0.4470 -0.3443
 3224TIP3    H131163   5.578   5.319  11.149 -1.2562 -0.2491 -1.2047
 3224TIP3    H231164   5.608   5.451  11.080  0.4612  0.5045  0.8538
 3225TIP3   OH231165   0.402   2.251  14.674  0.4496 -0.2213  0.2874
 3225TIP3    H131166   0.375   2.341  14.660  0.3748 -0.4029 -0.8629
 3225TIP3    H231167   0.339   2.199  14.624  1.4706 -0.7920 -0.4498
 3226TIP3   OH231168   5.923   5.929   4.165  0.0732 -0.2581  0.2703
 3226TIP3    H131169   5.853   5.984   4.132 -0.5476  0.7165  2.9528
 3226TIP3    H231170   5.903   5.841   4.132 -1.0871  0.4292 -0.8989
 3227TIP3   OH231171   5.193   1.267  17.305 -0.1753  0.4729  0.6076
 3227TIP3    H131172   5.164   1.357  17.320 -0.6208  0.1737  1.6020
 3227TIP3    H231173   5.116   1.222  17.269  0.0262  0.4684  0.1763
 3228TIP3   OH231174   4.732   1.393   4.739  0.3206 -0.5228 -0.2731
 3228TIP3    H131175   4.717   1.300   4.751 -0.1204 -0.7299 -2.1331
 3228TIP3    H231176   4.657   1.435   4.780  1.9180 -0.7262  3.2481
 3229TIP3   OH231177   1.171   5.763  16.981 -0.4145 -0.0885 -0.1542
 3229TIP3    H131178   1.108   5.828  16.952 -1.0896 -1.1878 -1.2526
 3229TIP3    H231179   1.195   5.790  17.070 -1.9864  0.6646  0.0645
 3230TIP3   OH231180   3.902   0.641  15.897  0.5677  0.0801  0.3256
 3230TIP3    H131181   3.867   0.681  15.977  1.9313  1.6915  0.1682
 3230TIP3    H231182   3.838   0.662  15.829  0.1579  0.0299  0.6912
 3231TIP3   OH231183   3.291   6.000   1.989  0.5057 -0.0865  0.2923
 3231TIP3    H131184   3.266   5.985   2.080 -1.1232 -2.3790 -0.4361
 3231TIP3    H231185   3.266   6.090   1.972  0.5104  0.2758  1.9965
 3232TIP3   OH231186   0.561   1.619  12.221  0.0070  0.0219  0.0067
 3232TIP3    H131187   0.612   1.649  12.147  0.7930 -0.5102  0.3103
 3232TIP3    H231188   0.514   1.542  12.189 -2.3107  1.6892 -0.8847
 3233TIP3   OH231189   5.972   5.371   3.386 -0.3436  0.1707  0.1754
 3233TIP3    H131190   6.058   5.337   3.361 -0.2533 -0.3904  1.1949
 3233TIP3    H231191   5.968   5.360   3.481 -3.3795 -4.4255 -0.1451
 3234TIP3   OH231192   5.803   2.468   6.819 -0.0779  0.0299  0.1668
 3234TIP3    H131193   5.824   2.557   6.789  0.3232 -0.3736 -0.7975
 3234TIP3    H231194   5.710   2.457   6.797  0.3889 -0.5328 -1.7325
 3235TIP3   OH231195   6.093   4.618  12.935 -0.0841 -0.2880 -0.7668
 3235TIP3    H131196   6.126   4.700  12.899  0.9566 -0.3657 -0.0261
 3235TIP3    H231197   6.022   4.645  12.993  0.8289  0.1824  0.1579
 3236TIP3   OH231198   5.531   2.514   2.373  0.1467 -0.3906  0.6321
 3236TIP3    H131199   5.519   2.506   2.467  0.4539  0.0328  0.7083
 3236TIP3    H231200   5.604   2.576   2.363 -0.4891  0.2942  0.1112
 3237TIP3   OH231201   6.261   4.254  16.582 -0.2608 -0.4960 -0.3369
 3237TIP3    H131202   6.241   4.236  16.490 -0.4463 -0.4754 -0.3022
 3237TIP3    H231203   6.350   4.287  16.582 -0.8814  1.2895 -0.7273
 3238TIP3   OH231204   1.904   6.359   5.072  0.7257  0.0343 -0.3172
 3238TIP3    H131205   1.840   6.366   5.143 -0.5103  2.0284 -1.5003
 3238TIP3    H231206   1.987   6.338   5.115 -0.4924 -1.5726  1.3821
 3239TIP3   OH231207   0.789   3.786  10.607  0.0688  0.1824  0.3260
 3239TIP3    H131208   0.846   3.863  10.615 -0.3384  0.6726 -1.2008
 3239TIP3    H231209   0.729   3.794  10.682  0.5964  0.8570  0.6956
 3240TIP3   OH231210   2.574   6.475  12.352 -0.0923 -0.1681  0.0379
 3240TIP3    H131211   2.524   6.479  12.433  0.8273  0.7680  0.5725
 3240TIP3    H231212   2.512   6.438  12.288 -1.1081 -0.0668  0.9340
 3241TIP3   OH231213   3.881   3.290   0.664  0.6291  0.4304 -0.1670
 3241TIP3    H131214   3.964   3.275   0.710  1.4815  2.2107 -1.0493
 3241TIP3    H231215   3.906   3.303   0.573 -0.9155 -1.7817 -1.0160
 3242TIP3   OH231216   0.893   1.098  14.492  0.1991  0.3618 -0.0628
 3242TIP3    H131217   0.908   1.033  14.562  0.0395  0.8200  0.4037
 3242TIP3    H231218   0.981   1.123  14.465  0.2624  0.0000 -0.1980
 3243TIP3   OH231219   4.007   5.791  12.428 -0.1588 -0.2837  0.6599
 3243TIP3    H131220   4.002   5.802  12.523 -1.2150  0.9682  0.4987
 3243TIP3    H231221   3.968   5.706  12.412  0.6959 -0.8334  1.3947
 3244TIP3   OH231222   6.098   3.521   3.810  0.1136  0.4175 -0.2544
 3244TIP3    H131223   6.114   3.531   3.904  0.7439 -1.5511 -0.1190
 3244TIP3    H231224   6.096   3.426   3.796  0.9482  0.6801 -2.3882
 3245TIP3   OH231225   0.297   5.683  10.953 -0.0771 -0.0978 -0.4607
 3245TIP3    H131226   0.326   5.628  11.026 -0.8459 -0.7896 -0.6652
 3245TIP3    H231227   0.203   5.691  10.965 -0.1722  0.0082 -1.2303
 3246TIP3   OH231228   6.494   0.028   4.001  0.5650  0.4300  0.4098
 3246TIP3    H131229   6.580   0.053   4.035  0.5904  0.7747  0.1003
 3246TIP3    H231230   6.460  -0.035   4.065  1.4841 -0.5157  0.0055
 3247TIP3   OH231231   3.973   6.350   2.661 -0.2706 -0.0822 -0.4477
 3247TIP3    H131232   3.981   6.445   2.657  1.8597 -0.1791  0.1250
 3247TIP3    H231233   4.010   6.319   2.578  1.1233 -0.4520  0.2765
 3248TIP3   OH231234   0.039   1.231   3.798  0.5897 -0.4558 -0.2264
 3248TIP3    H131235   0.091   1.257   3.874 -1.2345 -1.6205  1.5131
 3248TIP3    H231236   0.077   1.148   3.769  2.4297  0.8372 -1.8390
 3249TIP3   OH231237   2.131   4.180   3.377 -0.0581 -0.1101 -0.0858
 3249TIP3    H131238   2.224   4.167   3.355 -0.3030 -1.0848 -0.6266
 3249TIP3    H231239   2.084   4.157   3.297 -0.8895 -2.0801  0.8848
 3250TIP3   OH231240   5.658   2.334  14.413 -0.1534 -0.1821 -0.4328
 3250TIP3    H131241   5.611   2.368  14.489 -1.5383 -0.2952 -1.2099
 3250TIP3    H231242   5.593   2.282  14.365  1.1565 -1.5620 -0.7876
 3251TIP3   OH231243   4.193   1.896   3.886 -0.4208  0.2464  0.4555
 3251TIP3    H131244   4.280   1.917   3.919 -1.1601  0.2011  2.5644
 3251TIP3    H231245   4.157   1.833   3.949 -1.8052 -0.1219 -0.6367
 3252TIP3   OH231246   0.969   4.836   5.345  0.6890  0.1923  0.5213
 3252TIP3    H131247   0.944   4.832   5.437 -0.5860 -1.2838  0.1549
 3252TIP3    H231248   0.926   4.760   5.305  0.2620  1.4075 -1.4983
 3253TIP3   OH231249   0.696   0.471  16.621  0.1861  0.1454  0.2804
 3253TIP3    H131250   0.773   0.512  16.581  0.5146 -0.0172  0.7471
 3253TIP3    H231251   0.654   0.424  16.548  0.9720 -0.4365  0.1915
 3254TIP3   OH231252   1.415   1.104  13.206  0.4988  0.3354  0.4708
 3254TIP3    H131253   1.444   1.121  13.117  1.3841 -0.0071  0.6897
 3254TIP3    H231254   1.471   1.158  13.261 -0.7303  1.3683  0.7775
 3255TIP3   OH231255   4.009   1.990   2.705  0.1462  0.1083 -0.5994
 3255TIP3    H131256   3.947   2.002   2.633 -0.9537  1.1578  0.4879
 3255TIP3    H231257   3.988   2.060   2.767 -0.1642 -1.8756  1.6452
 3256TIP3   OH231258   3.340   0.871   1.515 -0.1541 -0.0455  0.0121
 3256TIP3    H131259   3.274   0.940   1.518 -1.6345 -1.3738 -0.3663
 3256TIP3    H231260   3.358   0.851   1.607  0.5644  1.0700  0.1278
 3257TIP3   OH231261   1.522   0.204  17.282 -0.5571  0.4337  0.0043
 3257TIP3    H131262   1.515   0.118  17.322  0.3329  0.9951  1.4627
 3257TIP3    H231263   1.432   0.228  17.261 -0.6459 -1.8149 -2.7116
 3258TIP3   OH231264   3.283   4.380  14.022  0.0444 -0.5234  0.3255
 3258TIP3    H131265   3.337   4.378  13.943  0.1744 -1.4375  0.4209
 3258TIP3    H231266   3.326   4.445  14.079 -1.0470  1.4481 -1.0050
 3259TIP3   OH231267   2.558   5.732  16.087  0.3452  0.0411  0.1322
 3259TIP3    H131268   2.588   5.811  16.042 -0.4431  0.5275  0.4540
 3259TIP3    H231269   2.464   5.730  16.073  0.3666 -0.9100  0.0345
 3260TIP3   OH231270   1.483   3.586   6.299 -0.6445 -0.2452 -0.3258
 3260TIP3    H131271   1.577   3.603   6.300 -0.9564  1.7616 -0.9919
 3260TIP3    H231272   1.470   3.524   6.371  1.1776 -0.6120 -0.2581
 3261TIP3   OH231273   1.547   2.320  14.879  0.2786  0.6559  0.3023
 3261TIP3    H131274   1.532   2.405  14.920  1.9431  0.6052  1.0778
 3261TIP3    H231275   1.563   2.260  14.951 -0.5889 -0.2799 -0.2552
 3262TIP3   OH231276   3.469   0.489   4.619  0.0180  0.2201 -0.7877
 3262TIP3    H131277   3.422   0.429   4.676  0.2303 -1.0783 -1.9281
 3262TIP3    H231278   3.553   0.502   4.662  0.4963 -1.3990 -1.1805
 3263TIP3   OH231279   3.084   6.696   0.199 -0.0060  0.1298  0.1111
 3263TIP3    H131280   3.079   6.723   0.107  1.8039  0.5319  0.1041
 3263TIP3    H231281   3.158   6.745   0.235  0.9662 -1.9292  1.0927
 3264TIP3   OH231282   1.280   5.887   0.313 -0.0836  1.1925  0.0895
 3264TIP3    H131283   1.342   5.858   0.380  2.0856  0.4366 -2.0528
 3264TIP3    H231284   1.278   5.814   0.250  0.8267  3.1657 -2.4163
 3265TIP3   OH231285   5.671   2.680  12.800 -0.1282 -0.2466 -0.4641
 3265TIP3    H131286   5.658   2.586  12.785 -2.2114 -0.1726  0.5041
 3265TIP3    H231287   5.753   2.686  12.849 -0.0303 -1.5677 -0.4374
 3266TIP3   OH231288   3.693   2.996  16.099 -1.1086  0.2819 -0.2822
 3266TIP3    H131289   3.733   2.947  16.027 -0.4125  1.5191 -0.7542
 3266TIP3    H231290   3.665   3.079  16.059 -0.2891  1.1833  0.9680
 3267TIP3   OH231291   2.715   5.991  16.107  0.2778 -0.7165 -0.6437
 3267TIP3    H131292   2.692   6.029  16.023 -2.2229 -1.5788 -0.4360
 3267TIP3    H231293   2.650   6.026  16.168  1.3751 -0.9576  0.7222
 3268TIP3   OH231294   3.827   2.062   1.029 -0.4779  0.3524  0.1559
 3268TIP3    H131295   3.848   2.061   0.936 -4.5329 -1.0236 -0.9435
 3268TIP3    H231296   3.782   2.146   1.043  1.1942  1.1297  1.2800
 3269TIP3   OH231297   2.830   2.662   5.626  0.7068 -0.1805  0.0869
 3269TIP3    H131298   2.786   2.578   5.639  3.0219 -1.3083  1.1632
 3269TIP3    H231299   2.922   2.640   5.614  1.1714  2.1243 -1.2293
 3270TIP3   OH231300   1.073   0.186   4.487  0.2212 -0.1956 -0.4148
 3270TIP3    H131301   0.998   0.182   4.428 -0.9961  0.4826  0.9920
 3270TIP3    H231302   1.134   0.247   4.446 -0.4469  0.0101 -1.1174
 3271TIP3   OH231303   1.860   6.264   0.842  0.1710  1.0545  0.0134
 3271TIP3    H131304   1.768   6.237   0.839  0.6896 -0.8541 -1.5430
 3271TIP3    H231305   1.901   6.204   0.904  0.4397  1.6642  0.4363
 3272TIP3   OH231306   1.993   5.056   5.153 -0.0406  0.2054 -0.1464
 3272TIP3    H131307   2.039   4.976   5.127 -0.7653 -1.1191  2.3836
 3272TIP3    H231308   1.913   5.056   5.100 -1.0400 -1.9075  1.2259
 3273TIP3   OH231309   6.385   6.316  13.754 -0.1672 -0.3234  0.0734
 3273TIP3    H131310   6.398   6.391  13.812  3.7203 -0.4410 -0.3543
 3273TIP3    H231311   6.318   6.344  13.692 -0.1398  2.0743  1.0397
 3274TIP3   OH231312   3.725   3.501   4.827 -0.0035  0.0461 -0.4632
 3274TIP3    H131313   3.689   3.582   4.790  0.9783  1.0349  0.6337
 3274TIP3    H231314   3.818   3.519   4.837  0.2048 -1.1725 -0.0476
 3275TIP3   OH231315   4.591   1.004  12.745  0.0800  0.3756 -0.2787
 3275TIP3    H131316   4.541   0.923  12.740 -1.1689  1.1658 -1.3035
 3275TIP3    H231317   4.609   1.027  12.654 -0.2256  1.6165 -0.0475
 3276TIP3   OH231318   4.800   2.536   2.979 -0.1737  0.4758 -0.4847
 3276TIP3    H131319   4.824   2.444   2.972  3.0134  1.1339  0.4316
 3276TIP3    H231320   4.800   2.568   2.889 -0.4493 -0.1963 -0.7303
 3277TIP3   OH231321   0.843   1.779  16.788  0.0386 -0.4535 -0.1976
 3277TIP3    H131322   0.811   1.805  16.875  1.1104 -0.9875  0.3731
 3277TIP3    H231323   0.772   1.804  16.729 -1.9871 -2.6043  1.1142
 3278TIP3   OH231324   4.809   4.491  17.125  0.0416 -0.3006 -0.2990
 3278TIP3    H131325   4.841   4.403  17.146 -0.2149 -0.6453 -1.3034
 3278TIP3    H231326   4.886   4.547  17.134  0.2211 -0.6293  0.2969
 3279TIP3   OH231327   1.671   3.077  10.501  0.4493 -0.0216  0.1955
 3279TIP3    H131328   1.661   3.146  10.566  1.2763  0.2491  0.0368
 3279TIP3    H231329   1.595   3.020  10.516 -1.3268  1.9032 -0.9128
 3280TIP3   OH231330   2.686   0.882   2.153  0.1725 -0.2655  0.1535
 3280TIP3    H131331   2.700   0.898   2.246 -1.1266  0.5050  0.2397
 3280TIP3    H231332   2.773   0.892   2.113  0.2651  2.5321  0.8620
 3281TIP3   OH231333   1.019   0.370   4.701  0.2480 -0.4067 -0.3890
 3281TIP3    H131334   0.936   0.347   4.745 -1.3888  0.5496 -2.7791
 3281TIP3    H231335   1.046   0.288   4.659 -0.0544 -0.4859 -0.4394
 3282TIP3   OH231336   5.418   5.093   6.225 -0.1463 -0.3086  0.1217
 3282TIP3    H131337   5.435   5.174   6.273  0.9133  0.4055 -1.3971
 3282TIP3    H231338   5.357   5.044   6.281 -2.7589  2.5451  0.0509
 3283TIP3   OH231339   0.762   4.129  16.793  0.3631 -0.1160  0.2584
 3283TIP3    H131340   0.725   4.061  16.737  1.3850  0.2049 -0.8574
 3283TIP3    H231341   0.688   4.185  16.815 -0.3729 -1.2022  0.6646
 3284TIP3   OH231342   5.188   3.814   1.892  0.2067 -0.3294 -0.0517
 3284TIP3    H131343   5.217   3.778   1.809  1.7796  1.8560 -0.5366
 3284TIP3    H231344   5.257   3.791   1.954  0.5790  0.6490 -0.0816
 3285TIP3   OH231345   5.424   4.244  15.950  0.5904  0.5204  0.3515
 3285TIP3    H131346   5.412   4.324  15.898 -1.0610 -1.4947 -2.6893
 3285TIP3    H231347   5.337   4.226  15.985  0.7916 -0.2822  0.4495
 3286TIP3   OH231348   4.287   5.357   0.269 -0.2665  0.9465  0.4220
 3286TIP3    H131349   4.335   5.419   0.214  0.5866 -0.8329 -0.9406
 3286TIP3    H231350   4.333   5.358   0.353  1.3244  0.3015 -0.4151
 3287TIP3   OH231351   5.705   5.707  16.264 -0.7164 -0.3111  0.2861
 3287TIP3    H131352   5.625   5.664  16.296  0.4103 -1.6453  1.4233
 3287TIP3    H231353   5.701   5.795  16.301 -1.8295 -0.2234  0.0057
 3288TIP3   OH231354   4.904   1.011   2.455  0.3848 -0.0689  0.0379
 3288TIP3    H131355   4.990   1.052   2.440  0.2460  0.0536 -0.4532
 3288TIP3    H231356   4.918   0.919   2.431  1.0767 -0.6715  2.4989
 3289TIP3   OH231357   1.649   4.498  15.427  0.0686  0.4769  0.0671
 3289TIP3    H131358   1.595   4.452  15.363 -0.6231  1.3827 -0.0211
 3289TIP3    H231359   1.736   4.459  15.418 -0.3084 -0.2443 -0.5606
 3290TIP3   OH231360   0.961   2.235   3.408 -0.1930 -0.0531 -0.4748
 3290TIP3    H131361   0.997   2.316   3.371 -0.3017 -0.5285 -1.6624
 3290TIP3    H231362   0.871   2.232   3.375 -1.1513  0.7158  1.8003
 3291TIP3   OH231363   0.963   3.253   2.147  0.0618  0.0898  0.4011
 3291TIP3    H131364   0.930   3.342   2.163 -0.7476 -0.3119  1.0021
 3291TIP3    H231365   1.040   3.266   2.091  0.3237  1.2115  0.9953
 3292TIP3   OH231366   5.198   5.855   2.678  0.3457 -0.1228 -0.0647
 3292TIP3    H131367   5.271   5.915   2.694  0.0281  0.6336 -1.3321
 3292TIP3    H231368   5.166   5.877   2.591  0.3698 -2.3094 -0.6998
 3293TIP3   OH231369   3.471   3.025  12.036 -0.0175  0.2674  0.3744
 3293TIP3    H131370   3.484   2.968  12.113  0.6939  0.4680  0.4118
 3293TIP3    H231371   3.498   3.112  12.067  0.2914  0.3436 -0.1079
 3294TIP3   OH231372   5.936   3.484  12.505  0.1440  0.9233  0.0412
 3294TIP3    H131373   6.007   3.423  12.528  0.3657  1.7547  1.6914
 3294TIP3    H231374   5.889   3.440  12.435  0.7915 -0.7883  0.6260
 3295TIP3   OH231375   3.951   0.807  14.672  0.0786 -0.0243 -0.1700
 3295TIP3    H131376   3.998   0.862  14.736 -3.1969  0.7039  1.8785
 3295TIP3    H231377   3.969   0.717  14.700  1.0025  0.1807 -0.0644
 3296TIP3   OH231378   1.847   3.287  15.559 -0.7408  0.1430  0.2635
 3296TIP3    H131379   1.938   3.314  15.557 -1.4233  2.6691 -0.1296
 3296TIP3    H231380   1.820   3.285  15.467 -1.4560  1.0139  0.4291
 3297TIP3   OH231381   0.532   2.946   4.772  0.2368 -0.7416  0.4823
 3297TIP3    H131382   0.591   3.002   4.722  0.7774 -2.5558 -1.0131
 3297TIP3    H231383   0.446   2.987   4.762  0.4696 -0.6233 -1.3169
 3298TIP3   OH231384   0.530   2.188  12.228  0.1710 -0.0006  0.0711
 3298TIP3    H131385   0.450   2.239  12.234  0.1524  0.0551 -0.6734
 3298TIP3    H231386   0.501   2.098  12.213  0.2650  0.3558 -2.6269
 3299TIP3   OH231387   2.830   1.508   6.412  0.0390  0.6527  0.1638
 3299TIP3    H131388   2.925   1.514   6.421  0.1701  1.7160 -1.5662
 3299TIP3    H231389   2.796   1.581   6.464  0.2843  1.3109 -0.5786
 3300TIP3   OH231390   5.195   1.958   3.345 -0.3779 -0.2769 -0.3020
 3300TIP3    H131391   5.229   2.043   3.371 -0.9945  0.5517 -2.0120
 3300TIP3    H231392   5.100   1.972   3.337 -0.6221 -1.4161  0.3947
 3301TIP3   OH231393   3.455   6.070  15.839  0.3600  0.0429  0.2346
 3301TIP3    H131394   3.441   6.042  15.748  2.2619  0.8474 -0.3664
 3301TIP3    H231395   3.369   6.098  15.869  0.0182  1.8104 -2.0612
 3302TIP3   OH231396   6.033   0.999   4.308 -0.1575 -0.4006 -1.0800
 3302TIP3    H131397   5.997   1.036   4.388 -1.3805  0.1617 -1.8628
 3302TIP3    H231398   6.110   0.950   4.337 -0.4983 -0.1088  0.4106
 3303TIP3   OH231399   6.576   0.006   1.909  0.3876 -0.1123 -0.1057
 3303TIP3    H131400   6.521  -0.036   1.843  0.9278 -0.5279 -0.3014
 3303TIP3    H231401   6.617  -0.067   1.956  0.6281  0.1895  0.1570
 3304TIP3   OH231402   0.297   6.621  17.465  0.0359  0.2925 -0.2649
 3304TIP3    H131403   0.271   6.584  17.549 -0.2030  2.9956  0.9678
 3304TIP3    H231404   0.381   6.663  17.482  0.4968 -0.0182 -1.6674
 3305TIP3   OH231405   1.505   4.856  12.543  0.2219 -0.3695 -0.3865
 3305TIP3    H131406   1.528   4.871  12.635 -1.0975 -1.3748  0.1448
 3305TIP3    H231407   1.565   4.912  12.494  1.9926 -0.9530  1.0106
 3306TIP3   OH231408   5.773   3.862   3.433  0.3935 -0.2030 -0.1527
 3306TIP3    H131409   5.692   3.912   3.419 -0.0391  0.0231  2.6308
 3306TIP3    H231410   5.842   3.929   3.435  0.2222 -0.0406  0.5343
 3307TIP3   OH231411   3.534   5.013   3.546 -0.1389 -0.1246 -0.3755
 3307TIP3    H131412   3.511   5.077   3.479 -0.4791 -0.4975 -0.6170
 3307TIP3    H231413   3.611   5.050   3.590 -0.9608  0.9630  0.1962
 3308TIP3   OH231414   2.221   2.130   1.485 -0.4963 -0.3390 -0.2376
 3308TIP3    H131415   2.235   2.202   1.423 -0.1517 -1.3332 -1.3455
 3308TIP3    H231416   2.129   2.139   1.511 -0.5862  0.2184 -0.7362
 3309TIP3   OH231417   4.342   3.650   1.061 -0.3278  0.6265  0.0766
 3309TIP3    H131418   4.270   3.589   1.047 -0.2482  0.5300  0.0951
 3309TIP3    H231419   4.349   3.659   1.156 -0.5668  0.9309  0.0697
 3310TIP3   OH231420   1.038   6.236  11.820  0.3510  0.7015  0.1212
 3310TIP3    H131421   0.978   6.162  11.815 -0.8035  1.4391  2.0751
 3310TIP3    H231422   0.994   6.308  11.775 -0.9155  1.5979  2.5973
 3311TIP3   OH231423   5.292   5.472   4.040  0.4638  0.4039  0.0266
 3311TIP3    H131424   5.207   5.503   4.009  0.4691 -0.8939 -1.4014
 3311TIP3    H231425   5.278   5.380   4.062  1.7226 -0.1686 -1.3457
 3312TIP3   OH231426   6.093   3.650  12.635 -0.9090 -0.4308  0.7919
 3312TIP3    H131427   6.162   3.584  12.632 -0.8665 -0.3702  0.2113
 3312TIP3    H231428   6.021   3.612  12.584 -0.0165  0.9066 -1.6292
 3313TIP3   OH231429   3.488   4.661   5.023  0.4891 -0.1379  0.5709
 3313TIP3    H131430   3.518   4.660   5.113  0.1345 -1.0010  0.6878
 3313TIP3    H231431   3.462   4.571   5.005  1.4336 -0.1923 -0.6942
 3314TIP3   OH231432   1.334   6.664   4.348 -0.3084 -0.3473  0.1414
 3314TIP3    H131433   1.386   6.591   4.381  0.6894 -0.0300 -0.6808
 3314TIP3    H231434   1.314   6.716   4.426  2.1648  0.4946  0.3129
 3315TIP3   OH231435   4.216   5.968  15.110  0.6911  0.0666 -0.1195
 3315TIP3    H131436   4.127   5.935  15.124  0.8838 -0.2766  0.3156
 3315TIP3    H231437   4.235   6.022  15.186  1.3912 -1.0380  0.5149
 3316TIP3   OH231438   5.546   3.596   4.311  0.1651 -0.3951 -0.1929
 3316TIP3    H131439   5.622   3.652   4.297  0.6476 -1.0616 -0.2444
 3316TIP3    H231440   5.582   3.508   4.324 -0.5808 -0.6849 -0.0294
 3317TIP3   OH231441   0.083   1.506   4.468  0.2400  0.4652  0.5706
 3317TIP3    H131442   0.136   1.554   4.406  1.5173 -0.7290  0.6891
 3317TIP3    H231443   0.144   1.478   4.536 -0.8971  0.6811  1.7365
 3318TIP3   OH231444   3.379   5.738   3.529 -0.1053  0.5510 -0.0928
 3318TIP3    H131445   3.459   5.789   3.512  0.1898  0.7057  1.5937
 3318TIP3    H231446   3.355   5.760   3.619 -0.4357 -1.6732  0.4232
 3319TIP3   OH231447   4.723   5.744  17.457 -0.0256 -0.2606 -0.1681
 3319TIP3    H131448   4.721   5.715  17.548 -0.3508 -3.0870 -0.9811
 3319TIP3    H231449   4.636   5.781  17.442 -0.3786 -0.8323  0.3862
 3320TIP3   OH231450   2.543   3.184  17.018  0.0116  0.2747  0.4163
 3320TIP3    H131451   2.540   3.255  16.954 -3.0427  0.0709  0.2179
 3320TIP3    H231452   2.564   3.227  17.101 -0.6380  1.2416  0.0936
 3321TIP3   OH231453   0.997   4.956   2.875 -0.1900  0.4448 -0.5890
 3321TIP3    H131454   1.009   5.043   2.836 -0.7785  1.6540  1.7438
 3321TIP3    H231455   1.007   4.971   2.969 -1.6238 -1.7902 -0.0270
 3322TIP3   OH231456   2.759   3.136   3.539  0.7109 -0.3369  0.5935
 3322TIP3    H131457   2.674   3.120   3.580 -1.0520  0.2095 -2.5262
 3322TIP3    H231458   2.755   3.226   3.507  1.1426 -1.1902 -2.2305
 3323TIP3   OH231459   2.266   4.979  13.576 -0.2453 -0.1477 -0.3813
 3323TIP3    H131460   2.305   4.892  13.571  2.2885  0.7786  1.1457
 3323TIP3    H231461   2.190   4.975  13.518 -0.2919 -3.3730 -0.2753
 3324TIP3   OH231462   4.343   1.494   3.359 -0.7205 -0.6892  0.0877
 3324TIP3    H131463   4.397   1.552   3.305 -1.6141 -1.3573 -1.5831
 3324TIP3    H231464   4.292   1.554   3.414 -1.1570  0.0948 -1.1439
 3325TIP3   OH231465   2.058   0.168   2.379  0.0735 -0.1313  0.0189
 3325TIP3    H131466   1.988   0.220   2.339  0.3967  0.5443  0.3115
 3325TIP3    H231467   2.024   0.079   2.378 -0.4955  0.0775 -0.4958
 3326TIP3   OH231468   1.144   5.605  11.049 -0.7717  0.0989  0.0712
 3326TIP3    H131469   1.065   5.561  11.019  0.0316 -0.3852 -1.4566
 3326TIP3    H231470   1.132   5.615  11.144 -0.4030 -4.8339  0.9189
 3327TIP3   OH231471   3.719   5.713  11.490 -0.5453  0.2211 -0.0901
 3327TIP3    H131472   3.727   5.619  11.470  2.4214 -0.0982  2.0490
 3327TIP3    H231473   3.633   5.721  11.532 -0.9288 -1.4885 -0.4687
 3328TIP3   OH231474   1.051   3.444  15.368  0.8414  0.3741  0.7441
 3328TIP3    H131475   1.079   3.431  15.458  0.6099  0.1846  0.7888
 3328TIP3    H231476   1.110   3.391  15.316  0.1051 -0.6210  0.8966
 3329TIP3   OH231477   4.173   4.311  15.210  0.1563 -0.3887  0.0457
 3329TIP3    H131478   4.092   4.287  15.255  0.1810  0.2119  0.4166
 3329TIP3    H231479   4.229   4.348  15.278  0.3986  0.0384 -0.3743
 3330TIP3   OH231480   0.022   2.468  17.419  0.8859  0.1522 -0.2909
 3330TIP3    H131481   0.073   2.508  17.489 -0.0618 -1.7981  1.6392
 3330TIP3    H231482   0.081   2.467  17.344  2.5587  0.8282  0.9522
 3331TIP3   OH231483   0.157   0.182   3.279  0.3695  0.1237  0.0776
 3331TIP3    H131484   0.078   0.166   3.332  0.3688 -0.8040 -0.1959
 3331TIP3    H231485   0.211   0.104   3.292  1.4929  0.9737  0.6793
 3332TIP3   OH231486   0.220   5.413   2.430  0.1826 -0.5509  0.3765
 3332TIP3    H131487   0.175   5.492   2.460  0.4319  0.4533 -1.7440
 3332TIP3    H231488   0.175   5.389   2.349  1.8466 -0.9781 -0.4712
 3333TIP3   OH231489   1.996   0.473  15.575 -0.7287  0.0829  0.5301
 3333TIP3    H131490   1.933   0.505  15.510  0.1674  0.8585  0.0236
 3333TIP3    H231491   2.021   0.551  15.624  1.8522  0.3592 -1.0204
 3334TIP3   OH231492   4.861   1.452   2.061  0.0430 -0.2628 -0.4431
 3334TIP3    H131493   4.926   1.434   2.129 -1.3037 -0.2392  0.8999
 3334TIP3    H231494   4.903   1.424   1.980  2.1955  0.8850  0.1977
 3335TIP3   OH231495   6.536   2.259   2.108  0.2135  0.3449 -0.2567
 3335TIP3    H131496   6.506   2.170   2.088  0.9580 -0.0426  0.2838
 3335TIP3    H231497   6.629   2.249   2.126 -0.1481  0.8338  2.2056
 3336TIP3   OH231498   0.398   6.253   5.830 -0.2896 -0.0215  0.4144
 3336TIP3    H131499   0.488   6.222   5.830 -0.7207 -1.8232  4.0135
 3336TIP3    H231500   0.403   6.342   5.794  2.5807 -0.6585 -1.0434
 3337TIP3   OH231501   1.314   0.966   1.546 -0.1726 -0.7157 -0.2173
 3337TIP3    H131502   1.370   0.937   1.617 -0.8793  0.5479  0.9241
 3337TIP3    H231503   1.365   0.951   1.466  1.2694 -0.7434  0.6766
 3338TIP3   OH231504   1.332   4.144   1.543  0.7902 -0.8046 -0.3840
 3338TIP3    H131505   1.399   4.143   1.611  1.0382  0.9525 -0.5443
 3338TIP3    H231506   1.339   4.058   1.501  2.5984 -0.8708 -0.0569
 3339TIP3   OH231507   4.356   1.880  14.455  0.0596  0.5275 -0.5037
 3339TIP3    H131508   4.332   1.954  14.510 -2.9178 -0.4165 -0.3645
 3339TIP3    H231509   4.333   1.803  14.506  1.3604 -0.4904 -1.3702
 3340TIP3   OH231510   4.616   5.605  10.759  0.7236  0.9605  0.2149
 3340TIP3    H131511   4.656   5.690  10.777 -1.3925  2.4289 -1.4574
 3340TIP3    H231512   4.672   5.541  10.803  1.5076  3.3400  2.8850
 3341TIP3   OH231513   5.280   0.383  15.997  0.3333  0.1177  0.1278
 3341TIP3    H131514   5.250   0.446  15.931  1.0214  0.3678  0.0470
 3341TIP3    H231515   5.215   0.390  16.067 -0.4358 -0.1891 -0.5395
 3342TIP3   OH231516   1.406   4.047   0.768  0.2174  0.1560 -0.1697
 3342TIP3    H131517   1.324   4.050   0.719 -1.0578  2.1753  1.8901
 3342TIP3    H231518   1.425   4.138   0.788  1.5723 -0.4718  1.6367
 3343TIP3   OH231519   6.326   3.655   5.313  0.5933  0.7570  0.4060
 3343TIP3    H131520   6.395   3.617   5.367  1.4872  0.0522 -1.1468
 3343TIP3    H231521   6.259   3.588   5.310  1.8081 -0.4852 -1.6465
 3344TIP3   OH231522   5.368   5.711  13.471  0.3438  0.2160 -0.1458
 3344TIP3    H131523   5.461   5.719  13.490  0.5716  1.0014 -1.4732
 3344TIP3    H231524   5.337   5.801  13.463 -0.2340 -0.0445 -1.0208
 3345TIP3   OH231525   0.136   5.161   5.086 -0.1637 -0.2322  0.2892
 3345TIP3    H131526   0.057   5.139   5.038  0.4520 -1.9266 -0.0321
 3345TIP3    H231527   0.199   5.188   5.018  0.3161 -1.4132  0.2398
 3346TIP3   OH231528   4.559   4.806  17.050  0.2179 -0.6363 -0.0242
 3346TIP3    H131529   4.552   4.896  17.082 -0.3932 -1.0231  0.9611
 3346TIP3    H231530   4.653   4.787  17.055  0.2434 -0.3684  0.6743
 3347TIP3   OH231531   0.454   3.954  15.149  0.3069 -0.7862 -0.5062
 3347TIP3    H131532   0.508   4.012  15.201  0.6541 -0.3641 -1.3292
 3347TIP3    H231533   0.434   3.881  15.207  0.6205 -0.2832  0.2360
 3348TIP3   OH231534   3.066   4.755   4.783 -0.3016 -0.0060 -0.6011
 3348TIP3    H131535   3.133   4.695   4.750 -0.9635 -0.7105 -0.7109
 3348TIP3    H231536   2.988   4.700   4.792 -2.2417  1.5869 -4.8210
 3349TIP3   OH231537   2.707   1.091   1.009 -0.2604 -0.4195 -0.6857
 3349TIP3    H131538   2.794   1.071   0.977  0.6056  3.2241 -1.0673
 3349TIP3    H231539   2.691   1.181   0.981 -1.5602  1.3407  4.5585
 3350TIP3   OH231540   2.385   2.363  12.918  0.2410  0.2112 -0.0839
 3350TIP3    H131541   2.389   2.457  12.901 -0.7138 -0.1899 -3.0604
 3350TIP3    H231542   2.302   2.350  12.964 -0.5007  0.6835 -1.2322
 3351TIP3   OH231543   2.245   5.240  12.280 -0.6082  0.2990 -0.4384
 3351TIP3    H131544   2.186   5.237  12.355 -0.6260 -1.2873 -0.4756
 3351TIP3    H231545   2.189   5.263  12.206 -1.4430 -2.1122 -0.6464
 3352TIP3   OH231546   2.559   4.245   5.378  0.0392 -0.4018  0.0050
 3352TIP3    H131547   2.523   4.204   5.457 -1.6808  1.2544  0.1513
 3352TIP3    H231548   2.531   4.337   5.384  2.0805  0.3589 -1.2607
 3353TIP3   OH231549   0.989   5.503  11.472 -0.4511 -0.0506 -0.1516
 3353TIP3    H131550   0.967   5.425  11.523 -0.5277 -0.7491 -1.2330
 3353TIP3    H231551   0.950   5.487  11.386  0.4011  0.7264 -0.6912
 3354TIP3   OH231552   6.366   0.022  15.577 -0.2888 -0.5753 -0.0559
 3354TIP3    H131553   6.285   0.073  15.580 -0.3981 -0.7382 -0.2255
 3354TIP3    H231554   6.373  -0.006  15.485  0.3281  0.0408 -0.2064
 3355TIP3   OH231555   1.606   4.397   4.201 -0.6161  0.1335  0.6910
 3355TIP3    H131556   1.673   4.462   4.221 -1.1020  0.1115  2.5828
 3355TIP3    H231557   1.601   4.344   4.280 -3.1416  0.3977  0.7730
 3356TIP3   OH231558   1.322   5.384   3.238  0.3125  0.2338 -1.0009
 3356TIP3    H131559   1.376   5.310   3.265  0.4110  0.2594 -1.1280
 3356TIP3    H231560   1.310   5.372   3.143 -0.4107 -0.1065 -0.8772
 3357TIP3   OH231561   1.291   2.508   1.932 -0.1293  0.7249 -0.6711
 3357TIP3    H131562   1.238   2.434   1.904 -1.0772  1.0574  0.1777
 3357TIP3    H231563   1.276   2.576   1.866  0.7511  0.1729 -1.4564
 3358TIP3   OH231564   1.992   6.355  14.546 -0.2888  0.3881  0.1262
 3358TIP3    H131565   2.080   6.318  14.557 -0.7891 -0.4214  1.7189
 3358TIP3    H231566   1.937   6.279  14.526 -0.9601  0.5673  1.2288
 3359TIP3   OH231567   2.422   1.230  12.825  0.3178 -0.9506 -0.0131
 3359TIP3    H131568   2.417   1.166  12.897  1.5011 -0.1327  0.8348
 3359TIP3    H231569   2.399   1.313  12.866  2.8639 -0.1463 -0.0942
 3360TIP3   OH231570   3.266   6.013  16.221  0.3301 -0.3647  0.1311
 3360TIP3    H131571   3.271   6.039  16.312 -1.4715  1.7469 -0.2926
 3360TIP3    H231572   3.311   6.082  16.173 -1.2417  0.0869 -0.7648
 3361TIP3   OH231573   4.358   0.861  14.381 -0.1364 -0.2995  0.2311
 3361TIP3    H131574   4.451   0.847  14.363 -0.0128  0.5792  0.1494
 3361TIP3    H231575   4.317   0.861  14.294 -0.4490 -2.1240  0.3315
 3362TIP3   OH231576   0.857   1.451   1.226  0.5238 -0.1774  0.1185
 3362TIP3    H131577   0.779   1.478   1.276  0.6563  0.4293  0.0045
 3362TIP3    H231578   0.823   1.393   1.158 -0.0966  1.5698 -1.1249
 3363TIP3   OH231579   1.459   0.533  10.958  0.3238  0.0355  0.4129
 3363TIP3    H131580   1.508   0.610  10.987 -0.6223  0.6167  0.5201
 3363TIP3    H231581   1.446   0.546  10.864  0.2315 -0.0250  0.4167
 3364TIP3   OH231582   5.117   0.305  13.321 -0.2708 -0.0753 -0.1368
 3364TIP3    H131583   5.055   0.232  13.319  1.3994 -1.5386 -0.9906
 3364TIP3    H231584   5.099   0.350  13.403 -2.1211 -0.7366 -0.1336
 3365TIP3   OH231585   5.694   3.133  15.446 -0.2794 -0.6888  0.0267
 3365TIP3    H131586   5.626   3.102  15.386 -0.1994  1.6846 -1.4314
 3365TIP3    H231587   5.776   3.116  15.401 -0.0978 -0.5974  0.3174
 3366TIP3   OH231588   1.337   4.134   0.049  0.0586 -0.1723 -0.0350
 3366TIP3    H131589   1.271   4.075   0.012 -1.7856  1.7024  0.0394
 3366TIP3    H231590   1.421   4.091   0.032 -1.1322 -2.4229 -0.5963
 3367TIP3   OH231591   1.921   1.318   3.883  0.1186 -0.2927 -0.5807
 3367TIP3    H131592   1.882   1.295   3.799  0.2680  0.5104 -0.8785
 3367TIP3    H231593   1.948   1.409   3.873 -1.9597  0.6147  1.0852
 3368TIP3   OH231594   6.774   4.710  16.217 -0.1872  0.6684  0.1336
 3368TIP3    H131595   6.836   4.641  16.196  0.1065  0.3073  2.0044
 3368TIP3    H231596   6.722   4.675  16.290 -1.7653  1.4409 -0.5596
 3369TIP3   OH231597   1.189   0.118  13.796  0.1805  0.6076 -1.0577
 3369TIP3    H131598   1.213   0.039  13.747 -3.1198 -1.5125  0.3345
 3369TIP3    H231599   1.104   0.144  13.759  0.7268  2.9495 -0.7811
 3370TIP3   OH231600   4.765   6.668   5.086  0.2362 -0.3025 -0.1678
 3370TIP3    H131601   4.737   6.705   5.002 -0.8504 -3.6149 -1.3959
 3370TIP3    H231602   4.702   6.703   5.149 -1.5204 -0.9365 -1.4737
 3371TIP3   OH231603   3.946   1.150  11.457 -0.4335 -0.1827  0.1585
 3371TIP3    H131604   3.851   1.154  11.455 -0.4000  0.6379 -0.6198
 3371TIP3    H231605   3.973   1.241  11.473  0.2265 -0.3195 -0.1634
 3372TIP3   OH231606   4.636   6.624   6.160 -0.3800  0.6694  0.2675
 3372TIP3    H131607   4.644   6.530   6.145 -1.9485  0.6818 -0.8089
 3372TIP3    H231608   4.676   6.664   6.083 -2.4799  0.8012 -0.8339
 3373TIP3   OH231609   0.164   6.297   0.763  0.2663  0.1804  0.5443
 3373TIP3    H131610   0.093   6.347   0.721  0.2279 -0.6031 -0.3496
 3373TIP3    H231611   0.237   6.304   0.701  1.0077  1.0035  1.4693
 3374TIP3   OH231612   3.759   3.188  10.900 -0.2041  0.7911  1.0863
 3374TIP3    H131613   3.818   3.157  10.968 -0.8941  1.0286  1.8041
 3374TIP3    H231614   3.798   3.270  10.870  1.8847 -0.8833 -1.1475
 3375TIP3   OH231615   4.227   6.647   4.338  0.3260 -0.0922  0.5252
 3375TIP3    H131616   4.167   6.573   4.352 -0.8022  1.0224  1.9507
 3375TIP3    H231617   4.244   6.681   4.426  0.4687  1.5954 -0.1217
 3376TIP3   OH231618   0.059   3.947  14.990 -0.0382  0.2355  0.0180
 3376TIP3    H131619   0.091   4.033  14.964  0.7175  0.3147  1.1677
 3376TIP3    H231620   0.109   3.886  14.937 -1.1598  0.5028 -1.4135
 3377TIP3   OH231621   1.617   3.462  13.569 -0.0018  0.0914  0.3318
 3377TIP3    H131622   1.684   3.406  13.529  2.1498  2.4597  0.3299
 3377TIP3    H231623   1.638   3.462  13.662 -0.4516  0.2958  0.4383
 3378TIP3   OH231624   3.830   0.355  13.302  0.1560  0.5870  0.0458
 3378TIP3    H131625   3.858   0.410  13.375 -1.4234  0.1671  1.0287
 3378TIP3    H231626   3.866   0.269  13.321 -0.7300  0.3393  0.6631
 3379TIP3   OH231627   4.301   4.880   5.356  0.6448 -0.3358 -0.5080
 3379TIP3    H131628   4.342   4.963   5.378 -1.6743  1.3886 -2.1820
 3379TIP3    H231629   4.253   4.855   5.436  0.1720  0.7283 -0.4464
 3380TIP3   OH231630   3.481   0.044   4.393 -0.0069 -0.6060  0.1892
 3380TIP3    H131631   3.413  -0.018   4.369 -1.6218  0.6557  1.2480
 3380TIP3    H231632   3.445   0.129   4.367  1.1184  0.0965  0.8832
 3381TIP3   OH231633   6.766   0.409   4.468 -0.3353 -0.1107 -0.6574
 3381TIP3    H131634   6.672   0.399   4.459 -0.2394 -0.2946 -1.4688
 3381TIP3    H231635   6.797   0.437   4.382  0.2699  0.6019 -0.2293
 3382TIP3   OH231636   5.405   6.013   5.075 -0.1918 -0.4481 -0.2099
 3382TIP3    H131637   5.342   5.968   5.019 -1.7053  1.3191 -0.0425
 3382TIP3    H231638   5.423   6.095   5.029  0.7498 -0.2285  0.5340
 3383TIP3   OH231639   4.504   5.616  14.560 -0.5741 -0.4425  0.3179
 3383TIP3    H131640   4.545   5.683  14.615  0.4772  0.2006 -1.1944
 3383TIP3    H231641   4.573   5.589  14.499 -0.9861 -2.8497  0.7867
 3384TIP3   OH231642   1.880   1.687   0.558  0.0660  1.1145 -0.4359
 3384TIP3    H131643   1.908   1.737   0.481  0.6148 -0.7162 -1.4921
 3384TIP3    H231644   1.847   1.605   0.522 -0.4406  0.5464  1.2505
 3385TIP3   OH231645   4.416   4.132  11.991  0.2740  0.4410  0.9622
 3385TIP3    H131646   4.349   4.123  12.059  0.0035 -0.1623  0.6178
 3385TIP3    H231647   4.498   4.108  12.035  0.0873 -0.0332  1.0512
 3386TIP3   OH231648   0.307   0.467  11.451  0.1822 -0.1956 -0.3270
 3386TIP3    H131649   0.314   0.379  11.413  1.5161 -1.2198  2.0203
 3386TIP3    H231650   0.259   0.453  11.533  1.3830  1.0261  0.6360
 3387TIP3   OH231651   2.475   2.740   2.713  0.8848  0.4219  0.1874
 3387TIP3    H131652   2.467   2.727   2.807  1.2435  2.7657  0.6096
 3387TIP3    H231653   2.543   2.807   2.704  0.6442  0.4614 -1.7335
 3388TIP3   OH231654   1.877   3.895   3.925 -0.2402  0.4699  0.4896
 3388TIP3    H131655   1.878   3.987   3.897 -0.9670  0.7550  1.3594
 3388TIP3    H231656   1.784   3.873   3.932 -0.4842 -2.0070 -4.9348
 3389TIP3   OH231657   1.751   2.297   6.277 -0.1597 -0.1780 -0.3478
 3389TIP3    H131658   1.669   2.343   6.294 -2.2588 -3.7840  0.2957
 3389TIP3    H231659   1.776   2.260   6.362  2.9615  1.8051 -0.2282
 3390TIP3   OH231660   4.824   0.842  15.808 -0.3768 -0.3058  0.7464
 3390TIP3    H131661   4.885   0.778  15.847 -1.3349 -1.6492  0.1293
 3390TIP3    H231662   4.878   0.918  15.789  1.2862 -1.6752 -0.3652
 3391TIP3   OH231663   5.944   3.814   1.070  0.4213 -0.3152  0.3589
 3391TIP3    H131664   5.920   3.721   1.073  0.1454 -0.2347  0.8913
 3391TIP3    H231665   5.956   3.839   1.162 -1.6860  0.7126  0.4278
 3392TIP3   OH231666   0.661   3.711  11.519 -0.0394 -0.3206 -0.1208
 3392TIP3    H131667   0.581   3.763  11.518  0.4011  0.3974 -1.6509
 3392TIP3    H231668   0.640   3.635  11.464 -0.6474 -1.7918  2.0195
 3393TIP3   OH231669   2.644   6.562  12.714 -0.6440  0.5028 -0.3140
 3393TIP3    H131670   2.685   6.480  12.687  0.7074  0.8925  0.4521
 3393TIP3    H231671   2.566   6.569  12.659 -1.2414 -1.6804  0.1647
 3394TIP3   OH231672   1.709   1.169   0.176 -0.1401 -0.0354  0.0433
 3394TIP3    H131673   1.735   1.081   0.150  1.2175 -0.0048  1.1690
 3394TIP3    H231674   1.614   1.172   0.161  0.0027 -1.2268 -1.2482
 3395TIP3   OH231675   4.965   4.798  16.519  0.5104 -0.4815 -0.4002
 3395TIP3    H131676   4.877   4.791  16.558 -0.1159  0.5147 -1.5885
 3395TIP3    H231677   4.995   4.707  16.514 -0.2704 -0.8127  0.3996
 3396TIP3   OH231678   0.848   3.496   4.662 -0.2547  0.7946  0.4092
 3396TIP3    H131679   0.941   3.509   4.642 -0.2399 -0.9535 -0.8835
 3396TIP3    H231680   0.805   3.491   4.577 -1.2609 -0.0929  0.9485
 3397TIP3   OH231681   5.935   5.541   5.892  0.3632 -0.1912 -0.3158
 3397TIP3    H131682   5.997   5.535   5.965  0.7740 -0.7233 -0.7005
 3397TIP3    H231683   5.883   5.461   5.898 -0.1113  0.1237 -0.1615
 3398TIP3   OH231684   4.644   0.506   4.578 -0.1839 -0.2069  0.3152
 3398TIP3    H131685   4.599   0.508   4.663 -0.2765 -0.5916  0.2809
 3398TIP3    H231686   4.693   0.588   4.574  0.0909 -0.3395  0.8922
 3399TIP3   OH231687   3.889   3.306   3.610 -0.1497  0.6444  0.5083
 3399TIP3    H131688   3.800   3.278   3.587  0.5237  0.0765 -1.6161
 3399TIP3    H231689   3.932   3.227   3.641 -0.7979  1.2401  3.1899
 3400TIP3   OH231690   4.873   0.419  13.876 -0.3286 -0.5354  0.0262
 3400TIP3    H131691   4.962   0.446  13.853 -0.6313 -0.5314 -1.1897
 3400TIP3    H231692   4.828   0.501  13.894 -0.5581 -0.3919 -1.1386
 3401TIP3   OH231693   0.655   4.327   4.436 -0.2774  0.5269 -0.1062
 3401TIP3    H131694   0.624   4.294   4.352 -0.0155 -1.7439  0.6148
 3401TIP3    H231695   0.583   4.308   4.497  0.4928 -0.0841  0.6261
 3402TIP3   OH231696   0.647   1.035  16.764  0.4576  0.1670  0.6184
 3402TIP3    H131697   0.598   1.089  16.701  0.7065 -0.3540 -0.0325
 3402TIP3    H231698   0.628   0.945  16.738  1.7116 -0.0525  0.3707
 3403TIP3   OH231699   4.682   4.028  13.266 -0.0741 -0.0681  0.6438
 3403TIP3    H131700   4.635   3.963  13.213  0.3816  1.1843 -1.3927
 3403TIP3    H231701   4.750   3.977  13.309  0.4144 -0.9644 -1.0700
 3404TIP3   OH231702   0.154   2.627   3.653  0.1534  0.1678  0.3035
 3404TIP3    H131703   0.059   2.639   3.655  0.2313  0.7453  1.1907
 3404TIP3    H231704   0.166   2.532   3.649 -0.4564  0.1188 -2.6229
 3405TIP3   OH231705   0.605   3.561   5.340  0.5007 -0.1348  0.6476
 3405TIP3    H131706   0.645   3.517   5.415  0.3830 -2.4931 -0.5895
 3405TIP3    H231707   0.670   3.625   5.312  1.4608 -0.7369  1.4643
 3406TIP3   OH231708   2.432   1.532  17.219  0.1437 -0.3010 -0.6366
 3406TIP3    H131709   2.474   1.447  17.232 -0.1058 -0.4268 -0.6345
 3406TIP3    H231710   2.369   1.517  17.148 -2.3538 -1.0348  1.5754
 3407TIP3   OH231711   4.712   3.176  15.125  0.0104  0.0095  0.2316
 3407TIP3    H131712   4.685   3.192  15.035 -0.3791 -2.3025 -0.1318
 3407TIP3    H231713   4.632   3.148  15.169  0.5868 -0.8406  0.7611
 3408TIP3   OH231714   5.568   1.168  14.444 -0.8065  0.1910  0.0249
 3408TIP3    H131715   5.555   1.173  14.350 -0.7367  3.1169  0.1000
 3408TIP3    H231716   5.656   1.204  14.458 -1.9071  2.5347  1.3818
 3409TIP3   OH231717   6.578   5.164  14.943  0.6830  0.3528  0.2184
 3409TIP3    H131718   6.625   5.192  14.865  0.9855 -2.5000 -0.7343
 3409TIP3    H231719   6.640   5.175  15.015  1.3910  0.4112 -0.3982
 3410TIP3   OH231720   0.808   5.320  14.414  0.0284 -0.2435 -0.1630
 3410TIP3    H131721   0.719   5.344  14.389  0.1318  1.3915  0.8881
 3410TIP3    H231722   0.859   5.400  14.399  1.1431 -0.8743  0.1445
 3411TIP3   OH231723   5.780   1.644   5.346  0.5580 -0.0022 -0.2128
 3411TIP3    H131724   5.779   1.720   5.404 -0.5214 -0.5298  0.4934
 3411TIP3    H231725   5.711   1.661   5.282 -0.9511 -1.1395  1.0196
 3412TIP3   OH231726   1.938   1.447  11.659 -0.5154  0.0492  0.1302
 3412TIP3    H131727   1.925   1.459  11.753  1.0875  0.9464  0.2607
 3412TIP3    H231728   2.017   1.395  11.651  1.5371  3.0388 -0.7054
 3413TIP3   OH231729   1.739   1.113  16.749 -0.3639  0.0438 -0.2023
 3413TIP3    H131730   1.688   1.159  16.681 -0.7818  1.7297  1.1860
 3413TIP3    H231731   1.830   1.123  16.721 -0.5626  0.1329 -0.8504
 3414TIP3   OH231732   1.145   0.428   4.182 -0.2335 -0.2799 -0.4448
 3414TIP3    H131733   1.211   0.430   4.112 -0.2846  2.4730 -0.5277
 3414TIP3    H231734   1.196   0.431   4.263 -0.2222  0.0901 -0.4644
 3415TIP3   OH231735   2.977   2.760   4.843  0.2035  0.5382  0.0164
 3415TIP3    H131736   2.950   2.745   4.752 -0.1678 -0.9320  0.3346
 3415TIP3    H231737   3.037   2.834   4.839 -0.2982  0.9015 -1.3425
 3416TIP3   OH231738   0.604   2.985   6.157  0.1223  0.4516 -0.0496
 3416TIP3    H131739   0.640   2.978   6.246 -1.9092 -0.5687  0.7546
 3416TIP3    H231740   0.679   2.967   6.100  1.1202 -0.5911  1.5012
 3417TIP3   OH231741   6.644   2.957   5.995 -0.4347 -0.1165 -0.1586
 3417TIP3    H131742   6.677   2.976   5.908 -1.2817 -0.6214 -0.6064
 3417TIP3    H231743   6.660   3.037   6.045  1.2416 -0.2646 -0.3972
 3418TIP3   OH231744   0.521   3.444  14.772 -0.2158 -0.2884 -0.7630
 3418TIP3    H131745   0.522   3.429  14.867 -1.8503 -0.9117 -0.8134
 3418TIP3    H231746   0.439   3.491  14.756  0.4251  0.5172 -1.7846
 3419TIP3   OH231747   0.307   0.335  16.937 -0.4453 -0.0416  0.0427
 3419TIP3    H131748   0.285   0.419  16.896  0.1784  0.1653  0.1304
 3419TIP3    H231749   0.393   0.313  16.903 -0.0151  0.0144  1.0556
 3420TIP3   OH231750   0.700   4.671  14.210  0.1244  0.0022 -0.6231
 3420TIP3    H131751   0.789   4.643  14.190  0.6632  1.5031 -0.4273
 3420TIP3    H231752   0.710   4.749  14.264 -1.3205 -0.3525  0.2147
 3421TIP3   OH231753   1.734   2.915  17.071  0.1266 -0.4870 -0.1070
 3421TIP3    H131754   1.702   2.921  16.981  0.5804 -1.9362 -0.3961
 3421TIP3    H231755   1.825   2.887  17.062  0.1257 -0.8168  0.7953
 3422TIP3   OH231756   1.508   0.769   5.272 -0.4863 -0.4789 -0.0319
 3422TIP3    H131757   1.520   0.690   5.219 -0.9570 -0.5538 -0.0270
 3422TIP3    H231758   1.415   0.790   5.263 -0.4945 -0.2898  0.4861
 3423TIP3   OH231759   4.690   3.383  15.785  0.4705  0.0922  0.4903
 3423TIP3    H131760   4.743   3.403  15.863  0.8751 -1.9630  0.8044
 3423TIP3    H231761   4.716   3.450  15.721  0.8369  1.2483  1.7791
 3424TIP3   OH231762   5.025   5.746  12.333 -0.7296 -0.0707 -0.1797
 3424TIP3    H131763   5.026   5.734  12.428 -0.1381  0.7567 -0.0694
 3424TIP3    H231764   4.936   5.773  12.313 -1.3633 -1.9932 -0.1066
 3425TIP3   OH231765   5.817   0.858  16.798 -0.1840 -0.0457 -0.2377
 3425TIP3    H131766   5.834   0.818  16.883  0.0150  1.1294  0.2950
 3425TIP3    H231767   5.737   0.908  16.810 -0.9796 -1.0472 -1.1741
 3426TIP3   OH231768   0.531   2.182  17.250  0.1326 -0.2013 -0.1595
 3426TIP3    H131769   0.452   2.236  17.259  0.5104  0.3549 -0.1260
 3426TIP3    H231770   0.535   2.162  17.156  0.8895  1.2460 -0.4791
 3427TIP3   OH231771   2.175   4.870  13.962 -0.4798  0.7495  0.3454
 3427TIP3    H131772   2.145   4.921  14.038  1.2836  1.3099  0.7254
 3427TIP3    H231773   2.260   4.908  13.941  1.7979 -3.0286  1.7205
 3428TIP3   OH231774   4.342   6.109  15.319 -0.0067 -0.6864 -0.4535
 3428TIP3    H131775   4.433   6.132  15.300 -0.5462  1.4402 -0.6693
 3428TIP3    H231776   4.342   6.089  15.413  0.3878  1.0494 -0.0482
 3429TIP3   OH231777   4.494   3.863  16.402 -0.1982  0.4638  0.2912
 3429TIP3    H131778   4.419   3.921  16.387 -0.5114  0.2479  0.9573
 3429TIP3    H231779   4.465   3.806  16.474  0.4653  0.1270  0.2933
 3430TIP3   OH231780   3.865   0.225   4.174  0.0713  0.0458 -0.7190
 3430TIP3    H131781   3.853   0.218   4.079 -2.9398  0.1760 -0.4577
 3430TIP3    H231782   3.776   0.234   4.208  1.0294 -0.5583  2.1881
 3431TIP3   OH231783   1.890   6.206  14.890  0.2987 -0.1326  0.3499
 3431TIP3    H131784   1.812   6.240  14.846  0.9943 -0.2038 -0.9961
 3431TIP3    H231785   1.931   6.283  14.929 -1.1483 -0.2771  2.2990
 3432TIP3   OH231786   5.255   5.925  13.866 -0.4156  0.3203 -0.7824
 3432TIP3    H131787   5.180   5.924  13.806 -1.8113 -0.8376  0.8653
 3432TIP3    H231788   5.232   5.992  13.931  0.1697  0.2478 -0.4989
 3433TIP3   OH231789   4.551   6.475  17.015  0.0374  0.0591  0.3051
 3433TIP3    H131790   4.606   6.553  17.025 -1.1725  0.9635  0.0771
 3433TIP3    H231791   4.497   6.473  17.093 -0.6353  0.0228 -0.1509
 3434TIP3   OH231792   3.686   4.145  14.585 -0.2741 -0.3849  0.1943
 3434TIP3    H131793   3.701   4.239  14.596  0.1176 -0.5070  0.7778
 3434TIP3    H231794   3.592   4.133  14.600 -0.0620 -0.2906  1.7023
 3435TIP3   OH231795   0.695   1.547  16.349  0.3026  0.2433  0.4952
 3435TIP3    H131796   0.625   1.577  16.292 -1.1848 -1.1636  1.4971
 3435TIP3    H231797   0.733   1.627  16.385 -0.5765  1.0452 -0.3006
 3436TIP3   OH231798   5.846   3.842  15.609 -0.1548  0.3758  0.8645
 3436TIP3    H131799   5.828   3.756  15.570  1.0318  0.4215  0.1526
 3436TIP3    H231800   5.761   3.883  15.619 -0.8840 -1.3799  2.4074
 3437TIP3   OH231801   5.782   6.412   4.944  0.7994  0.8866 -0.7102
 3437TIP3    H131802   5.726   6.382   4.872 -0.8410 -1.0331  1.2496
 3437TIP3    H231803   5.739   6.491   4.977 -0.9551 -0.6515  0.8725
 3438TIP3   OH231804   4.336   1.789   3.012  0.1838 -0.5188  0.0758
 3438TIP3    H131805   4.316   1.782   3.105  0.5801 -2.1682  0.0741
 3438TIP3    H231806   4.264   1.743   2.969 -0.2420  0.6362 -0.4879
 3439TIP3   OH231807   4.245   1.078  12.827  0.1088 -0.5589 -0.3978
 3439TIP3    H131808   4.288   1.000  12.862  1.6829 -0.1756 -1.4018
 3439TIP3    H231809   4.313   1.124  12.778 -1.6098 -0.2837 -2.7010
 3440TIP3   OH231810   3.882   3.711  16.131  0.0395  0.0980  0.2867
 3440TIP3    H131811   3.869   3.733  16.039 -2.4512 -2.6132 -0.1739
 3440TIP3    H231812   3.976   3.720  16.144  0.3210  1.7918 -2.1315
 3441TIP3   OH231813   3.342   3.958  11.403  0.2136 -0.0108  0.7737
 3441TIP3    H131814   3.283   4.016  11.355 -1.2735 -1.2342  1.0586
 3441TIP3    H231815   3.316   3.967  11.495  0.2549 -0.7749  0.8709
 3442TIP3   OH231816   4.224   4.547  12.465  0.2251  0.0266  0.4675
 3442TIP3    H131817   4.209   4.621  12.406  0.7608  0.4251  0.8242
 3442TIP3    H231818   4.313   4.518  12.445  1.7818  2.2839  3.3136
 3443TIP3   OH231819   2.445   1.521  14.813 -0.4246 -0.0696 -0.2192
 3443TIP3    H131820   2.397   1.514  14.895 -0.5635 -2.1563 -0.4140
 3443TIP3    H231821   2.416   1.603  14.774 -2.0685 -0.1578  0.7570
 3444TIP3   OH231822   0.030   5.150  14.252 -0.8652  0.2757  0.6883
 3444TIP3    H131823  -0.041   5.187  14.200  0.5791  0.8660 -0.9587
 3444TIP3    H231824   0.091   5.223  14.265  1.0011 -0.9283 -0.7740
 3445TIP3   OH231825   3.936   1.897   4.166 -0.2298 -0.6859  0.3715
 3445TIP3    H131826   3.930   1.802   4.170  1.4636 -0.9138 -1.1343
 3445TIP3    H231827   4.015   1.918   4.214  1.1164 -0.3958 -1.8087
 3446TIP3   OH231828   5.216   3.894   2.938 -0.3584 -0.4273 -0.0141
 3446TIP3    H131829   5.183   3.828   2.998 -0.7245  1.6083  2.1454
 3446TIP3    H231830   5.190   3.977   2.976  1.5454  1.0690 -1.7286
 3447TIP3   OH231831   1.372   1.638  11.805 -0.5368 -0.2860 -0.5562
 3447TIP3    H131832   1.285   1.668  11.829 -0.3515 -0.0775 -0.1345
 3447TIP3    H231833   1.360   1.594  11.720 -1.1356 -0.7343 -0.2441
 3448TIP3   OH231834   0.930   1.867  12.800  0.2388 -0.3694 -0.0490
 3448TIP3    H131835   0.843   1.886  12.834  1.2749  3.3795  0.9717
 3448TIP3    H231836   0.917   1.861  12.705 -1.0837  0.7834  0.0191
 3449TIP3   OH231837   2.798   2.141  14.408 -0.1333 -0.4738  0.6549
 3449TIP3    H131838   2.849   2.125  14.328 -0.6879 -0.3693  0.2752
 3449TIP3    H231839   2.715   2.178  14.377 -0.2035 -0.0594  1.3056
 3450TIP3   OH231840   6.596   5.464   5.471 -0.7263  0.0427  0.5638
 3450TIP3    H131841   6.585   5.377   5.510 -2.5026 -0.8860 -1.7604
 3450TIP3    H231842   6.675   5.456   5.417 -1.0165 -0.2078  0.1739
 3451TIP3   OH231843   3.022   1.334   2.562 -1.0641  0.5412 -0.7872
 3451TIP3    H131844   2.938   1.381   2.561 -1.9718 -1.0241 -0.3381
 3451TIP3    H231845   3.072   1.374   2.490 -1.6857  2.3361 -0.2892
 3452TIP3   OH231846   4.577   4.951   5.178 -0.1670 -0.3115 -0.6365
 3452TIP3    H131847   4.567   4.906   5.094  0.1025  0.2582 -0.9764
 3452TIP3    H231848   4.536   4.892   5.241 -0.1579 -0.8580 -1.1311
 3453TIP3   OH231849   5.454   3.197   1.956 -0.3697  0.0263  0.5094
 3453TIP3    H131850   5.426   3.146   2.032 -1.5805 -0.3906 -0.1795
 3453TIP3    H231851   5.545   3.170   1.941 -0.4523 -0.6606  1.1865
 3454TIP3   OH231852   2.330   0.819  15.893  0.0932  0.0620 -0.4148
 3454TIP3    H131853   2.419   0.784  15.893  0.2512  0.4325 -1.4365
 3454TIP3    H231854   2.339   0.908  15.859 -0.7917 -0.2741 -1.6212
 3455TIP3   OH231855   5.197   2.020  14.555  0.4663 -0.6772  0.4760
 3455TIP3    H131856   5.185   2.039  14.648  0.2216  0.6974  0.1763
 3455TIP3    H231857   5.114   1.983  14.527 -0.2446  0.9641  0.3257
 3456TIP3   OH231858   5.519   4.016  16.988 -0.1126  0.3886 -0.3837
 3456TIP3    H131859   5.511   3.973  17.073 -0.5500  0.5602 -0.3404
 3456TIP3    H231860   5.434   4.057  16.973  0.0324  0.5384 -0.8071
 3457TIP3   OH231861   1.922   1.910   3.192 -0.2023  0.0977 -0.0058
 3457TIP3    H131862   2.000   1.869   3.156 -0.1044  0.3070 -0.0359
 3457TIP3    H231863   1.850   1.851   3.169 -0.5636  1.5016 -2.9050
 3458TIP3   OH231864   5.590   1.080  16.839  0.8868  0.4418  0.1793
 3458TIP3    H131865   5.552   1.051  16.922 -0.8432  0.2452 -0.6392
 3458TIP3    H231866   5.526   1.055  16.773  1.3629  2.2275 -1.0456
 3459TIP3   OH231867   1.749   0.167  15.342 -0.3092  0.5795 -0.4552
 3459TIP3    H131868   1.730   0.086  15.295 -1.0964  0.3391  0.2559
 3459TIP3    H231869   1.666   0.214  15.344  0.2410  1.6353 -1.2662
 3460TIP3   OH231870   3.856   5.318  13.651 -0.0839  0.3937  0.0332
 3460TIP3    H131871   3.864   5.298  13.744  0.9053 -1.0130 -0.3309
 3460TIP3    H231872   3.943   5.346  13.625 -0.4472  1.1497 -0.4045
 3461TIP3   OH231873   3.169   3.171  14.499  0.4172 -0.1881  0.1081
 3461TIP3    H131874   3.253   3.145  14.460  0.5979 -1.3726  1.2260
 3461TIP3    H231875   3.134   3.090  14.536 -1.5432  0.1421 -0.8971
 3462TIP3   OH231876   0.267   0.527   1.775 -0.0744  0.2193 -0.0241
 3462TIP3    H131877   0.238   0.523   1.866 -1.1046 -0.0099 -0.3463
 3462TIP3    H231878   0.304   0.614   1.765  1.7192 -0.3441  1.0791
 3463TIP3   OH231879   3.725   2.904  12.987  0.5162 -0.1600 -0.3313
 3463TIP3    H131880   3.772   2.980  12.954  1.3758 -0.2670  0.6078
 3463TIP3    H231881   3.793   2.840  13.006 -0.0714 -0.6162  0.3030
 3464TIP3   OH231882   0.174   3.936   1.223  0.3621  0.4373 -0.3049
 3464TIP3    H131883   0.148   3.973   1.138  0.5856 -0.6395 -0.8634
 3464TIP3    H231884   0.093   3.928   1.272 -0.1922 -1.5121 -1.4755
 3465TIP3   OH231885   5.158   6.680   3.556 -0.2522 -0.6681  0.0581
 3465TIP3    H131886   5.108   6.759   3.578 -2.1649 -1.3975 -1.3701
 3465TIP3    H231887   5.221   6.672   3.627 -1.5919  0.8137  1.5282
 3466TIP3   OH231888   3.681   0.747  12.470 -0.1736 -0.0655  0.3255
 3466TIP3    H131889   3.745   0.676  12.467  0.5285  0.5922 -2.1879
 3466TIP3    H231890   3.645   0.751  12.382 -1.1881  1.8370  0.7721
 3467TIP3   OH231891   3.711   0.261   4.732 -0.3579  0.0724  0.3655
 3467TIP3    H131892   3.806   0.256   4.724 -0.0835  1.6591  1.9307
 3467TIP3    H231893   3.697   0.318   4.808 -2.5626  0.3143 -0.1750
 3468TIP3   OH231894   5.592   6.070   5.587 -0.3643  0.1379  0.1077
 3468TIP3    H131895   5.569   6.060   5.495  0.2373  0.8394 -0.1282
 3468TIP3    H231896   5.521   6.123   5.624 -0.6411 -0.2022  0.0666
 3469TIP3   OH231897   1.267   5.315   6.057 -0.1183  0.1924 -0.1317
 3469TIP3    H131898   1.342   5.263   6.031 -0.2954 -1.1783  1.8889
 3469TIP3    H231899   1.304   5.391   6.101  0.1057  0.4335 -0.7361
 3470TIP3   OH231900   0.454   0.232   5.788 -0.2280 -0.0471 -0.5413
 3470TIP3    H131901   0.519   0.299   5.768 -0.7477  0.2089 -1.4338
 3470TIP3    H231902   0.476   0.203   5.876  1.1536 -0.0325 -0.8474
 3471TIP3   OH231903   6.663   6.575  15.699  0.3344  0.6754 -0.0493
 3471TIP3    H131904   6.594   6.640  15.713  0.9480  1.3625 -0.1508
 3471TIP3    H231905   6.734   6.603  15.756 -0.0787 -1.0036  1.3808
 3472TIP3   OH231906   4.143   1.607  13.498 -0.4332  1.1339  0.2329
 3472TIP3    H131907   4.047   1.605  13.495 -0.5212 -2.1936  1.3636
 3472TIP3    H231908   4.170   1.545  13.431  0.9469  1.9096  0.0453
 3473TIP3   OH231909   2.426   4.667   2.559  0.0807 -0.0746  0.3002
 3473TIP3    H131910   2.495   4.733   2.547 -0.5024  0.2545 -1.5797
 3473TIP3    H231911   2.474   4.587   2.583  0.9627  0.5716  0.7317
 3474TIP3   OH231912   0.332   2.039   0.626 -0.4663  0.4989  0.1414
 3474TIP3    H131913   0.407   2.029   0.685 -0.1872 -1.4499 -0.4645
 3474TIP3    H231914   0.257   2.051   0.685 -0.1709 -1.2114  0.9218
 3475TIP3   OH231915   6.320   2.282   6.693 -0.5992 -0.1963  0.4840
 3475TIP3    H131916   6.327   2.361   6.746  0.9846  0.0107  0.0017
 3475TIP3    H231917   6.357   2.306   6.608  0.6093 -1.6333  0.5521
 3476TIP3   OH231918   6.772   1.075   1.698 -0.3083  0.0149 -0.2244
 3476TIP3    H131919   6.694   1.032   1.733 -1.0807  2.0042  0.6777
 3476TIP3    H231920   6.819   1.006   1.651 -1.6849 -1.6574  0.7326
 3477TIP3   OH231921   0.591   2.163  11.553  0.2592 -0.0046  0.0766
 3477TIP3    H131922   0.618   2.254  11.561  1.7939 -0.4113 -0.2106
 3477TIP3    H231923   0.659   2.122  11.500 -1.5265 -0.8343 -1.7442
 3478TIP3   OH231924   1.866   3.879   2.412 -0.4581 -0.5231  0.0704
 3478TIP3    H131925   1.799   3.947   2.418 -0.9228 -0.6591 -2.5989
 3478TIP3    H231926   1.946   3.927   2.390 -0.0979 -0.5855  1.1618
 3479TIP3   OH231927   1.249   4.151  14.805 -0.7894 -0.5606 -0.2668
 3479TIP3    H131928   1.203   4.168  14.723 -1.7592 -0.2978  0.3177
 3479TIP3    H231929   1.270   4.058  14.802 -0.9996 -0.5974 -0.7104
 3480TIP3   OH231930   3.915   3.345   2.715 -0.7925 -0.0437 -0.0061
 3480TIP3    H131931   3.912   3.279   2.785 -0.9149 -0.7495 -0.6569
 3480TIP3    H231932   3.829   3.338   2.672 -0.7373  0.4150 -0.2011
 3481TIP3   OH231933   0.979   5.732  16.150 -0.0023  0.7963 -0.1489
 3481TIP3    H131934   0.892   5.697  16.130 -1.2277  1.4268  3.3122
 3481TIP3    H231935   0.966   5.826  16.157  0.1985  0.7023  2.9660
 3482TIP3   OH231936   3.395   6.494  15.957 -0.0018  0.3811  0.0821
 3482TIP3    H131937   3.481   6.534  15.946  1.1792 -1.7243  1.0101
 3482TIP3    H231938   3.386   6.434  15.883 -1.7071  2.1313 -1.2479
 3483TIP3   OH231939   4.665   2.587  14.680 -0.2598 -0.1037  0.5230
 3483TIP3    H131940   4.650   2.502  14.639  0.0501 -0.0878  0.3768
 3483TIP3    H231941   4.630   2.577  14.769  0.6003 -0.6830  0.8111
 3484TIP3   OH231942   4.515   2.548  13.718 -0.0213  0.0724 -0.1720
 3484TIP3    H131943   4.425   2.560  13.747 -0.1470  0.5298 -0.7300
 3484TIP3    H231944   4.528   2.453  13.717 -0.5575  0.0018 -0.2849
 3485TIP3   OH231945   3.307   1.699   3.604  0.2569 -0.2441 -0.0132
 3485TIP3    H131946   3.359   1.677   3.681 -0.0072 -0.6234  0.0555
 3485TIP3    H231947   3.226   1.649   3.613  0.0366  0.0457 -0.3156
 3486TIP3   OH231948   4.487   6.673   4.298  0.6893 -0.3568  0.3562
 3486TIP3    H131949   4.392   6.672   4.309  0.4401 -0.7693 -1.5502
 3486TIP3    H231950   4.521   6.666   4.387 -1.0502  0.4769  1.1345
 3487TIP3   OH231951   5.859   2.354   3.362  0.4775  0.2566  0.2379
 3487TIP3    H131952   5.947   2.391   3.356  0.1949  0.8078 -0.6555
 3487TIP3    H231953   5.872   2.260   3.351  1.2390 -0.0346  2.8429
 3488TIP3   OH231954   1.661   2.214  15.132  0.7143  0.2602 -0.0899
 3488TIP3    H131955   1.753   2.198  15.153  1.0242  1.5952 -0.3696
 3488TIP3    H231956   1.625   2.253  15.212  0.6729  0.7824 -0.3624
 3489TIP3   OH231957   6.131   0.812  12.525  0.3016 -0.3698 -0.4580
 3489TIP3    H131958   6.170   0.899  12.520  0.4603 -0.3934  0.2836
 3489TIP3    H231959   6.206   0.752  12.523  0.3785 -0.3942  1.6363
 3490TIP3   OH231960   6.745   1.219   5.638 -0.4641  0.3023  0.1590
 3490TIP3    H131961   6.710   1.138   5.600  0.7032  0.6583 -1.8042
 3490TIP3    H231962   6.816   1.190   5.695 -0.4521 -0.1018 -0.0580
 3491TIP3   OH231963   2.251   0.903   1.812 -0.3754 -0.5088 -0.0007
 3491TIP3    H131964   2.189   0.964   1.853 -1.1720 -0.5105 -1.1613
 3491TIP3    H231965   2.337   0.933   1.842 -0.7298  1.3745 -0.7424
 3492TIP3   OH231966   1.295   0.404  13.203 -0.4396 -0.2675 -0.2748
 3492TIP3    H131967   1.301   0.478  13.143 -0.4019 -0.7183 -0.8441
 3492TIP3    H231968   1.334   0.331  13.154 -0.5707 -0.6833  0.2311
 3493TIP3   OH231969   6.288   1.658  17.386 -0.0569 -0.5347  0.4164
 3493TIP3    H131970   6.317   1.570  17.363  0.2374 -0.4433  0.4400
 3493TIP3    H231971   6.203   1.644  17.429 -0.1873 -0.7765  0.0845
 3494TIP3   OH231972   4.212   1.396  12.392 -0.5309 -0.2265 -0.2980
 3494TIP3    H131973   4.129   1.375  12.349 -0.9287  0.3800  0.1574
 3494TIP3    H231974   4.186   1.428  12.479 -0.0412  2.9540 -1.2119
 3495TIP3   OH231975   3.396   5.927   4.171  0.3770  0.1138  1.2394
 3495TIP3    H131976   3.398   5.843   4.125 -0.3768  0.4768  0.5112
 3495TIP3    H231977   3.391   5.904   4.264  1.1778 -0.6361  1.1132
 3496TIP3   OH231978   4.955   3.542  11.588  0.9429 -0.1716  0.0580
 3496TIP3    H131979   4.922   3.589  11.664  0.3989  1.1220 -0.9251
 3496TIP3    H231980   5.048   3.563  11.585  0.6778  1.0429 -0.4610
 3497TIP3   OH231981   2.642   3.377  14.560 -0.6284 -0.1545 -0.2829
 3497TIP3    H131982   2.551   3.385  14.589  0.1048 -0.6735  2.4277
 3497TIP3    H231983   2.692   3.430  14.623  1.0397 -0.6541 -1.1257
 3498TIP3   OH231984   3.824   0.322  12.558 -0.0394  0.3970  0.0221
 3498TIP3    H131985   3.753   0.263  12.585 -0.9546  1.1753 -0.6140
 3498TIP3    H231986   3.900   0.264  12.548 -0.8343 -0.6333 -0.2666
 3499TIP3   OH231987   3.728   6.427   1.975 -0.0589  0.3881  0.0058
 3499TIP3    H131988   3.816   6.393   1.960 -0.1097  0.1623  0.2131
 3499TIP3    H231989   3.693   6.444   1.887  0.6571  1.6935 -0.0545
 3500TIP3   OH231990   2.715   2.221  13.798 -0.1256  0.1796  0.2588
 3500TIP3    H131991   2.654   2.288  13.829 -3.3685 -1.6376 -1.6534
 3500TIP3    H231992   2.735   2.169  13.876 -2.6881 -0.3122  0.6758
 3501TIP3   OH231993   4.150   4.273   5.793 -0.6591 -0.8660 -0.0115
 3501TIP3    H131994   4.152   4.235   5.881 -0.7158 -1.2519 -0.1777
 3501TIP3    H231995   4.144   4.367   5.808  0.1049 -0.8739  0.4062
 3502TIP3   OH231996   5.845   5.254   3.182  0.6184  0.1610 -0.1480
 3502TIP3    H131997   5.885   5.287   3.262  2.5576 -1.2794 -0.4664
 3502TIP3    H231998   5.874   5.315   3.114  1.6729 -0.4471 -0.2550
 3503TIP3   OH231999   0.872   3.066  11.041 -0.1392 -0.0290  0.9592
 3503TIP3    H132000   0.903   2.985  11.081  2.8329 -0.3275 -1.6150
 3503TIP3    H232001   0.809   3.038  10.974 -0.7268  0.0126  1.4815
 3504TIP3   OH232002   3.562   4.470  17.336  0.1003  0.1224  0.3546
 3504TIP3    H132003   3.643   4.436  17.373  1.4018 -0.1143 -2.4164
 3504TIP3    H232004   3.550   4.420  17.255 -1.7262  1.5534 -0.3360
 3505TIP3   OH232005   2.508   2.717  16.727  0.1740 -0.2293  0.5276
 3505TIP3    H132006   2.544   2.715  16.638 -1.8726  0.6712 -0.4044
 3505TIP3    H232007   2.465   2.632  16.737  1.4451 -0.8163  1.1607
 3506TIP3   OH232008   0.726   1.516   4.002 -0.4611  0.4019 -0.7898
 3506TIP3    H132009   0.657   1.570   4.040 -1.1756 -0.0371 -1.4408
 3506TIP3    H232010   0.807   1.548   4.043 -1.1850 -0.0827  1.0998
 3507TIP3   OH232011   6.194   3.561  13.763  0.2020  0.1224 -0.3522
 3507TIP3    H132012   6.156   3.634  13.714 -0.9648  0.3988  0.8976
 3507TIP3    H232013   6.176   3.582  13.855 -0.8041 -2.0430  0.0172
 3508TIP3   OH232014   2.049   5.813  11.477  0.0462  0.1707 -0.3209
 3508TIP3    H132015   2.087   5.803  11.390  0.9955  2.3454 -0.2146
 3508TIP3    H232016   2.086   5.741  11.528  0.7598 -0.1685 -1.2923
 3509TIP3   OH232017   3.067   6.030   2.211 -0.2840 -0.4347  0.3980
 3509TIP3    H132018   3.089   6.110   2.258  0.5961 -1.2957  1.4635
 3509TIP3    H232019   3.073   5.960   2.276  0.1115 -1.5362 -0.7849
 3510TIP3   OH232020   2.329   4.200   3.102  0.4762 -0.7479  0.0033
 3510TIP3    H132021   2.278   4.214   3.022  0.0050  1.2989  0.6234
 3510TIP3    H232022   2.303   4.270   3.161  2.8523 -0.5456  0.9373
 3511TIP3   OH232023   2.575   1.499   6.604 -0.0273 -0.2765  0.0428
 3511TIP3    H132024   2.615   1.413   6.614 -0.1042 -0.1757  1.2846
 3511TIP3    H232025   2.644   1.553   6.564  0.2876 -0.7086  0.0008
 3512TIP3   OH232026   1.694   4.137  16.517 -0.2869 -0.8593  0.2735
 3512TIP3    H132027   1.785   4.160  16.532 -0.7219 -0.1631  2.1227
 3512TIP3    H232028   1.688   4.045  16.543  0.2791 -1.5407 -1.8243
 3513TIP3   OH232029   0.340   3.833   4.236 -0.3939  0.3483  0.5262
 3513TIP3    H132030   0.313   3.863   4.322 -0.8805 -1.1817  0.9467
 3513TIP3    H232031   0.301   3.895   4.175 -3.8619 -0.9811  1.1659
 3514TIP3   OH232032   2.450   1.994  16.247  0.0760 -0.5536 -0.3577
 3514TIP3    H132033   2.377   2.012  16.188 -0.0185  0.3688  0.0250
 3514TIP3    H232034   2.501   2.075  16.247  0.6152 -0.8907  0.0643
 3515TIP3   OH232035   0.436   0.994   4.436  0.3401 -0.1881  0.4484
 3515TIP3    H132036   0.414   0.914   4.483  2.1443 -0.3816  1.0161
 3515TIP3    H232037   0.531   0.996   4.433  0.3256  1.1088 -1.0109
 3516TIP3   OH232038   1.482   6.377  12.221 -0.4714  0.0699 -0.3449
 3516TIP3    H132039   1.521   6.357  12.306 -0.1678  0.3414 -0.4169
 3516TIP3    H232040   1.556   6.398  12.164 -0.5726 -1.2197 -0.9918
 3517TIP3   OH232041   3.370   4.195   0.370 -0.2164 -0.6396 -0.6829
 3517TIP3    H132042   3.343   4.252   0.299  0.0191  0.4403  0.0748
 3517TIP3    H232043   3.370   4.251   0.448 -0.7228 -1.8478  0.2283
 3518TIP3   OH232044   2.492   6.370  14.828  0.0501 -0.4900  0.0256
 3518TIP3    H132045   2.508   6.435  14.760  1.2106 -1.4928 -0.6849
 3518TIP3    H232046   2.557   6.389  14.896 -0.7200  0.1319  0.6212
 3519TIP3   OH232047   4.155   5.860  16.429  0.3633  0.1806 -0.5907
 3519TIP3    H132048   4.081   5.819  16.383  0.3039  0.2938 -0.5979
 3519TIP3    H232049   4.175   5.937  16.377  0.8677 -0.1704 -0.9164
 3520TIP3   OH232050   4.217   1.273  13.744  0.8375  0.2379 -0.6560
 3520TIP3    H132051   4.182   1.258  13.831  0.1923 -0.2524 -0.9873
 3520TIP3    H232052   4.140   1.295  13.691  1.2787  0.9651 -1.0088
 3521TIP3   OH232053   3.557   1.213  16.589  0.2103  0.5469  0.0625
 3521TIP3    H132054   3.538   1.261  16.670 -0.0694  0.3176  0.1340
 3521TIP3    H232055   3.548   1.279  16.520 -1.0240  0.4121  0.0802
 3522TIP3   OH232056   3.661   3.553   3.831 -0.4278 -0.2841  0.3529
 3522TIP3    H132057   3.705   3.539   3.915 -0.2816  0.4961  0.4119
 3522TIP3    H232058   3.696   3.484   3.774 -1.4191 -1.5805  1.2508
 3523TIP3   OH232059   4.187   0.281  13.537  0.1403 -0.2128  0.2208
 3523TIP3    H132060   4.246   0.211  13.567  0.1551  0.1802  1.1356
 3523TIP3    H232061   4.111   0.235  13.503 -0.4929 -0.6883  2.1476
 3524TIP3   OH232062   3.901   4.785  14.156  0.0760  0.0101  0.0632
 3524TIP3    H132063   3.945   4.841  14.092  1.2829 -1.4429 -0.4151
 3524TIP3    H232064   3.837   4.735  14.105 -0.2546  0.1575  0.3226
 3525TIP3   OH232065   4.986   4.736  11.707 -0.2230  0.5718 -0.2207
 3525TIP3    H132066   4.934   4.810  11.679 -1.1133  0.5819  1.3536
 3525TIP3    H232067   4.928   4.660  11.699  0.0799  0.3198 -0.0973
 3526TIP3   OH232068   1.671   4.522   3.662 -0.5577  0.0615 -0.0178
 3526TIP3    H132069   1.629   4.513   3.576  0.2939  1.4973 -0.6315
 3526TIP3    H232070   1.722   4.442   3.672 -0.2251  0.1115 -1.1300
 3527TIP3   OH232071   5.774   1.501  16.762  0.0729 -0.1274  0.4597
 3527TIP3    H132072   5.772   1.416  16.717 -1.0155 -0.2795  0.7641
 3527TIP3    H232073   5.768   1.479  16.855  1.7065  0.2132  0.6662
 3528TIP3   OH232074   5.285   3.444  16.490  0.3070 -0.5438 -0.0537
 3528TIP3    H132075   5.334   3.362  16.497  0.4718 -0.6027 -1.4370
 3528TIP3    H232076   5.194   3.416  16.481  0.1994 -0.5062  0.8577
 3529TIP3   OH232077   4.045   6.062   3.855 -0.2579 -1.1217  0.0262
 3529TIP3    H132078   4.081   6.116   3.784 -1.5896 -1.1328 -0.6913
 3529TIP3    H232079   3.960   6.103   3.875  1.5033  1.1614  4.1654
 3530TIP3   OH232080   2.279   1.023   2.739 -0.3274 -0.2563  0.3181
 3530TIP3    H132081   2.365   1.014   2.779 -0.1103  1.5877  0.3554
 3530TIP3    H232082   2.294   1.076   2.661 -1.5517  0.9156  0.8396
 3531TIP3   OH232083   5.822   6.418   0.490 -0.0664 -0.0890  0.0744
 3531TIP3    H132084   5.746   6.443   0.436 -1.6122 -2.0351  1.1895
 3531TIP3    H232085   5.895   6.467   0.453 -1.5487  0.6143 -2.1298
 3532TIP3   OH232086   4.711   6.094  16.447  0.7146 -0.4438  0.7720
 3532TIP3    H132087   4.783   6.034  16.426 -0.6971 -2.2902  0.9927
 3532TIP3    H232088   4.686   6.072  16.537  0.0098  0.3196  0.7787
 3533TIP3   OH232089   6.719   3.544  17.082  0.2492  0.2746 -0.1674
 3533TIP3    H132090   6.721   3.487  17.005  1.6166 -1.3904  1.0400
 3533TIP3    H232091   6.630   3.536  17.116  0.1495 -0.3529 -0.5772
 3534TIP3   OH232092   3.950   4.806  14.652 -0.1629  0.1170  0.4676
 3534TIP3    H132093   3.903   4.724  14.638 -0.1084  0.1450  0.1201
 3534TIP3    H232094   4.028   4.781  14.702 -0.9255  0.1753  1.7566
 3535TIP3   OH232095   1.689   1.175  12.342 -0.1498 -0.1190 -0.3626
 3535TIP3    H132096   1.647   1.143  12.422  0.3885  1.7428  0.7449
 3535TIP3    H232097   1.626   1.157  12.273  0.2257 -3.7070  0.0501
 3536TIP3   OH232098   3.696   4.977  14.977 -0.0335  0.8233  0.2953
 3536TIP3    H132099   3.766   4.911  14.978 -1.9325 -1.3382 -0.6190
 3536TIP3    H232100   3.632   4.943  14.914 -1.4403  3.2438  0.2890
 3537TIP3   OH232101   5.044   4.864  12.552  0.8158 -0.4348 -0.2624
 3537TIP3    H132102   5.011   4.784  12.592 -0.0757 -0.2348 -0.5850
 3537TIP3    H232103   4.972   4.895  12.497  1.1167  0.6336 -0.0704
 3538TIP3   OH232104   5.376   3.779   4.180 -0.0599 -0.3743 -0.2068
 3538TIP3    H132105   5.376   3.867   4.217 -1.6277 -0.6837  0.6197
 3538TIP3    H232106   5.424   3.726   4.244 -1.6003 -0.6412  0.7957
 3539TIP3   OH232107   2.735   5.101   2.063 -0.0560  0.6082  0.2774
 3539TIP3    H132108   2.829   5.082   2.059 -0.3593 -0.8825 -0.8750
 3539TIP3    H232109   2.725   5.158   2.139  1.9768  2.1234 -0.5174
 3540TIP3   OH232110   6.004   1.982  15.272  0.3603  0.1068  0.8966
 3540TIP3    H132111   5.913   2.004  15.294  0.2590  1.2348 -0.5073
 3540TIP3    H232112   6.053   2.001  15.352 -0.5612 -0.0854  1.5294
 3541TIP3   OH232113   2.626   0.982  16.954  1.4985  0.3459 -0.6147
 3541TIP3    H132114   2.594   0.892  16.960  1.3374  0.4707  0.7231
 3541TIP3    H232115   2.697   0.979  16.889  1.3610 -0.6977 -0.7223
 3542TIP3   OH232116   6.450   1.829   4.169 -0.0123 -0.5668  0.6713
 3542TIP3    H132117   6.498   1.904   4.132 -2.6094  0.7303 -0.3156
 3542TIP3    H232118   6.457   1.842   4.264  1.8141 -0.6292  0.5888
 3543TIP3   OH232119   6.456   6.267  16.729 -0.0072  0.5679 -0.0595
 3543TIP3    H132120   6.493   6.208  16.663  1.0098  2.6701 -1.4521
 3543TIP3    H232121   6.386   6.313  16.684 -0.0992  1.1736  0.6776
 3544TIP3   OH232122   0.682   5.400  12.810 -0.3914 -0.8753  0.0523
 3544TIP3    H132123   0.747   5.348  12.762  2.3971  2.0586  0.3280
 3544TIP3    H232124   0.632   5.445  12.742 -0.5986 -1.3907 -0.1399
 3545TIP3   OH232125   6.757   1.014  15.012 -0.5194  0.2321 -0.1608
 3545TIP3    H132126   6.768   0.925  15.046  1.2160 -0.2540 -1.8193
 3545TIP3    H232127   6.702   1.004  14.935 -2.4791  1.0076  1.0637
 3546TIP3   OH232128   1.025   1.293   5.119  0.5344 -0.0266 -0.2110
 3546TIP3    H132129   1.094   1.231   5.094  1.7040  0.8476  0.6710
 3546TIP3    H232130   1.040   1.308   5.213 -1.3552 -0.3742  0.1742
 3547TIP3   OH232131   3.814   2.947   5.832 -1.0013  0.0294 -0.4857
 3547TIP3    H132132   3.867   3.011   5.880 -0.5773 -1.9495  1.9144
 3547TIP3    H232133   3.877   2.902   5.775 -0.5186 -0.6691  0.5563
 3548TIP3   OH232134   5.689   4.328   2.711 -0.1325 -0.5193 -0.0767
 3548TIP3    H132135   5.737   4.258   2.668  0.0748 -0.2365 -0.3163
 3548TIP3    H232136   5.612   4.286   2.750 -1.9822 -0.3881 -3.2348
 3549TIP3   OH232137   1.229   5.423   0.585  0.2112  0.7219 -0.1171
 3549TIP3    H132138   1.316   5.434   0.624  1.2917 -2.3670 -1.3192
 3549TIP3    H232139   1.246   5.373   0.505 -2.7049 -0.3129 -0.1868
 3550TIP3   OH232140   3.644   5.742   0.922 -0.1632 -0.0464  0.4807
 3550TIP3    H132141   3.680   5.671   0.870 -2.6617  0.1419 -1.7061
 3550TIP3    H232142   3.696   5.819   0.898  1.4221 -0.7331  1.5560
 3551TIP3   OH232143   2.555   2.973   0.568  0.3257  0.1742 -0.7213
 3551TIP3    H132144   2.643   2.940   0.587  0.1580  0.0855 -0.0550
 3551TIP3    H232145   2.512   2.903   0.520  0.4463  0.0086 -0.5876
 3552TIP3   OH232146   1.715   0.167  11.608 -0.3189  0.6641  0.1409
 3552TIP3    H132147   1.713   0.088  11.661  1.1188 -0.2308 -1.0637
 3552TIP3    H232148   1.778   0.224  11.652  1.0528 -0.1725 -0.6710
 3553TIP3   OH232149   2.580   0.432  12.693 -0.5627 -0.1743 -0.3268
 3553TIP3    H132150   2.568   0.475  12.608 -0.6921 -0.4130 -0.4308
 3553TIP3    H232151   2.662   0.384  12.684  1.1141  2.2945  0.7379
 3554TIP3   OH232152   1.618   2.739   1.746  0.1826 -0.9742 -0.4276
 3554TIP3    H132153   1.674   2.663   1.764  1.2430 -0.0781  0.1717
 3554TIP3    H232154   1.677   2.814   1.748 -1.0807  0.0510  0.5316
 3555TIP3   OH232155   6.130   5.721   4.659  0.7861 -0.8471 -0.2405
 3555TIP3    H132156   6.079   5.748   4.736  0.6517 -0.3123 -0.5128
 3555TIP3    H232157   6.106   5.784   4.591  2.1587 -0.3019 -0.2448
 3556TIP3   OH232158   6.648   4.758  15.723  0.1741 -0.2305  0.2255
 3556TIP3    H132159   6.642   4.743  15.628  0.3975  0.5640  0.0800
 3556TIP3    H232160   6.568   4.720  15.758 -0.1990 -0.0046 -0.3580
 3557TIP3   OH232161   3.580   5.515  15.261  0.4449 -0.0924 -0.4399
 3557TIP3    H132162   3.607   5.583  15.323 -1.9104  0.3961  0.1398
 3557TIP3    H232163   3.597   5.433  15.308  0.3414  0.2153  0.1451
 3558TIP3   OH232164   2.098   3.337  14.792  0.5361 -0.2356 -0.0045
 3558TIP3    H132165   2.188   3.366  14.811  0.4581  0.0879 -0.1220
 3558TIP3    H232166   2.106   3.244  14.773  0.6384 -0.5589  1.5286
 3559TIP3   OH232167   3.306   2.439  16.606 -0.4134  0.2509  0.1252
 3559TIP3    H132168   3.291   2.395  16.690  3.1100 -0.6667  0.4439
 3559TIP3    H232169   3.273   2.528  16.619 -2.1740 -0.5604  1.5964
 3560TIP3   OH232170   2.006   2.779   2.387 -0.2777 -0.1889  0.4819
 3560TIP3    H132171   1.970   2.710   2.332 -0.0062 -0.7175  0.9574
 3560TIP3    H232172   2.065   2.734   2.448 -0.5726  0.3751  1.2093
 3561TIP3   OH232173   5.272   4.309   5.702 -0.3966  0.2120 -0.1107
 3561TIP3    H132174   5.199   4.262   5.664 -0.3622 -1.1647  1.4457
 3561TIP3    H232175   5.337   4.313   5.631 -1.3738  0.1828 -1.0429
 3562TIP3   OH232176   0.378   6.494   5.711  0.1740  0.1538 -0.2283
 3562TIP3    H132177   0.405   6.582   5.736 -0.4677 -0.1696  1.7379
 3562TIP3    H232178   0.282   6.497   5.713  0.1113 -0.2637 -1.4449
 3563TIP3   OH232179   4.636   1.547   0.754 -0.1174 -0.2863  0.1582
 3563TIP3    H132180   4.555   1.587   0.785  0.5360  0.2631  1.2108
 3563TIP3    H232181   4.679   1.615   0.702  0.7187  0.2243  1.4693
 3564TIP3   OH232182   5.180   2.162   2.020 -1.0117  0.0494 -0.3355
 3564TIP3    H132183   5.126   2.238   1.998 -0.7040  0.1032 -0.9124
 3564TIP3    H232184   5.199   2.173   2.113 -0.5292  0.9661 -0.5302
 3565TIP3   OH232185   3.003   1.669  14.043  0.2529 -0.6863  0.3010
 3565TIP3    H132186   2.927   1.673  14.102  0.3408  0.4115  0.3648
 3565TIP3    H232187   3.078   1.660  14.102  0.2357 -0.9456  0.2831
 3566TIP3   OH232188   1.929   6.067  13.184 -1.1298 -0.0281  0.2282
 3566TIP3    H132189   1.921   6.006  13.257 -0.5909  0.1702  0.4543
 3566TIP3    H232190   1.839   6.096  13.167 -1.1473  0.7158  1.4915
 3567TIP3   OH232191   4.801   1.516  12.211  0.5553 -0.2350 -0.2139
 3567TIP3    H132192   4.769   1.496  12.123 -2.7949  1.5272  0.4332
 3567TIP3    H232193   4.875   1.575  12.197 -0.7650  1.1265 -1.9206
 3568TIP3   OH232194   2.993   3.579  13.615  0.2028 -0.2846  0.5571
 3568TIP3    H132195   3.061   3.566  13.548  0.7492 -0.7864  1.1965
 3568TIP3    H232196   3.008   3.508  13.678  0.1041  0.5663  1.5553
 3569TIP3   OH232197   5.464   4.432   1.795  0.3164  0.5511 -0.0908
 3569TIP3    H132198   5.504   4.476   1.720 -0.5870 -0.8941 -1.4824
 3569TIP3    H232199   5.539   4.400   1.846  0.9500  0.9399 -0.7448
 3570TIP3   OH232200   3.366   3.855  17.342 -0.1426 -0.0582  0.3358
 3570TIP3    H132201   3.279   3.882  17.312  0.2137  0.6780 -0.0474
 3570TIP3    H232202   3.357   3.846  17.437 -0.5443  0.3694  0.3402
 3571TIP3   OH232203   4.940   0.778   2.290 -0.3584  0.1663  0.2910
 3571TIP3    H132204   4.870   0.770   2.226 -2.3623  0.3221  2.3475
 3571TIP3    H232205   4.944   0.693   2.333  0.7465  0.1615  0.2166
 3572TIP3   OH232206   0.040   4.764   6.633  0.0115  0.3258  0.3274
 3572TIP3    H132207   0.081   4.678   6.623 -1.0957 -0.1947  0.0865
 3572TIP3    H232208   0.091   4.822   6.577 -0.3852 -0.5906 -1.0422
 3573TIP3   OH232209   5.309   5.402   5.456 -0.3757  0.6439 -0.1821
 3573TIP3    H132210   5.319   5.332   5.521 -2.5262 -0.9016 -1.4139
 3573TIP3    H232211   5.367   5.377   5.385 -0.6289  0.4821 -0.3312
 3574TIP3   OH232212   4.332   0.751  17.413  0.1315  0.5679  0.5413
 3574TIP3    H132213   4.306   0.693  17.484 -0.8083  1.0465  0.5946
 3574TIP3    H232214   4.420   0.721  17.389  0.8310  0.9242  2.4712
 3575TIP3   OH232215   6.653   2.705   2.590  0.3654 -0.0315 -0.0075
 3575TIP3    H132216   6.705   2.785   2.585  0.6544 -0.2566 -0.6350
 3575TIP3    H232217   6.650   2.672   2.500 -0.8591 -0.0281  0.0141
 3576TIP3   OH232218   2.476   4.184   5.134 -0.0756  0.2189 -0.3289
 3576TIP3    H132219   2.506   4.197   5.224  0.6306  1.3688 -0.7125
 3576TIP3    H232220   2.430   4.099   5.136  0.5148 -0.0945  0.9530
 3577TIP3   OH232221   2.062   3.198   1.747  0.5310  0.4202 -0.2456
 3577TIP3    H132222   2.151   3.224   1.723 -0.4020  1.2442 -3.3052
 3577TIP3    H232223   2.031   3.270   1.802  0.3624  2.4982 -2.8495
 3578TIP3   OH232224   0.632   2.840   6.629 -0.0251 -0.0496 -0.2743
 3578TIP3    H132225   0.558   2.899   6.639 -1.3498 -1.6344 -0.3048
 3578TIP3    H232226   0.605   2.760   6.674  0.1574 -1.9571 -3.2911
 3579TIP3   OH232227   0.170   2.199  13.064  0.7018  0.3945  0.0816
 3579TIP3    H132228   0.232   2.144  13.015  1.5741  2.3271 -1.0875
 3579TIP3    H232229   0.197   2.189  13.156  1.3520 -0.4759 -0.1843
 3580TIP3   OH232230   0.071   5.353  16.549 -0.8588 -0.2523  0.0450
 3580TIP3    H132231   0.088   5.259  16.553 -1.5246 -0.5169 -1.8954
 3580TIP3    H232232   0.013   5.371  16.623 -1.2953 -1.5126  0.0320
 3581TIP3   OH232233   3.290   5.791  11.412  0.5629 -0.1858  0.4442
 3581TIP3    H132234   3.342   5.720  11.375  1.8620  0.3095  1.2505
 3581TIP3    H232235   3.213   5.796  11.356  1.4561 -0.8354 -0.8905
 3582TIP3   OH232236   4.608   5.838   5.170  0.7185  0.1548  0.4629
 3582TIP3    H132237   4.631   5.781   5.096 -0.6764  0.3449 -0.1550
 3582TIP3    H232238   4.611   5.926   5.134 -0.4892  0.2101  0.4738
 3583TIP3   OH232239   0.576   2.788   3.800 -0.4317 -0.0734  0.2108
 3583TIP3    H132240   0.520   2.846   3.750  0.4704 -1.4146 -2.5616
 3583TIP3    H232241   0.615   2.843   3.867 -1.6259  1.8702 -0.6267
 3584TIP3   OH232242   6.165   0.865   4.023  0.6216 -0.5759 -1.0140
 3584TIP3    H132243   6.127   0.950   4.001  0.0580 -0.6445 -0.3390
 3584TIP3    H232244   6.100   0.801   3.995 -1.0691 -0.6204  2.4400
 3585TIP3   OH232245   0.965   4.793  14.695 -0.3989  0.6067 -0.6347
 3585TIP3    H132246   0.914   4.728  14.647  0.0362 -1.1314  1.1314
 3585TIP3    H232247   0.900   4.841  14.746 -0.3716 -2.1662  2.2710
 3586TIP3   OH232248   6.705   3.897  14.006 -0.2896 -0.0070 -0.5383
 3586TIP3    H132249   6.628   3.844  14.026  0.8616 -1.5224  0.1000
 3586TIP3    H232250   6.710   3.900  13.911 -1.3441  0.4548 -0.5881
 3587TIP3   OH232251   2.965   6.154  11.615  0.2412 -0.3681 -0.6395
 3587TIP3    H132252   3.036   6.202  11.657  0.8064 -0.3690 -1.5569
 3587TIP3    H232253   3.001   6.066  11.600 -0.4287 -0.7844  0.0974
 3588TIP3   OH232254   2.785   2.833   0.549  0.3123  0.0028 -0.3439
 3588TIP3    H132255   2.759   2.780   0.473 -1.2031  1.0268 -0.5899
 3588TIP3    H232256   2.755   2.783   0.624  0.8225 -0.4949 -0.4674
 3589TIP3   OH232257   3.844   5.523   4.357  0.2807 -0.2203 -0.3099
 3589TIP3    H132258   3.920   5.573   4.388  0.3874  0.3950 -1.5369
 3589TIP3    H232259   3.860   5.434   4.389  0.8832  0.1707  0.5181
 3590TIP3   OH232260   5.375   0.963   4.734 -0.3990  0.0987  0.0913
 3590TIP3    H132261   5.415   0.927   4.655 -1.4821  1.4951 -1.1565
 3590TIP3    H232262   5.449   0.993   4.787  0.3208 -0.1684 -0.7343
 3591TIP3   OH232263   4.138   4.940   5.595 -0.0375 -0.1633 -0.2782
 3591TIP3    H132264   4.217   4.982   5.562  0.3721  0.2832  1.1902
 3591TIP3    H232265   4.091   5.010   5.642  0.3871 -1.1530  1.7321
 3592TIP3   OH232266   6.043   6.285   0.179  0.0579 -0.1614  0.3452
 3592TIP3    H132267   6.023   6.376   0.203 -0.4865  0.2946 -1.6793
 3592TIP3    H232268   6.139   6.283   0.178  0.0778  0.4049  0.3227
 3593TIP3   OH232269   3.724   6.248   4.402  0.2601 -0.0347 -0.2022
 3593TIP3    H132270   3.701   6.295   4.483  2.0618  0.3557  0.1170
 3593TIP3    H232271   3.641   6.241   4.355 -0.7103  0.3340  1.3627
 3594TIP3   OH232272   3.867   3.423  12.001 -0.5073  0.1339 -0.0353
 3594TIP3    H132273   3.963   3.428  12.000 -0.4860  1.0311  2.0485
 3594TIP3    H232274   3.847   3.343  11.952  1.1488  1.1930 -2.6599
 3595TIP3   OH232275   4.121   0.190   3.722  0.2521 -0.3267 -0.0650
 3595TIP3    H132276   4.055   0.236   3.774 -0.7600 -1.8245  0.0471
 3595TIP3    H232277   4.076   0.173   3.638  0.6252 -1.0168 -0.1298
 3596TIP3   OH232278   2.825   5.205   0.473 -0.1954  0.0095 -0.0232
 3596TIP3    H132279   2.809   5.230   0.382  1.6663  0.5616 -0.2581
 3596TIP3    H232280   2.771   5.264   0.525 -1.4592 -0.4704 -0.7596
 3597TIP3   OH232281   0.287   4.228   0.194  0.2472  0.3309 -0.5308
 3597TIP3    H132282   0.212   4.205   0.139  0.5509 -0.3328 -0.6722
 3597TIP3    H232283   0.249   4.280   0.265 -0.5002 -0.8244 -0.0647
 3598TIP3   OH232284   2.171   5.986   1.953 -0.3577 -0.0191 -0.0898
 3598TIP3    H132285   2.225   6.002   2.030 -0.1889 -0.4158 -0.1215
 3598TIP3    H232286   2.159   6.072   1.913 -2.0556  0.5401  1.4335
 3599TIP3   OH232287   3.926   4.768   2.183 -0.2532 -0.0468 -0.2515
 3599TIP3    H132288   3.984   4.701   2.219  0.5096  0.3463 -0.7256
 3599TIP3    H232289   3.886   4.809   2.260 -2.6261 -2.6145  0.0492
 3600TIP3   OH232290   4.129   5.787  15.509 -0.1018 -0.2626 -0.4127
 3600TIP3    H132291   4.118   5.817  15.599  1.3727 -0.3493 -0.1689
 3600TIP3    H232292   4.171   5.860  15.464 -0.4267 -0.3864 -0.9265
 3601TIP3   OH232293   1.120   0.137  14.457  0.5993 -0.3012 -0.3857
 3601TIP3    H132294   1.196   0.178  14.415  0.5369  1.9179  1.4639
 3601TIP3    H232295   1.045   0.178  14.415  0.4442 -1.0834 -0.8873
 3602TIP3   OH232296   2.577   6.066   5.511 -0.2376 -0.6318  0.3769
 3602TIP3    H132297   2.555   6.001   5.444  1.6303  0.4883 -1.4367
 3602TIP3    H232298   2.666   6.094   5.489 -0.3681  1.3590  2.0643
 3603TIP3   OH232299   2.368   0.740  11.440 -0.3736  0.4331 -0.3081
 3603TIP3    H132300   2.437   0.727  11.375 -0.7221  0.6434 -0.7237
 3603TIP3    H232301   2.414   0.758  11.522  0.0779  3.3782 -1.1145
 3604TIP3   OH232302   5.704   4.988   3.247 -0.4221 -0.2741 -0.5197
 3604TIP3    H132303   5.680   4.950   3.163 -3.5384  1.8552 -0.7770
 3604TIP3    H232304   5.762   5.060   3.224  0.4261 -0.9723 -0.6120
 3605TIP3   OH232305   0.166   5.484  17.348  1.0031  0.2544  0.3355
 3605TIP3    H132306   0.240   5.534  17.381  0.6123  1.4317 -0.4979
 3605TIP3    H232307   0.090   5.540  17.362  0.6058  0.0946 -0.9996
 3606TIP3   OH232308   6.247   4.246   5.247  0.0340 -0.5938  0.4083
 3606TIP3    H132309   6.263   4.295   5.327 -2.5840 -1.4677  1.5801
 3606TIP3    H232310   6.262   4.154   5.271  0.7059 -0.7583 -0.5596
 3607TIP3   OH232311   2.296   0.709  14.491 -0.4410 -0.2327 -0.2785
 3607TIP3    H132312   2.277   0.799  14.519 -1.9358  0.1666 -2.3323
 3607TIP3    H232313   2.236   0.655  14.542 -0.6754  0.1037 -0.1906
 3608TIP3   OH232314   3.418   3.956  12.586  0.0122 -0.0144 -0.0010
 3608TIP3    H132315   3.350   4.013  12.550  3.4059  3.8778 -0.9859
 3608TIP3    H232316   3.434   3.891  12.518 -1.2106  0.3456 -0.6670
 3609TIP3   OH232317   5.725   6.205  12.241  0.2193 -0.1929 -0.1689
 3609TIP3    H132318   5.793   6.230  12.179  0.9561 -1.9436 -0.1118
 3609TIP3    H232319   5.643   6.229  12.198  0.7963  0.4742 -0.9267
 3610TIP3   OH232320   2.428   5.064   2.681 -0.2173 -0.4238  0.1175
 3610TIP3    H132321   2.400   5.156   2.681  1.1783  0.0645 -1.9114
 3610TIP3    H232322   2.372   5.021   2.618 -0.4068 -0.8284  0.5542
 3611TIP3   OH232323   6.629   4.975  12.398  0.3511  0.0289  0.3962
 3611TIP3    H132324   6.693   4.981  12.327 -0.3730  2.0291 -0.1654
 3611TIP3    H232325   6.579   4.896  12.378  0.3564  0.3760 -1.1950
 3612TIP3   OH232326   2.978   0.575   1.691 -0.5300  0.0213 -0.2228
 3612TIP3    H132327   3.062   0.557   1.733 -1.1359  3.7395  3.2544
 3612TIP3    H232328   2.920   0.505   1.720  0.4421 -0.4070  0.7354
 3613TIP3   OH232329   1.441   2.039  11.866 -0.0823 -0.3605 -0.1068
 3613TIP3    H132330   1.510   2.008  11.808 -0.7518 -0.9294 -0.6207
 3613TIP3    H232331   1.364   2.050  11.809 -0.0980  1.4716  0.2171
 3614TIP3   OH232332   3.375   1.880  12.260  0.1823 -0.1394  0.0638
 3614TIP3    H132333   3.419   1.864  12.344  0.4546  2.4945  0.5378
 3614TIP3    H232334   3.446   1.883  12.196  0.0387 -1.5434 -0.1813
 3615TIP3   OH232335   0.806   1.296   5.937 -0.1612 -0.3838  0.6360
 3615TIP3    H132336   0.754   1.321   6.014  0.2254 -2.9191  1.8210
 3615TIP3    H232337   0.760   1.220   5.901  0.5687 -0.2170 -0.6862
 3616TIP3   OH232338   1.898   5.702   2.303 -0.2745 -0.1634 -0.6140
 3616TIP3    H132339   1.988   5.688   2.276 -0.1030 -0.4674  0.0900
 3616TIP3    H232340   1.905   5.740   2.391 -0.8346 -1.3513 -0.0256
 3617TIP3   OH232341   0.227   0.750  15.880  0.4646  0.0720 -0.1528
 3617TIP3    H132342   0.221   0.785  15.969  1.1373  1.8353 -0.7493
 3617TIP3    H232343   0.298   0.686  15.884  2.2727  1.9680  0.0986
 3618TIP3   OH232344   2.329   6.162   4.645  0.1677  0.1345  0.2274
 3618TIP3    H132345   2.260   6.109   4.685 -0.3926 -0.2401 -1.1558
 3618TIP3    H232346   2.409   6.109   4.655 -0.1290 -0.3535  0.0644
 3619TIP3   OH232347   0.752   0.331  11.143  0.2973 -0.0494  0.0242
 3619TIP3    H132348   0.792   0.412  11.110  1.1263 -0.0521  0.9865
 3619TIP3    H232349   0.660   0.338  11.117  0.5623  0.7355 -0.7634
 3620TIP3   OH232350   0.805   6.608   1.464  0.0704  0.8028  0.0358
 3620TIP3    H132351   0.798   6.612   1.559  2.2263  4.0752  0.2238
 3620TIP3    H232352   0.881   6.552   1.448  0.8343  1.7172  0.3811
 3621TIP3   OH232353   1.048   4.450  14.802 -0.1452  0.1722  0.4904
 3621TIP3    H132354   0.981   4.400  14.848  1.0980 -1.0810  1.0304
 3621TIP3    H232355   1.129   4.430  14.850  0.3410  3.3490  1.2474
 3622TIP3   OH232356   4.692   3.898  12.863 -0.0808  0.0187  0.2259
 3622TIP3    H132357   4.673   3.904  12.957 -0.2481  0.6792  0.1539
 3622TIP3    H232358   4.754   3.826  12.856  0.6386  0.5533  0.9564
 3623TIP3   OH232359   4.547   1.893  17.159  0.1029 -0.1255 -0.3050
 3623TIP3    H132360   4.624   1.844  17.129  0.1121 -0.0072 -0.4766
 3623TIP3    H232361   4.583   1.964  17.212  0.1072 -0.1241 -0.3087
 3624TIP3   OH232362   6.536   2.346  12.107 -0.1116  0.2920 -0.2509
 3624TIP3    H132363   6.559   2.387  12.024 -0.7072 -0.7925 -0.9794
 3624TIP3    H232364   6.454   2.388  12.132 -0.1071  0.3824 -0.3831
 3625TIP3   OH232365   2.988   6.703   0.583 -0.4828  0.1183 -0.1375
 3625TIP3    H132366   2.998   6.798   0.580 -0.2217  0.0918 -3.1713
 3625TIP3    H232367   3.009   6.674   0.494 -0.9664 -2.7517  0.5905
 3626TIP3   OH232368   3.795   2.382  15.976  0.7195  0.0893 -0.4098
 3626TIP3    H132369   3.750   2.315  15.924  1.1774  0.4724 -1.3082
 3626TIP3    H232370   3.856   2.333  16.031 -0.9812 -0.4820  1.0808
 3627TIP3   OH232371   1.015   3.529  16.167  0.0619 -0.3137 -0.1531
 3627TIP3    H132372   1.069   3.581  16.226  0.0255 -0.1262 -0.2863
 3627TIP3    H232373   1.071   3.455  16.143 -0.2726 -0.9541  0.9327
 3628TIP3   OH232374   4.257   1.957  15.532 -0.2759  0.5460 -0.2275
 3628TIP3    H132375   4.244   1.943  15.626 -0.5644  0.5324 -0.2680
 3628TIP3    H232376   4.329   1.898  15.508 -2.1243 -1.6948 -0.6065
 3629TIP3   OH232377   3.331   0.834   2.460  0.4012  0.6507 -0.1638
 3629TIP3    H132378   3.321   0.739   2.469  1.0242  0.6611  0.7963
 3629TIP3    H232379   3.375   0.845   2.375  0.5351  0.0624 -0.1786
 3630TIP3   OH232380   1.828   0.203  14.062 -0.0549 -0.6918  0.6111
 3630TIP3    H132381   1.789   0.282  14.098 -1.4821 -0.3385 -1.5365
 3630TIP3    H232382   1.913   0.196  14.106 -0.8943  0.6646  2.6065
 3631TIP3   OH232383   0.656   2.770   1.983 -0.2416  0.6012 -0.1151
 3631TIP3    H132384   0.560   2.765   1.984 -0.2064 -0.2843  0.7321
 3631TIP3    H232385   0.675   2.852   1.938 -1.3724  0.1818 -1.4283
 3632TIP3   OH232386   4.458   4.553  14.865  0.1133  0.5092  0.3730
 3632TIP3    H132387   4.500   4.469  14.880  0.0742  0.5453  0.6809
 3632TIP3    H232388   4.389   4.535  14.801  0.3044  0.3679  0.2050
 3633TIP3   OH232389   3.371   1.731  11.627  0.1462  0.5850  0.1966
 3633TIP3    H132390   3.397   1.812  11.672 -0.1449  0.6436  0.2607
 3633TIP3    H232391   3.408   1.740  11.539  0.3043  0.6874  0.2723
 3634TIP3   OH232392   4.396   5.023  17.180 -0.1123  0.0234 -0.7037
 3634TIP3    H132393   4.336   4.966  17.228 -1.1772  1.9755  0.4138
 3634TIP3    H232394   4.465   5.043  17.244 -0.9348  1.7236 -0.2943
 3635TIP3   OH232395   6.029   4.489   3.988  0.1114  0.1559 -0.5302
 3635TIP3    H132396   6.038   4.565   4.046 -2.2556  1.0684 -1.2278
 3635TIP3    H232397   5.975   4.428   4.037 -0.3579  0.1490 -1.0517
 3636TIP3   OH232398   0.221   5.200   5.766 -0.6125 -0.1908  0.2151
 3636TIP3    H132399   0.212   5.295   5.753 -2.4060 -0.5224 -1.5844
 3636TIP3    H232400   0.203   5.187   5.859  0.6352  1.3051  0.7111
 3637TIP3   OH232401   5.870   1.781  13.774 -0.0040 -0.5707 -0.4724
 3637TIP3    H132402   5.876   1.746  13.685 -1.4225 -1.9210 -0.0814
 3637TIP3    H232403   5.801   1.729  13.816 -0.6287  1.2308  0.8667
 3638TIP3   OH232404   5.116   1.199   0.981 -0.2748  0.0021  0.6935
 3638TIP3    H132405   5.115   1.291   0.954 -2.1321 -0.3846 -0.7968
 3638TIP3    H232406   5.024   1.173   0.978  0.4188 -2.6675 -1.7994
 3639TIP3   OH232407   4.071   3.277  16.132 -0.0446 -0.5912  0.4628
 3639TIP3    H132408   4.081   3.363  16.091  0.2480 -1.1826 -0.7299
 3639TIP3    H232409   3.981   3.252  16.114  0.6566 -1.7731 -1.7244
 3640TIP3   OH232410   3.574   5.923   0.526  0.1934 -0.0266 -0.2520
 3640TIP3    H132411   3.610   5.951   0.610 -0.0362  0.1559 -0.2114
 3640TIP3    H232412   3.553   6.004   0.480  0.0833 -0.1264 -0.3821
 3641TIP3   OH232413   1.707   3.090  14.871  0.3651  0.4182  0.2500
 3641TIP3    H132414   1.635   3.037  14.835  0.4482  0.4774 -0.0045
 3641TIP3    H232415   1.663   3.166  14.908  0.3618  0.8609 -0.6459
 3642TIP3   OH232416   4.506   2.250   5.224 -0.0298 -0.1682  0.1218
 3642TIP3    H132417   4.500   2.320   5.288  0.5826  1.2449 -1.2931
 3642TIP3    H232418   4.600   2.238   5.210 -0.1423 -0.9177 -0.0398
 3643TIP3   OH232419   6.739   5.246   0.884 -0.1862 -0.1427 -0.1251
 3643TIP3    H132420   6.764   5.189   0.811  0.0216 -0.2505  0.0275
 3643TIP3    H232421   6.643   5.248   0.881 -0.1724  0.0218 -0.5258
 3644TIP3   OH232422   2.816   5.814   4.833  0.1446 -0.0036  0.1661
 3644TIP3    H132423   2.810   5.885   4.769  1.4012  0.0652  0.0888
 3644TIP3    H232424   2.739   5.824   4.888 -1.0159 -0.1212 -1.3754
 3645TIP3   OH232425   1.049   0.999   0.036  0.4460  0.6206  0.8563
 3645TIP3    H132426   1.092   0.915   0.022  1.8468  1.2054  1.5222
 3645TIP3    H232427   0.955   0.978   0.032  0.7557 -0.9959  1.1703
 3646TIP3   OH232428   1.995   1.245  16.674  1.0530 -0.1288 -0.0509
 3646TIP3    H132429   2.027   1.155  16.666  2.2477  0.3738 -1.4518
 3646TIP3    H232430   1.956   1.265  16.589  2.8896  1.4012 -0.6074
 3647TIP3   OH232431   3.085   4.424   3.447  0.1482  0.1470  0.0041
 3647TIP3    H132432   3.051   4.351   3.498 -1.4631  0.3774 -0.6719
 3647TIP3    H232433   3.145   4.469   3.507  2.3994 -2.5382 -0.0693
 3648TIP3   OH232434   5.051   3.000   3.792 -0.0271  0.1069  0.0190
 3648TIP3    H132435   5.066   2.974   3.883  0.0116  0.3804  0.0928
 3648TIP3    H232436   5.138   2.995   3.751  0.7251  3.4076  0.8875
 3649TIP3   OH232437   6.171   3.549  17.363  0.2272  0.2993 -0.0971
 3649TIP3    H132438   6.107   3.554  17.292 -0.2822 -0.1939  0.3210
 3649TIP3    H232439   6.163   3.460  17.396 -0.4497  0.8943  1.4121
 3650TIP3   OH232440   3.385   3.149   5.432 -0.2949  0.3572  0.1497
 3650TIP3    H132441   3.407   3.070   5.383 -0.0908 -0.2856  1.2338
 3650TIP3    H232442   3.470   3.183   5.462 -0.2848  1.5707 -1.1243
 3651TIP3   OH232443   1.522   4.826  16.193 -0.1329 -0.0887 -0.1276
 3651TIP3    H132444   1.502   4.771  16.269  1.8391 -1.3719 -0.4741
 3651TIP3    H232445   1.450   4.811  16.132 -0.0789 -1.5872  0.1618
 3652TIP3   OH232446   6.052   1.628  13.992 -0.3895 -0.0344 -0.2382
 3652TIP3    H132447   6.115   1.650  13.924 -1.1439 -1.3093 -1.4002
 3652TIP3    H232448   5.991   1.567  13.950 -0.5000 -1.3998  1.7464
 3653TIP3   OH232449   2.149   0.766  16.245  0.2031 -0.4779 -0.5560
 3653TIP3    H132450   2.117   0.769  16.335  0.2572 -1.7027 -0.4868
 3653TIP3    H232451   2.222   0.828  16.244 -1.0686  1.0993 -0.2986
 3654TIP3   OH232452   1.188   4.837  16.729 -0.4480  0.2576  0.0946
 3654TIP3    H132453   1.269   4.821  16.777 -0.1629  0.9079 -0.1538
 3654TIP3    H232454   1.215   4.847  16.637 -0.8317  0.2689 -0.0207
 3655TIP3   OH232455   5.544   3.570  14.302  0.6109 -0.3289  0.1779
 3655TIP3    H132456   5.613   3.600  14.243 -0.2995 -1.9541 -1.8020
 3655TIP3    H232457   5.483   3.644  14.306  0.4025 -0.3940 -1.3895
 3656TIP3   OH232458   4.144   6.082   6.047 -0.1693  0.2052  0.1658
 3656TIP3    H132459   4.084   6.014   6.074 -1.3267  1.6318  1.3621
 3656TIP3    H232460   4.228   6.058   6.087  0.0413 -1.6145 -1.2383
 3657TIP3   OH232461   5.547   2.101  13.441  0.1369  0.4475  0.4937
 3657TIP3    H132462   5.466   2.120  13.394  0.5616  1.4489  0.1605
 3657TIP3    H232463   5.583   2.186  13.463  0.9600  0.0060  0.9040
 3658TIP3   OH232464   5.860   1.824  14.179 -0.6253  0.0658  0.4264
 3658TIP3    H132465   5.872   1.760  14.249  0.5041 -0.1633  0.0504
 3658TIP3    H232466   5.909   1.787  14.105 -2.1462  0.0833 -0.6334
 3659TIP3   OH232467   0.327   5.450   0.274 -0.5974  0.0804  0.1688
 3659TIP3    H132468   0.410   5.462   0.227 -2.2603 -1.0851 -3.4160
 3659TIP3    H232469   0.305   5.358   0.261 -1.3149 -0.3164  3.3481
 3660TIP3   OH232470   3.410   2.841  11.082  0.2113  0.2113  0.1317
 3660TIP3    H132471   3.422   2.774  11.014  1.8721 -0.7761  1.3214
 3660TIP3    H232472   3.318   2.831  11.109  0.0759 -0.7051 -0.6106
 3661TIP3   OH232473   5.910   4.931  16.853 -0.6252 -0.3151 -0.1289
 3661TIP3    H132474   5.927   4.844  16.818  0.5354  0.1334 -0.6986
 3661TIP3    H232475   5.921   4.921  16.947 -2.8322 -1.3067  0.0890
 3662TIP3   OH232476   3.158   1.661   4.749 -0.1745 -0.5339 -0.9906
 3662TIP3    H132477   3.252   1.680   4.741 -0.6887  2.0025 -1.6956
 3662TIP3    H232478   3.136   1.616   4.667 -0.0172  1.1211 -1.9971
 3663TIP3   OH232479   4.771   0.566  12.696  0.5579 -1.0365  0.2449
 3663TIP3    H132480   4.771   0.634  12.629  0.8901  0.5266  1.7636
 3663TIP3    H232481   4.681   0.532  12.696 -1.2590  2.9415  2.7466
 3664TIP3   OH232482   2.170   6.416   2.808  0.0842  0.8909 -0.2190
 3664TIP3    H132483   2.219   6.460   2.878  1.9195 -0.8646 -0.3364
 3664TIP3    H232484   2.152   6.328   2.842 -2.3205  1.1786 -0.5321
 3665TIP3   OH232485   3.396   6.315  13.912  0.3405 -0.0966 -0.0299
 3665TIP3    H132486   3.447   6.392  13.886  0.1865 -0.3002 -0.9668
 3665TIP3    H232487   3.424   6.297  14.001  1.7189 -0.0495 -0.4351
 3666TIP3   OH232488   2.679   1.420   0.899 -0.8625  0.3378 -0.6107
 3666TIP3    H132489   2.732   1.390   0.825 -1.2114 -0.3360 -0.5955
 3666TIP3    H232490   2.738   1.476   0.949  0.0069 -0.7716 -0.3456
 3667TIP3   OH232491   1.146   3.178  11.384  0.1215 -0.0526  0.1386
 3667TIP3    H132492   1.132   3.099  11.436 -0.6530  1.1477  1.8541
 3667TIP3    H232493   1.064   3.189  11.336  1.0723 -1.5258 -1.9657
 3668TIP3   OH232494   5.602   3.754  17.115 -0.3123  0.3719  0.2831
 3668TIP3    H132495   5.686   3.770  17.073 -0.5771  0.3724 -0.2719
 3668TIP3    H232496   5.596   3.820  17.184 -0.3483  1.1257 -0.4171
 3669TIP3   OH232497   4.512   3.868  13.826 -0.0017 -0.4416  0.3872
 3669TIP3    H132498   4.435   3.902  13.780  0.7477  0.0852 -0.5327
 3669TIP3    H232499   4.515   3.917  13.908 -1.0734 -1.0254  0.7974
 3670TIP3   OH232500   1.821   0.782  11.534 -0.6428  0.2950 -0.2964
 3670TIP3    H132501   1.914   0.794  11.516 -0.6410  1.4340  0.3550
 3670TIP3    H232502   1.789   0.871  11.552 -1.7938 -0.1176 -0.2327
 3671TIP3   OH232503   2.830   5.517  11.668  0.0050 -0.1043  0.1483
 3671TIP3    H132504   2.820   5.500  11.762 -0.1192  1.0767  0.3682
 3671TIP3    H232505   2.783   5.600  11.654  0.7030  0.1467 -0.8063
 3672TIP3   OH232506   4.763   1.651   1.841 -1.3244  0.2738 -0.5179
 3672TIP3    H132507   4.710   1.619   1.768 -1.1718  0.5323 -0.7433
 3672TIP3    H232508   4.766   1.578   1.902 -0.5024 -0.3487 -1.2833
 3673TIP3   OH232509   5.617   6.509  11.500  0.2674 -0.4629 -0.2876
 3673TIP3    H132510   5.687   6.505  11.435  0.7762 -0.3624  0.2484
 3673TIP3    H232511   5.636   6.587  11.551 -1.6298  1.0108 -1.6840
 3674TIP3   OH232512   6.247   3.351   2.271  0.4010 -0.0646  0.3136
 3674TIP3    H132513   6.286   3.417   2.329  1.5353  0.3124 -0.8383
 3674TIP3    H232514   6.187   3.400   2.215  1.4165  0.0698 -0.6986
 3675TIP3   OH232515   4.971   2.310   4.185  0.3425 -0.2399 -0.4395
 3675TIP3    H132516   4.951   2.259   4.106 -0.1444  0.3456 -0.7031
 3675TIP3    H232517   4.888   2.313   4.233  0.5054 -0.1410 -0.1624
 3676TIP3   OH232518   4.123   4.637  13.683 -0.3720 -0.2624 -0.5593
 3676TIP3    H132519   4.196   4.615  13.625  0.5715 -0.7427  0.7706
 3676TIP3    H232520   4.094   4.554  13.719 -0.9806  0.0201 -0.3825
 3677TIP3   OH232521   4.011   0.742   0.327  0.0287 -0.8742 -0.0732
 3677TIP3    H132522   3.988   0.687   0.401 -1.3774 -1.2073 -0.7318
 3677TIP3    H232523   3.960   0.822   0.339 -1.7820 -1.7155 -1.6734
 3678TIP3   OH232524   1.324   0.645  14.008  0.1287 -0.6679  0.2371
 3678TIP3    H132525   1.314   0.706  13.934  0.8948  0.0578  0.7249
 3678TIP3    H232526   1.236   0.608  14.020 -0.7337  1.4650  0.9043
 3679TIP3   OH232527   1.790   0.739   1.684  0.3914 -0.1687 -0.7418
 3679TIP3    H132528   1.884   0.748   1.669  0.3868  0.9987 -0.1994
 3679TIP3    H232529   1.780   0.653   1.725  1.0396 -0.9167 -2.1075
 3680TIP3   OH232530   3.870   1.867   2.048 -0.5082  0.1139  0.3016
 3680TIP3    H132531   3.963   1.884   2.061 -0.7247  2.4875 -0.9069
 3680TIP3    H232532   3.863   1.771   2.051  1.9748 -0.1272  0.2944
 3681TIP3   OH232533   1.013   4.140   1.690  0.2199 -0.0157  0.4169
 3681TIP3    H132534   0.932   4.103   1.725 -0.0772 -0.9177 -1.1505
 3681TIP3    H232535   1.022   4.101   1.604  1.4939  1.3043 -0.0857
 3682TIP3   OH232536   4.439   6.087  12.227  0.0302  0.4988 -0.0011
 3682TIP3    H132537   4.505   6.090  12.158 -0.2878  0.3683 -0.3121
 3682TIP3    H232538   4.364   6.134  12.191  0.2679  1.4774  0.7021
 3683TIP3   OH232539   3.248   3.191   0.589  0.6769 -0.3131 -0.0960
 3683TIP3    H132540   3.309   3.131   0.631  1.0609 -0.9413 -1.4998
 3683TIP3    H232541   3.253   3.170   0.495 -1.0373  0.2048 -0.3527
 3684TIP3   OH232542   1.558   5.650  14.948  0.8784 -0.1613 -0.2483
 3684TIP3    H132543   1.644   5.629  14.912  0.2378  0.2534 -2.1534
 3684TIP3    H232544   1.535   5.734  14.907 -0.0808  0.1617  0.8855
 3685TIP3   OH232545   6.551   3.653   3.693  0.2654  0.7147 -0.1811
 3685TIP3    H132546   6.457   3.639   3.684  0.5440 -0.7301 -1.2389
 3685TIP3    H232547   6.564   3.669   3.786 -0.9427  0.1523  0.1091
 3686TIP3   OH232548   1.906   1.254   2.099  0.4341 -0.2113  0.5602
 3686TIP3    H132549   1.942   1.222   2.182  2.2117 -1.8107 -0.7598
 3686TIP3    H232550   1.947   1.339   2.086 -0.7043  0.5713  1.8015
 3687TIP3   OH232551   3.421   2.293   6.566  0.2873  0.3422  0.3093
 3687TIP3    H132552   3.363   2.340   6.506 -1.4750 -2.0298 -0.0157
 3687TIP3    H232553   3.464   2.361   6.617 -1.3505  2.2949 -0.7838
 3688TIP3   OH232554   1.187   5.472   3.981 -0.2317  0.8438  0.0217
 3688TIP3    H132555   1.218   5.451   4.069  1.9738 -0.7704 -1.0653
 3688TIP3    H232556   1.124   5.403   3.961 -0.4884  1.0239  0.2050
 3689TIP3   OH232557   0.498   2.688  11.271  0.2935 -0.2187  0.5882
 3689TIP3    H132558   0.571   2.697  11.210 -0.5546 -0.7294 -0.5449
 3689TIP3    H232559   0.496   2.595  11.292 -0.8401 -0.4676 -0.4791
 3690TIP3   OH232560   4.496   4.157   4.594  0.1016  0.2334 -0.1984
 3690TIP3    H132561   4.480   4.232   4.536  0.3176 -0.5085 -1.2526
 3690TIP3    H232562   4.582   4.174   4.632  0.7543 -0.1007 -1.4681
 3691TIP3   OH232563   3.543   6.292  16.714  0.5903  0.1134 -0.1728
 3691TIP3    H132564   3.545   6.212  16.766  0.0714  0.3884  0.2807
 3691TIP3    H232565   3.538   6.363  16.778 -0.3504  0.4461 -0.5894
 3692TIP3   OH232566   0.489   5.418   4.999 -0.6338 -0.4654  0.0609
 3692TIP3    H132567   0.457   5.502   5.031  0.5767 -0.4779  1.4278
 3692TIP3    H232568   0.463   5.355   5.067 -0.1693 -0.9221 -0.1722
 3693TIP3   OH232569   0.314   5.346   6.237  0.5113 -0.3150 -0.7285
 3693TIP3    H132570   0.257   5.308   6.305  1.9590 -3.1243 -0.9081
 3693TIP3    H232571   0.403   5.327   6.268  1.3281  2.0271 -1.4777
 3694TIP3   OH232572   4.441   5.370   0.566  0.1541  0.1278 -0.5953
 3694TIP3    H132573   4.427   5.282   0.532  2.1277 -0.5221  0.1470
 3694TIP3    H232574   4.357   5.394   0.605 -0.7205 -0.9887 -1.7081
 3695TIP3   OH232575   5.701   5.963   3.177 -0.2385  0.2710  0.0696
 3695TIP3    H132576   5.618   5.997   3.210  0.5868  1.6266  0.8529
 3695TIP3    H232577   5.685   5.871   3.160 -1.9203  0.5280  0.1247
 3696TIP3   OH232578   2.005   0.359   2.867 -0.5643 -0.5588 -0.5270
 3696TIP3    H132579   1.948   0.342   2.792 -0.6486 -2.1301 -0.1490
 3696TIP3    H232580   1.973   0.299   2.935 -0.7318  1.0919  0.9058
 3697TIP3   OH232581   1.601   2.755  16.556  0.8109  0.2353 -0.0488
 3697TIP3    H132582   1.601   2.676  16.503  1.5302  0.5596 -0.5475
 3697TIP3    H232583   1.597   2.827  16.493  1.9383  0.6307  0.3019
 3698TIP3   OH232584   5.798   2.400  12.254 -0.1150  0.3597  0.4104
 3698TIP3    H132585   5.832   2.404  12.344 -0.7442  1.0463  0.6293
 3698TIP3    H232586   5.716   2.350  12.262  0.2782 -0.3517  0.0641
 3699TIP3   OH232587   3.810   1.332  16.475  0.1687 -0.1591 -0.1062
 3699TIP3    H132588   3.726   1.305  16.436  0.2354  1.2725 -1.3110
 3699TIP3    H232589   3.790   1.415  16.518  0.2020 -1.4564  2.6794
 3700TIP3   OH232590   4.705   3.506   1.769  0.1416 -0.5823  0.4528
 3700TIP3    H132591   4.718   3.413   1.791  0.3814 -0.0296  2.9332
 3700TIP3    H232592   4.791   3.546   1.784 -0.4618  0.3826  1.3993
 3701TIP3   OH232593   4.443   5.018  15.776  0.9098 -0.0743 -0.6042
 3701TIP3    H132594   4.438   4.925  15.754 -2.1788  0.0257 -0.8519
 3701TIP3    H232595   4.421   5.063  15.695  0.6908  0.7885 -0.0843
 3702TIP3   OH232596   2.360   1.938   0.851 -0.4155  0.4301  0.1809
 3702TIP3    H132597   2.322   1.921   0.937 -2.0276  2.2344 -0.1436
 3702TIP3    H232598   2.393   1.852   0.823 -4.1699 -1.2849  0.5176
 3703TIP3   OH232599   2.326   4.415  16.701 -0.1767  0.3158 -0.5608
 3703TIP3    H132600   2.258   4.364  16.745  0.7317 -0.7312 -0.3291
 3703TIP3    H232601   2.396   4.423  16.766  0.1566  0.8843 -0.9797
 3704TIP3   OH232602   1.970   3.821  12.735 -0.2368 -0.0876  0.6370
 3704TIP3    H132603   1.941   3.854  12.819 -0.7400  0.0315  0.4194
 3704TIP3    H232604   1.966   3.896  12.676  0.3547 -0.1076  0.5569
 3705TIP3   OH232605   5.762   5.991  11.600  0.1529  0.5640 -0.0211
 3705TIP3    H132606   5.786   5.919  11.659  1.7638 -0.4142 -1.7730
 3705TIP3    H232607   5.754   6.067  11.658 -1.9414 -1.0209  1.9316
 3706TIP3   OH232608   6.728   5.648   5.628 -0.5078  0.2792  0.9304
 3706TIP3    H132609   6.674   5.646   5.706 -1.9917  1.6227  0.0020
 3706TIP3    H232610   6.673   5.610   5.559 -1.7009  4.4881 -0.7601
 3707TIP3   OH232611   6.588   6.182   1.429 -0.1438  0.4828  0.7307
 3707TIP3    H132612   6.635   6.218   1.354  1.8145  0.7229  2.0077
 3707TIP3    H232613   6.587   6.088   1.414 -1.9064  0.6674 -0.7253
 3708TIP3   OH232614   5.445   1.939   2.530  0.0593  0.2741 -0.2639
 3708TIP3    H132615   5.398   1.893   2.600 -0.8029 -1.3566 -1.8226
 3708TIP3    H232616   5.445   2.031   2.558 -3.1786  0.2145  0.3372
 3709TIP3   OH232617   2.713   1.996   2.030 -0.3103 -0.2495  0.0290
 3709TIP3    H132618   2.664   2.025   2.107 -0.2136 -0.0406  0.0134
 3709TIP3    H232619   2.690   1.904   2.020  0.8089 -0.6741  1.1834
 3710TIP3   OH232620   6.514   5.856  14.825  0.1392 -0.1201 -0.0120
 3710TIP3    H132621   6.452   5.796  14.785  0.9586 -0.6303 -0.5333
 3710TIP3    H232622   6.579   5.800  14.866  0.2220  0.4097  0.6012
 3711TIP3   OH232623   2.183   4.738  17.084  1.0138  0.0321 -0.3880
 3711TIP3    H132624   2.233   4.815  17.056 -0.2397  1.3646  0.8269
 3711TIP3    H232625   2.246   4.683  17.129  1.7789  0.7669 -0.5392
 3712TIP3   OH232626   0.265   1.396   3.524 -0.9731  0.3757  0.1076
 3712TIP3    H132627   0.306   1.315   3.553 -2.3234 -0.6161 -0.6335
 3712TIP3    H232628   0.321   1.429   3.454 -1.0281 -0.5703 -0.3991
 3713TIP3   OH232629   3.572   5.943  12.315 -0.0847  0.7453  0.4173
 3713TIP3    H132630   3.573   5.851  12.292  2.5409  0.8612 -0.2788
 3713TIP3    H232631   3.566   5.944  12.411  0.7846 -0.1948  0.4957
 3714TIP3   OH232632   5.265   2.073  17.316 -0.6086 -0.1518 -0.4846
 3714TIP3    H132633   5.274   1.996  17.372 -0.2147  0.4918  0.3512
 3714TIP3    H232634   5.211   2.043  17.242 -0.7778 -1.1180  0.0206
 3715TIP3   OH232635   0.882   0.134   4.282 -0.5631  0.2288  0.3670
 3715TIP3    H132636   0.889   0.047   4.242 -0.2704  0.4666 -0.1069
 3715TIP3    H232637   0.827   0.184   4.222 -1.0722  0.2564  0.8470
 3716TIP3   OH232638   0.569   0.913  15.031  0.0798 -0.2274 -0.6213
 3716TIP3    H132639   0.540   0.995  14.991  0.3893 -0.7634 -1.9899
 3716TIP3    H232640   0.638   0.940  15.092  1.4706  0.4048 -2.3814
 3717TIP3   OH232641   5.866   3.638   6.313 -0.0200 -0.2737  0.3142
 3717TIP3    H132642   5.878   3.555   6.358 -0.8942 -0.7060 -0.2308
 3717TIP3    H232643   5.896   3.704   6.376 -0.1841 -0.9322  1.1016
 3718TIP3   OH232644   1.331   5.721   5.220 -0.0238  0.6601 -0.1077
 3718TIP3    H132645   1.391   5.674   5.277  1.5015 -0.1091 -2.2446
 3718TIP3    H232646   1.375   5.805   5.202  0.1461  0.3677 -1.1445
 3719TIP3   OH232647   6.763   2.102  14.701 -0.3089 -0.3813  0.7692
 3719TIP3    H132648   6.843   2.112  14.751 -0.1893  0.7931  0.3705
 3719TIP3    H232649   6.745   2.008  14.703  2.3211 -1.0503 -1.0342
 3720TIP3   OH232650   0.891   0.660  14.545  0.2757 -0.1514  0.1771
 3720TIP3    H132651   0.868   0.746  14.580  0.6900  0.0949 -0.1410
 3720TIP3    H232652   0.986   0.653  14.560  0.5554  0.1518 -1.2886
 3721TIP3   OH232653   3.571   5.175  15.159  0.0494 -0.1358  0.6466
 3721TIP3    H132654   3.480   5.200  15.166  0.1536 -0.0688  1.9508
 3721TIP3    H232655   3.575   5.120  15.081 -1.1318 -0.2613  0.6640
 3722TIP3   OH232656   2.869   5.047   3.219 -0.2665 -0.3865  0.1161
 3722TIP3    H132657   2.914   4.973   3.259 -0.9717 -1.4171 -0.9196
 3722TIP3    H232658   2.933   5.118   3.219  0.8155 -1.3433  0.0861
 3723TIP3   OH232659   3.604   5.958  13.001  0.7558 -0.1457  0.1104
 3723TIP3    H132660   3.568   5.994  12.920  0.4833  0.1977  0.3790
 3723TIP3    H232661   3.650   6.032  13.041 -0.2121  0.0348  0.9075
 3724TIP3   OH232662   1.266   6.727  14.042 -0.3575 -0.2802 -0.1690
 3724TIP3    H132663   1.359   6.707  14.047 -0.5928 -1.1540  2.1687
 3724TIP3    H232664   1.261   6.807  13.990  1.6643 -0.2602 -0.4060
 3725TIP3   OH232665   6.602   6.173   0.519 -0.4333  0.3409 -0.2680
 3725TIP3    H132666   6.618   6.080   0.506  0.2824  0.5212 -0.7767
 3725TIP3    H232667   6.518   6.177   0.566 -1.6994 -0.4892 -2.3075
 3726TIP3   OH232668   4.495   6.618   0.107  0.5341 -0.4943  0.2488
 3726TIP3    H132669   4.436   6.648   0.176  2.0279  0.2880  1.2252
 3726TIP3    H232670   4.542   6.544   0.146  2.4830  0.9064  0.6603
 3727TIP3   OH232671   4.461   5.776  12.208  0.1089 -0.5157  0.7694
 3727TIP3    H132672   4.508   5.699  12.239  1.8957 -0.0684 -0.6274
 3727TIP3    H232673   4.474   5.841  12.277 -0.7887 -1.2319  1.6207
 3728TIP3   OH232674   6.150   4.438  15.407 -0.4996  0.1458  0.0663
 3728TIP3    H132675   6.087   4.472  15.344 -0.9176 -0.1073  0.3449
 3728TIP3    H232676   6.100   4.429  15.489 -0.0665  0.0850  0.3270
 3729TIP3   OH232677   6.445   2.396   6.467 -0.2940 -0.3592 -0.2822
 3729TIP3    H132678   6.539   2.412   6.475 -0.5205  0.5050  0.9698
 3729TIP3    H232679   6.407   2.479   6.440 -0.5333 -1.1797 -2.7131
 3730TIP3   OH232680   1.281   5.014  15.722 -0.6363  0.0338  0.4768
 3730TIP3    H132681   1.278   5.002  15.627 -0.4020  0.1399  0.4556
 3730TIP3    H232682   1.199   4.975  15.754 -0.4576 -0.4949  0.2913
 3731TIP3   OH232683   3.990   4.182   5.420 -0.8009 -0.2225  0.6273
 3731TIP3    H132684   3.919   4.206   5.360  0.7265  1.5961 -0.5680
 3731TIP3    H232685   4.034   4.108   5.377 -0.0971  0.6706 -0.2290
 3732TIP3   OH232686   0.183   0.421   4.856  0.2846 -1.0151  0.6338
 3732TIP3    H132687   0.134   0.339   4.857 -0.5353 -0.5587 -0.1941
 3732TIP3    H232688   0.272   0.397   4.882  0.6599 -2.5704 -1.8560
 3733TIP3   OH232689   0.409   3.441   2.732 -0.0293 -0.0149  0.7397
 3733TIP3    H132690   0.360   3.437   2.650  0.9400  1.0163  0.0862
 3733TIP3    H232691   0.350   3.403   2.797 -0.9504 -0.5338 -0.3595
 3734TIP3   OH232692   0.160   0.955   3.399  0.3413  0.3528 -0.3745
 3734TIP3    H132693   0.087   0.986   3.453  0.0566  0.2120 -0.6733
 3734TIP3    H232694   0.238   0.985   3.445  0.0951  0.5085 -0.0513
 3735TIP3   OH232695   0.933   2.089  15.460 -0.6552 -0.6905  0.6479
 3735TIP3    H132696   0.908   2.156  15.397  1.0243  1.1978  1.8783
 3735TIP3    H232697   0.881   2.109  15.538 -0.8609 -1.4674  0.7258
 3736TIP3   OH232698   3.856   4.690  16.048  0.1745  0.0363  0.1288
 3736TIP3    H132699   3.854   4.776  16.006  0.6800  0.0709  0.1759
 3736TIP3    H232700   3.775   4.648  16.020  0.8326 -0.2218 -1.4492
 3737TIP3   OH232701   4.716   1.887   1.223  0.0462 -0.3332  0.1495
 3737TIP3    H132702   4.673   1.834   1.156 -0.0600  0.9514 -0.8395
 3737TIP3    H232703   4.778   1.941   1.175  0.3877  0.2118  1.1642
 3738TIP3   OH232704   3.289   1.522   5.717  0.3669 -0.4652 -0.2603
 3738TIP3    H132705   3.336   1.441   5.736 -0.7819 -1.1098 -0.0881
 3738TIP3    H232706   3.289   1.570   5.801 -0.3194 -1.0183  0.0678
 3739TIP3   OH232707   3.071   2.783  13.130 -0.3532  0.0684  0.8575
 3739TIP3    H132708   3.035   2.862  13.170  0.4366 -0.5452  2.9070
 3739TIP3    H232709   3.132   2.815  13.064 -1.5207  1.1270  0.2388
 3740TIP3   OH232710   1.680   2.006  13.538  0.5378 -0.0719 -0.1127
 3740TIP3    H132711   1.668   2.010  13.443 -1.5566  1.9169  0.1723
 3740TIP3    H232712   1.633   1.927  13.565  1.0310 -0.5745 -0.6824
 3741TIP3   OH232713   2.719   3.850  14.526 -0.3377 -0.6363 -0.2140
 3741TIP3    H132714   2.735   3.871  14.618  0.5692 -1.0563 -0.2696
 3741TIP3    H232715   2.789   3.790  14.502  0.1152  0.3545 -1.4985
 3742TIP3   OH232716   4.828   0.726   0.083  0.0023 -0.2597 -0.3237
 3742TIP3    H132717   4.826   0.669   0.160 -0.9088 -0.0122 -0.1541
 3742TIP3    H232718   4.796   0.810   0.114 -1.1469 -0.3811 -1.1446
 3743TIP3   OH232719   3.388   1.713   6.855  0.2082  0.5549 -0.3561
 3743TIP3    H132720   3.328   1.721   6.781  1.2074  1.7706 -1.0904
 3743TIP3    H232721   3.345   1.760   6.926 -0.3926  0.0861 -0.4047
 3744TIP3   OH232722   5.031   0.271  14.655 -0.3399 -0.1774 -0.3688
 3744TIP3    H132723   5.115   0.253  14.613  0.2280  0.1368  0.5990
 3744TIP3    H232724   4.992   0.340  14.601 -0.2107 -0.6930 -1.1260
 3745TIP3   OH232725   5.540   4.480  11.410  0.6111  0.2799  0.1056
 3745TIP3    H132726   5.489   4.486  11.491  0.9400 -0.6680  0.3955
 3745TIP3    H232727   5.583   4.394  11.415 -1.4143 -1.0158 -2.2748
 3746TIP3   OH232728   2.719   4.241   2.018 -0.4232 -0.0619 -0.4078
 3746TIP3    H132729   2.710   4.299   2.094  1.0076 -0.3116 -0.0200
 3746TIP3    H232730   2.812   4.244   1.997 -0.7161 -0.3879 -1.8638
 3747TIP3   OH232731   3.401   6.395  14.711  0.4757  0.0471  0.2602
 3747TIP3    H132732   3.390   6.416  14.803 -0.8978 -0.0220  0.1394
 3747TIP3    H232733   3.397   6.299  14.707 -0.8043  0.0893  0.0112
 3748TIP3   OH232734   0.199   5.267   4.093  0.4449 -0.0811 -0.0549
 3748TIP3    H132735   0.158   5.206   4.154 -1.5593  0.7002 -0.5293
 3748TIP3    H232736   0.281   5.292   4.135 -0.7502  0.2409  2.2090
 3749TIP3   OH232737   2.152   3.082  14.725  0.0646  0.6183  0.3781
 3749TIP3    H132738   2.216   3.030  14.774 -1.3338  0.8509  2.5815
 3749TIP3    H232739   2.176   3.068  14.633  1.2937 -1.8701  0.9708
 3750TIP3   OH232740   4.253   0.340  13.991  0.1345 -0.7100 -0.1954
 3750TIP3    H132741   4.296   0.386  13.920 -0.3091 -1.6703 -1.1149
 3750TIP3    H232742   4.190   0.403  14.027  0.2736 -0.2631 -0.7421
 3751TIP3   OH232743   3.625   4.517   1.364  0.3622 -0.3438  0.1215
 3751TIP3    H132744   3.569   4.442   1.383 -1.2312  1.1771  1.8789
 3751TIP3    H232745   3.661   4.541   1.449  0.3744  1.1964 -0.2953
 3752TIP3   OH232746   6.467   2.692   0.838  0.4471 -0.2293 -0.1599
 3752TIP3    H132747   6.426   2.757   0.779 -0.5557 -0.6774  0.0140
 3752TIP3    H232748   6.421   2.610   0.819 -0.2709 -0.2850  1.5925
 3753TIP3   OH232749   1.694   2.846  12.807 -0.2973  0.4432  0.7134
 3753TIP3    H132750   1.655   2.758  12.801 -2.9142  1.6232 -1.2301
 3753TIP3    H232751   1.652   2.886  12.883 -0.3452  0.5933  0.6077
 3754TIP3   OH232752   6.033   2.795  13.187 -0.2394  0.3718  0.0402
 3754TIP3    H132753   6.024   2.726  13.121 -0.4066  1.0672 -0.6781
 3754TIP3    H232754   6.087   2.755  13.256  1.7482  0.2735 -1.4590
 3755TIP3   OH232755   0.690   0.058  16.823  0.1048  0.1713  0.3387
 3755TIP3    H132756   0.667   0.085  16.912 -0.0382  1.0169  0.0550
 3755TIP3    H232757   0.771   0.106  16.803 -0.0739  0.2890 -0.1221
 3756TIP3   OH232758   3.739   4.160   3.094  0.2994  0.0243 -0.0684
 3756TIP3    H132759   3.689   4.167   3.175  0.2415  1.5918 -0.2150
 3756TIP3    H232760   3.757   4.066   3.085  0.5829 -0.1594  1.9157
 3757TIP3   OH232761   2.838   2.591  15.606  0.0071 -0.2247  0.0677
 3757TIP3    H132762   2.768   2.644  15.568 -0.1359 -0.9733 -0.7543
 3757TIP3    H232763   2.918   2.639  15.586 -0.0409 -0.7500 -1.4994
 3758TIP3   OH232764   6.012   4.461   1.858  0.1518 -0.3538 -0.0858
 3758TIP3    H132765   6.010   4.508   1.942 -0.0858 -2.2656  1.0268
 3758TIP3    H232766   6.104   4.468   1.830 -0.0607  1.5227 -0.4317
 3759TIP3   OH232767   3.586   5.358  13.784  0.2472  0.3843  0.2309
 3759TIP3    H132768   3.580   5.409  13.865 -0.8726  1.1669 -0.3123
 3759TIP3    H232769   3.678   5.332  13.779  0.0218 -1.1541  2.5970
 3760TIP3   OH232770   1.933   3.202  12.687  0.6731  0.1970  0.1118
 3760TIP3    H132771   2.002   3.250  12.641 -0.6110  1.4276 -0.6142
 3760TIP3    H232772   1.894   3.267  12.745  1.0581 -0.8682  1.6122
 3761TIP3   OH232773   3.036   4.183  16.126  0.2401 -0.2675  0.2908
 3761TIP3    H132774   3.018   4.242  16.199  0.2404  0.6847 -0.4558
 3761TIP3    H232775   3.108   4.225  16.079 -1.6699  0.7207 -1.9389
 3762TIP3   OH232776   5.417   5.233  13.388 -0.0633  0.1582  0.7744
 3762TIP3    H132777   5.503   5.275  13.377  0.9312 -2.0597 -0.5422
 3762TIP3    H232778   5.412   5.169  13.317 -1.8015 -1.4548  2.2461
 3763TIP3   OH232779   1.641   2.162   1.701  0.0724 -1.3275  1.1038
 3763TIP3    H132780   1.577   2.146   1.632  0.4247  0.4121  0.3163
 3763TIP3    H232781   1.700   2.227   1.664  0.2113 -0.2554  3.0680
 3764TIP3   OH232782   3.750   3.749   5.172  0.3883 -0.0131 -0.1104
 3764TIP3    H132783   3.830   3.738   5.121  1.7313 -1.3811  2.1284
 3764TIP3    H232784   3.680   3.722   5.113  1.6021  0.5269 -1.8882
 3765TIP3   OH232785   4.228   6.736  13.790 -0.0570 -0.1000  0.5608
 3765TIP3    H132786   4.246   6.780  13.706 -2.8810 -0.2366 -0.2003
 3765TIP3    H232787   4.240   6.643  13.770 -1.1460 -0.1638  0.1718
 3766TIP3   OH232788   1.532   6.700   2.495  0.1811 -0.3307  0.1132
 3766TIP3    H132789   1.535   6.678   2.402  0.6948  1.8577 -0.4235
 3766TIP3    H232790   1.619   6.732   2.515 -0.1931  0.0982  1.1118
 3767TIP3   OH232791   3.336   4.319   6.097  0.0877 -0.9351  0.5085
 3767TIP3    H132792   3.330   4.224   6.105 -0.1587 -1.0059 -0.3873
 3767TIP3    H232793   3.291   4.339   6.015 -2.8843  0.2856  2.2678
 3768TIP3   OH232794   6.030   0.958   2.130 -0.7052  1.1337 -0.1772
 3768TIP3    H132795   6.014   1.047   2.101 -1.9698  1.1647  0.5526
 3768TIP3    H232796   6.099   0.926   2.072  3.4183  4.1507  2.5105
 3769TIP3   OH232797   3.572   0.456   5.513  0.2573  0.1107  0.1618
 3769TIP3    H132798   3.520   0.401   5.571 -2.3630  1.0821 -1.1042
 3769TIP3    H232799   3.566   0.544   5.550  0.9337  0.2729 -0.0834
 3770TIP3   OH232800   4.120   4.957   1.227 -0.1217 -0.3028 -0.5492
 3770TIP3    H132801   4.077   5.031   1.184 -0.4542 -0.5954 -0.7267
 3770TIP3    H232802   4.068   4.940   1.305  1.0237  0.8296  0.4989
 3771TIP3   OH232803   0.078   4.723   2.882  0.2732  0.3107  0.4693
 3771TIP3    H132804   0.032   4.651   2.838  0.3403  0.3263  0.3728
 3771TIP3    H232805   0.170   4.710   2.859  0.4721 -0.3734  1.5911
 3772TIP3   OH232806   0.046   4.293  15.884  0.1277 -0.1666 -0.0447
 3772TIP3    H132807   0.009   4.338  15.808 -1.1525  0.5933  0.9786
 3772TIP3    H232808   0.090   4.362  15.933 -0.4450 -0.3186  0.7071
 3773TIP3   OH232809   6.325   1.506  12.867 -0.2702 -0.2165  0.0338
 3773TIP3    H132810   6.369   1.578  12.912  0.4553 -0.7603  0.2235
 3773TIP3    H232811   6.397   1.449  12.837 -0.8549 -1.3828  0.7709
 3774TIP3   OH232812   0.438   2.957  15.741  0.4640  0.0851  0.2416
 3774TIP3    H132813   0.421   2.868  15.772 -0.2878 -0.6564 -2.0747
 3774TIP3    H232814   0.515   2.985  15.790  1.2892 -2.2027  0.3778
 3775TIP3   OH232815   2.426   5.413   5.962 -0.6961 -0.3534 -0.4295
 3775TIP3    H132816   2.340   5.376   5.940 -1.5098  0.1265  1.7260
 3775TIP3    H232817   2.442   5.386   6.052  1.4993 -0.5066 -0.8044
 3776TIP3   OH232818   2.961   0.324  13.135  0.0780  0.5141  0.1618
 3776TIP3    H132819   2.918   0.315  13.049 -0.1284 -1.9637  0.4392
 3776TIP3    H232820   3.025   0.252  13.137 -0.2837  0.1803  2.2664
 3777TIP3   OH232821   0.682   5.484   1.701  0.3323  0.0490  0.3581
 3777TIP3    H132822   0.624   5.482   1.778 -1.3368 -2.1347 -0.8384
 3777TIP3    H232823   0.623   5.474   1.627  2.0373  0.6884 -1.1576
 3778TIP3   OH232824   5.214   0.850   5.898 -0.1949 -0.5450  0.1481
 3778TIP3    H132825   5.165   0.911   5.954  0.7271  0.3141  0.0633
 3778TIP3    H232826   5.157   0.774   5.889 -1.2704  0.1989  0.4825
 3779TIP3   OH232827   3.833   3.496   0.051  0.3243 -0.0434 -0.3686
 3779TIP3    H132828   3.743   3.515   0.079  0.1893  0.5995 -1.2132
 3779TIP3    H232829   3.839   3.533  -0.037  0.9742 -1.3694 -0.9104
 3780TIP3   OH232830   2.015   1.777  17.383  0.5978  0.0940 -0.6384
 3780TIP3    H132831   1.991   1.704  17.326  0.3443 -0.9069  0.7013
 3780TIP3    H232832   2.078   1.740  17.445 -0.4212  0.6918  0.8070
 3781TIP3   OH232833   6.718   2.548   1.591  0.3839  0.4981  0.4547
 3781TIP3    H132834   6.719   2.644   1.586 -0.2177  0.4681 -0.4214
 3781TIP3    H232835   6.681   2.520   1.508 -2.5921 -0.3670  1.9099
 3782TIP3   OH232836   1.706   4.333  12.634 -0.0573 -0.3395 -0.2173
 3782TIP3    H132837   1.632   4.393  12.649  0.0192 -0.4259  0.5692
 3782TIP3    H232838   1.667   4.258  12.589 -0.0126  0.6175 -1.9123
 3783TIP3   OH232839   5.762   1.323   4.963 -0.6037 -0.3650 -0.1127
 3783TIP3    H132840   5.842   1.376   4.961 -0.5680 -0.4014 -2.5025
 3783TIP3    H232841   5.792   1.236   4.989  0.3105 -0.5482 -1.6215
 3784TIP3   OH232842   0.751   0.427  13.175  0.3492  0.1656  0.0498
 3784TIP3    H132843   0.714   0.339  13.162  1.0679  0.1611 -2.2649
 3784TIP3    H232844   0.834   0.425  13.128  0.8365  1.8110  0.7851
 3785TIP3   OH232845   4.530   0.351  11.340  0.1827 -0.0114  0.7578
 3785TIP3    H132846   4.519   0.257  11.324  0.6347 -0.1306  1.1075
 3785TIP3    H232847   4.443   0.388  11.329  0.3453 -0.1635 -1.3587
 3786TIP3   OH232848   5.753   0.274  14.912 -0.5342  0.1094  0.3907
 3786TIP3    H132849   5.699   0.298  14.987 -0.2868 -0.6750  0.8229
 3786TIP3    H232850   5.843   0.281  14.944 -0.3384  1.5510 -0.3641
 3787TIP3   OH232851   2.696   5.595   4.586 -0.4055  0.2732  0.2272
 3787TIP3    H132852   2.781   5.635   4.601  0.6833 -1.6590 -0.4867
 3787TIP3    H232853   2.638   5.669   4.568  2.0896  1.5603 -3.9375
 3788TIP3   OH232854   3.958   5.241   4.323 -0.2516  0.7675  0.3874
 3788TIP3    H132855   3.931   5.158   4.282 -1.3062  1.0607  0.4747
 3788TIP3    H232856   4.052   5.246   4.304 -0.2425 -0.2591  0.0450
 3789TIP3   OH232857   2.573   6.127  15.927  0.2642 -0.4944  0.6086
 3789TIP3    H132858   2.492   6.124  15.876 -0.1677 -0.2440  1.2579
 3789TIP3    H232859   2.630   6.187  15.880  0.4891 -1.4876 -0.4350
 3790TIP3   OH232860   6.319   0.364   3.542  0.2788 -0.4166 -0.3954
 3790TIP3    H132861   6.228   0.337   3.554  0.5342 -0.5448  1.8527
 3790TIP3    H232862   6.368   0.282   3.536  0.4335 -0.4028  0.4889
 3791TIP3   OH232863   3.145   6.593  12.033 -0.2300 -0.1166 -0.1969
 3791TIP3    H132864   3.088   6.531  11.988  0.1669  0.2089 -1.1936
 3791TIP3    H232865   3.234   6.562  12.014 -0.0234  0.8215 -0.8426
 3792TIP3   OH232866   4.538   6.448   3.579 -0.8913 -0.0426 -0.0204
 3792TIP3    H132867   4.554   6.522   3.520 -0.2158 -0.6531 -0.6116
 3792TIP3    H232868   4.552   6.485   3.666 -0.4934  0.5219 -0.3104
 3793TIP3   OH232869   0.585   0.693   3.493 -0.2063 -0.4120  0.2888
 3793TIP3    H132870   0.563   0.672   3.583 -0.0590 -1.7265  0.0340
 3793TIP3    H232871   0.517   0.651   3.440 -1.4082  1.9346 -0.1697
 3794TIP3   OH232872   1.054   3.292   4.503  0.3664  0.1129 -0.2518
 3794TIP3    H132873   1.085   3.375   4.466  0.1213  0.4957  0.3764
 3794TIP3    H232874   1.071   3.227   4.435  1.3644  0.5275 -0.4258
 3795TIP3   OH232875   2.884   0.828  13.140 -0.8680 -0.1740  0.3988
 3795TIP3    H132876   2.904   0.774  13.217 -2.2394 -1.3511 -0.0098
 3795TIP3    H232877   2.922   0.779  13.066 -1.8202 -0.4212  0.0611
 3796TIP3   OH232878   4.360   6.035  16.894 -0.7982  0.0255 -0.2367
 3796TIP3    H132879   4.344   6.082  16.812 -0.4867  0.2601 -0.1641
 3796TIP3    H232880   4.418   6.092  16.944 -0.0366 -0.6283 -0.3375
 3797TIP3   OH232881   3.201   2.779   1.701 -0.1569  0.1269  0.2098
 3797TIP3    H132882   3.176   2.780   1.793 -1.9492  0.1363 -0.2513
 3797TIP3    H232883   3.119   2.773   1.653  0.6016  1.8191 -1.4582
 3798TIP3   OH232884   4.407   4.118  13.153 -0.3467  0.2483  0.0035
 3798TIP3    H132885   4.394   4.024  13.164 -0.8119  0.0674 -1.8063
 3798TIP3    H232886   4.319   4.155  13.160 -0.5797  0.1963 -1.9339
 3799TIP3   OH232887   1.243   5.079  12.035 -0.0118 -0.0487 -0.4269
 3799TIP3    H132888   1.317   5.052  12.089  0.3576  1.8405  0.0913
 3799TIP3    H232889   1.166   5.046  12.081  0.3037  1.4627  1.2934
 3800TIP3   OH232890   3.072   4.294  16.853 -0.2744  0.4785  0.1572
 3800TIP3    H132891   3.108   4.243  16.781 -1.0759 -0.5556  0.4500
 3800TIP3    H232892   3.057   4.381  16.817 -0.6630 -0.0263 -0.9241
 3801TIP3   OH232893   1.151   5.854  15.248 -0.5405 -0.7640 -0.2792
 3801TIP3    H132894   1.152   5.758  15.255  0.2988 -1.0667 -3.2492
 3801TIP3    H232895   1.059   5.878  15.261 -1.6022 -2.4837 -3.5310
 3802TIP3   OH232896   0.567   2.502   0.222  0.1037  0.5096 -0.8053
 3802TIP3    H132897   0.520   2.496   0.139 -0.7073  3.4001 -0.6779
 3802TIP3    H232898   0.499   2.498   0.289  0.7340 -1.6302 -0.2178
 3803TIP3   OH232899   4.463   1.033   2.521  0.1314  0.2814 -0.2910
 3803TIP3    H132900   4.535   1.073   2.569 -0.1025 -1.1698  1.3625
 3803TIP3    H232901   4.504   0.985   2.450  0.9227 -1.1728  1.0922
 3804TIP3   OH232902   1.960   0.391   1.409 -0.6390  0.4460 -0.2398
 3804TIP3    H132903   2.054   0.393   1.396 -0.7987  2.8139 -1.5520
 3804TIP3    H232904   1.949   0.379   1.504  0.9451 -0.4175 -0.1374
 3805TIP3   OH232905   1.001   0.250  15.882  0.3378  0.8474 -0.1046
 3805TIP3    H132906   1.001   0.286  15.971  1.4052  1.1932 -0.2267
 3805TIP3    H232907   1.046   0.166  15.890  1.9815  1.6301 -0.5652
 3806TIP3   OH232908   2.797   3.778  12.612  0.7609  0.9334  0.0343
 3806TIP3    H132909   2.844   3.705  12.654  0.5522 -0.2391 -1.6583
 3806TIP3    H232910   2.832   3.856  12.654  1.4465 -0.0990  1.4891
 3807TIP3   OH232911   4.757   4.740   5.825  0.1051  0.5483  0.2323
 3807TIP3    H132912   4.719   4.808   5.770 -0.0225 -2.1625 -3.4054
 3807TIP3    H232913   4.835   4.710   5.777 -0.8908 -3.0723  0.5603
 3808TIP3   OH232914   0.389   2.496   1.773 -0.2294  0.0428  0.3099
 3808TIP3    H132915   0.433   2.435   1.832  1.3823 -1.6612 -2.3996
 3808TIP3    H232916   0.316   2.446   1.737 -0.3266  0.5294 -0.1843
 3809TIP3   OH232917   5.648   5.381   1.474  0.7265 -0.3771 -0.0633
 3809TIP3    H132918   5.669   5.302   1.524  1.1097  0.0008  0.3779
 3809TIP3    H232919   5.559   5.365   1.441  1.0047 -1.2260 -0.4464
 3810TIP3   OH232920   1.479   3.232  15.342 -0.1790 -0.0917 -0.5815
 3810TIP3    H132921   1.469   3.160  15.405 -0.2982 -0.8348 -1.4300
 3810TIP3    H232922   1.551   3.204  15.285 -0.2121  0.4758 -0.9135
 3811TIP3   OH232923   1.788   4.099  13.776 -0.5350 -0.0450 -0.2848
 3811TIP3    H132924   1.773   4.038  13.849  0.6690  0.3512  0.3186
 3811TIP3    H232925   1.861   4.061  13.728  0.3283  0.9810  0.1897
 3812TIP3   OH232926   6.132   3.663  14.602  0.0949  0.6327  0.1362
 3812TIP3    H132927   6.220   3.684  14.634  0.3351  0.5989 -0.4993
 3812TIP3    H232928   6.108   3.584  14.650  0.2244  0.8869  0.6416
 3813TIP3   OH232929   3.583   2.846  17.401  0.3795 -0.1885 -0.0363
 3813TIP3    H132930   3.512   2.800  17.355  0.1536 -0.8043  0.9165
 3813TIP3    H232931   3.653   2.852  17.336  0.0562 -1.0298 -0.4795
 3814TIP3   OH232932   2.789   5.169  15.860 -0.1146 -0.0244 -0.2439
 3814TIP3    H132933   2.736   5.172  15.940 -1.8647 -1.8626 -1.2573
 3814TIP3    H232934   2.872   5.131  15.888 -1.1677 -1.8684  0.5344
 3815TIP3   OH232935   1.762   2.475  11.222  0.1443  0.5273  0.4699
 3815TIP3    H132936   1.704   2.551  11.230 -1.7380 -0.7659 -0.1810
 3815TIP3    H232937   1.754   2.449  11.131 -0.4039 -1.3097  1.0054
 3816TIP3   OH232938   2.366   5.811   0.818 -0.2650 -0.1355  0.0506
 3816TIP3    H132939   2.295   5.803   0.882 -0.7302  0.1205 -0.4273
 3816TIP3    H232940   2.326   5.785   0.735 -0.3069  1.7304 -0.5594
 3817TIP3   OH232941   6.495   0.573   3.722 -0.1925 -0.0043 -0.5226
 3817TIP3    H132942   6.419   0.521   3.746  0.1274 -0.9185 -1.4159
 3817TIP3    H232943   6.558   0.558   3.793  0.1716 -1.4458 -1.1309
 3818TIP3   OH232944   0.252   4.521  15.436  0.7491 -0.4192  0.1189
 3818TIP3    H132945   0.272   4.556  15.349  0.0631 -1.0071 -0.2951
 3818TIP3    H232946   0.300   4.577  15.497  0.1158  0.9035 -0.5444
 3819TIP3   OH232947   6.053   1.959  11.483  0.2609  0.2932 -0.1005
 3819TIP3    H132948   6.024   1.928  11.569  0.2966  2.4913  0.7811
 3819TIP3    H232949   5.977   1.947  11.426 -0.7452  1.3410  0.9478
 3820TIP3   OH232950   0.434   0.692  14.564 -0.4859 -0.4790 -0.2154
 3820TIP3    H132951   0.508   0.678  14.505 -0.9637  0.5525 -1.1086
 3820TIP3    H232952   0.474   0.706  14.650  0.2720 -1.2138 -0.4426
 3821TIP3   OH232953   1.225   1.182   3.584 -0.0292 -0.4474 -0.0323
 3821TIP3    H132954   1.142   1.206   3.541  1.1873  1.4051 -1.5237
 3821TIP3    H232955   1.246   1.095   3.549 -0.4543 -0.1497 -1.0672
 3822TIP3   OH232956   0.477   3.397  15.676 -0.2506 -1.2359 -0.0716
 3822TIP3    H132957   0.471   3.406  15.581  0.0559 -0.8261 -0.0535
 3822TIP3    H232958   0.388   3.415  15.708 -0.4164 -1.6470 -0.2991
 3823TIP3   OH232959   0.449   0.901   5.560 -0.1454  0.1291 -0.3601
 3823TIP3    H132960   0.522   0.876   5.504 -0.5138 -1.1542 -0.3041
 3823TIP3    H232961   0.385   0.940   5.500  0.3005  0.6445 -0.5077
 3824TIP3   OH232962   5.109   5.879  10.754  1.0521  0.6576 -0.3055
 3824TIP3    H132963   5.030   5.930  10.738  1.4684  1.6246  0.5891
 3824TIP3    H232964   5.081   5.788  10.748 -0.0590  0.9845 -0.2772
 3825TIP3   OH232965   4.588   1.656   4.517  0.0381 -0.4556 -0.5712
 3825TIP3    H132966   4.669   1.651   4.568 -0.2093 -2.8154 -0.2865
 3825TIP3    H232967   4.557   1.746   4.529  2.1775  0.2806 -0.0514
 3826TIP3   OH232968   5.484   5.347   5.228  0.5164  0.4499 -0.1121
 3826TIP3    H132969   5.554   5.411   5.225  1.0704  0.0164  2.1233
 3826TIP3    H232970   5.528   5.262   5.221 -0.1158  0.2288 -1.9824
 3827TIP3   OH232971   5.452   0.736   6.175 -0.3096  0.3547  0.4728
 3827TIP3    H132972   5.507   0.720   6.098 -1.4024  4.9888 -1.6776
 3827TIP3    H232973   5.512   0.733   6.249  1.7916  0.2651 -1.1437
 3828TIP3   OH232974   6.524   5.977  14.027  0.0670  0.0708 -0.1654
 3828TIP3    H132975   6.601   6.009  13.981  2.6007 -1.6563  2.5535
 3828TIP3    H232976   6.554   5.962  14.117 -3.1504 -1.7674  0.7612
 3829TIP3   OH232977   5.808   5.506  14.598  0.2598  0.3331  0.0869
 3829TIP3    H132978   5.774   5.524  14.510 -0.3406 -2.1436 -0.2530
 3829TIP3    H232979   5.741   5.453  14.639  1.1653  0.2914  1.5605
 3830TIP3   OH232980   6.687   0.735   0.977  0.0723 -0.1365 -0.4971
 3830TIP3    H132981   6.696   0.815   1.029  0.3855 -0.1864 -0.4736
 3830TIP3    H232982   6.634   0.677   1.031 -0.6527  0.2614 -0.7527
 3831TIP3   OH232983   3.847   5.116  11.236 -0.1065 -0.4946  0.0283
 3831TIP3    H132984   3.916   5.182  11.232 -1.5421  1.0439 -0.4511
 3831TIP3    H232985   3.798   5.127  11.154 -1.3909 -1.0107  0.6869
 3832TIP3   OH232986   1.511   0.939   3.409 -0.4639  0.1069 -0.1830
 3832TIP3    H132987   1.505   0.846   3.391  3.1634 -0.7532  2.0641
 3832TIP3    H232988   1.422   0.965   3.434 -1.4878 -2.7992 -0.4881
 3833TIP3   OH232989   2.008   0.610  14.128  0.3789 -0.0195  0.4103
 3833TIP3    H132990   2.034   0.576  14.213 -0.7017 -2.0997 -0.0346
 3833TIP3    H232991   2.075   0.578  14.068  0.0050 -0.3779  0.1745
 3834TIP3   OH232992   0.842   0.716   4.375  0.0415 -0.2265  0.1941
 3834TIP3    H132993   0.827   0.789   4.435 -0.4728  1.2413 -1.6415
 3834TIP3    H232994   0.755   0.691   4.344  0.4453  1.2379 -2.3842
 3835TIP3   OH232995   4.203   4.093   1.997 -0.6795 -0.0864  0.0247
 3835TIP3    H132996   4.210   3.998   1.987  1.4531  0.0898 -0.7408
 3835TIP3    H232997   4.149   4.121   1.922 -2.8565 -0.8068  1.2452
 3836TIP3   OH232998   1.207   3.615  11.927 -0.1555 -0.3932 -0.2626
 3836TIP3    H132999   1.149   3.690  11.936 -1.2968 -1.4320  1.8231
 3836TIP3    H233000   1.163   3.558  11.864 -0.4909 -0.3784 -0.0425
 3837TIP3   OH233001   5.758   3.841  14.475  0.2235 -0.0682  0.3138
 3837TIP3    H133002   5.824   3.890  14.426 -0.2519  0.9678  0.7006
 3837TIP3    H233003   5.801   3.821  14.559  0.1740  0.2907  0.4253
 3838TIP3   OH233004   0.218   0.040   5.772  0.1221 -0.4398  0.2429
 3838TIP3    H133005   0.202   0.006   5.684 -2.7168  1.6347 -0.1737
 3838TIP3    H233006   0.292   0.099   5.761  0.1534 -0.6264 -0.6458
 3839TIP3   OH233007   3.083   3.526  12.677  0.4964  0.0521  0.1959
 3839TIP3    H133008   3.019   3.571  12.732 -1.4430 -0.6925 -1.3171
 3839TIP3    H233009   3.083   3.575  12.595  0.6667 -0.8894 -0.3861
 3840TIP3   OH233010   5.804   3.670  12.779 -0.4988  0.3873  0.4930
 3840TIP3    H133011   5.892   3.668  12.817 -0.3952 -0.6996  0.2136
 3840TIP3    H233012   5.818   3.666  12.685 -0.8697 -0.8194  0.4799
 3841TIP3   OH233013   4.943   6.091   3.922 -0.2981  0.0155 -0.9625
 3841TIP3    H133014   4.900   6.098   3.838 -0.7489  0.1278 -0.7258
 3841TIP3    H233015   5.034   6.071   3.901 -0.7423 -1.6231 -1.4261
 3842TIP3   OH233016   6.312   0.588  13.347 -0.2947  0.5919  0.1654
 3842TIP3    H133017   6.277   0.614  13.261  0.0024  1.0603  0.1849
 3842TIP3    H233018   6.363   0.509  13.328 -0.0447  0.8199 -0.1309
 3843TIP3   OH233019   4.682   4.310   2.039  0.1419  0.4850 -1.1713
 3843TIP3    H133020   4.763   4.346   2.076 -0.0174 -0.2747 -0.0206
 3843TIP3    H233021   4.614   4.336   2.101 -0.1474 -0.7650 -0.9318
 3844TIP3   OH233022   1.492   3.671  17.081  0.5195  0.6372  0.5176
 3844TIP3    H133023   1.544   3.752  17.076  1.0737  0.2525 -4.3021
 3844TIP3    H233024   1.556   3.601  17.072 -0.3598 -0.0916 -0.2144
 3845TIP3   OH233025   1.689   6.613   4.354  0.0192  0.1736  0.1895
 3845TIP3    H133026   1.746   6.545   4.319  0.3179 -0.8257  2.4403
 3845TIP3    H233027   1.739   6.653   4.425 -0.6524  1.8755 -0.2562
 3846TIP3   OH233028   5.167   1.111   4.682 -0.7300  0.3022  0.4889
 3846TIP3    H133029   5.240   1.054   4.705  1.0553  1.3437 -2.0738
 3846TIP3    H233030   5.176   1.187   4.740  1.3931  1.2092 -0.8972
 3847TIP3   OH233031   3.771   3.031   1.411 -0.2664  0.5458 -0.0059
 3847TIP3    H133032   3.735   2.997   1.493  0.0936  1.3565  0.4991
 3847TIP3    H233033   3.804   2.953   1.366  0.9748  0.2287  1.3464
 3848TIP3   OH233034   3.353   2.753  12.481 -0.3975  0.3312  0.6190
 3848TIP3    H133035   3.286   2.687  12.461  0.0628 -0.1769  0.7370
 3848TIP3    H233036   3.319   2.833  12.442 -0.2363 -0.2957 -0.9028
 3849TIP3   OH233037   3.210   6.198   4.265 -0.4515 -0.0008 -0.6978
 3849TIP3    H133038   3.197   6.199   4.359  0.2451 -2.6933 -0.5089
 3849TIP3    H233039   3.231   6.289   4.243  2.0592  0.2776  2.1723
 3850TIP3   OH233040   6.451   5.539  13.690 -0.0204  0.3047  0.2261
 3850TIP3    H133041   6.496   5.619  13.715  2.3746 -0.8157 -0.1999
 3850TIP3    H233042   6.470   5.527  13.597  1.1340 -1.5703  0.6373
 3851TIP3   OH233043   5.760   3.359   4.631  0.1123  0.2327 -0.0680
 3851TIP3    H133044   5.750   3.336   4.723  1.0980  1.5401  0.3979
 3851TIP3    H233045   5.701   3.299   4.585 -0.3697 -0.4712  1.3949
 3852TIP3   OH233046   3.366   4.364  14.812  0.0727 -0.2585 -0.0287
 3852TIP3    H133047   3.420   4.435  14.776 -0.7100  0.2367 -0.2627
 3852TIP3    H233048   3.294   4.355  14.749  0.6080 -1.8568 -0.4579
 3853TIP3   OH233049   0.279   1.087   5.368 -0.2651 -0.6149  0.2459
 3853TIP3    H133050   0.225   1.008   5.367 -0.8055 -0.2555  0.6535
 3853TIP3    H233051   0.285   1.111   5.461 -0.0841 -0.1900  0.1281
 3854TIP3   OH233052   1.421   4.814  16.894  0.2029 -0.5073  0.0725
 3854TIP3    H133053   1.493   4.814  16.831  0.6493  0.8728  0.5559
 3854TIP3    H233054   1.449   4.874  16.963 -0.2551 -2.0021  1.6371
 3855TIP3   OH233055   0.698   2.148   3.310 -0.1408  0.1935  0.9226
 3855TIP3    H133056   0.633   2.212   3.281  0.0741  0.2660  0.6000
 3855TIP3    H233057   0.657   2.063   3.295 -0.0919  0.2349  0.5640
 3856TIP3   OH233058   6.184   5.860   3.841 -0.2990  0.3982 -0.1975
 3856TIP3    H133059   6.138   5.776   3.844  0.3350  0.0557  0.1628
 3856TIP3    H233060   6.269   5.842   3.882 -0.2954  1.3020  0.2030
 3857TIP3   OH233061   5.770   5.731  12.842  0.0053 -0.1427  0.1811
 3857TIP3    H133062   5.778   5.781  12.761  2.4459  1.3499  1.2162
 3857TIP3    H233063   5.846   5.673  12.842 -1.0281 -1.5503  0.5431
 3858TIP3   OH233064   2.976   4.356  15.810  0.0908  0.1105 -0.2033
 3858TIP3    H133065   2.993   4.387  15.899  0.7414  0.1994 -0.3534
 3858TIP3    H233066   3.038   4.285  15.798  0.1334  0.2256 -0.6541
 3859TIP3   OH233067   0.412   2.242   2.845  0.7508  0.3627 -0.1713
 3859TIP3    H133068   0.410   2.337   2.830  2.6156  0.5468  0.4066
 3859TIP3    H233069   0.504   2.224   2.866  0.4685 -1.6233 -0.5066
 3860TIP3   OH233070   5.299   0.363  15.613  0.8004  0.0288 -0.2635
 3860TIP3    H133071   5.377   0.339  15.562  0.7167 -2.3832  0.6183
 3860TIP3    H233072   5.237   0.395  15.548  0.7083 -2.9159 -1.8144
 3861TIP3   OH233073   5.354   2.702   6.370 -0.3489  0.6341 -0.4136
 3861TIP3    H133074   5.296   2.627   6.383  0.2234  0.2706  0.1084
 3861TIP3    H233075   5.410   2.704   6.448 -0.5293  1.7697 -0.2904
 3862TIP3   OH233076   0.495   5.438   4.094 -0.0131 -0.0517 -0.1847
 3862TIP3    H133077   0.523   5.355   4.133  2.2451  0.5965 -0.3057
 3862TIP3    H233078   0.550   5.504   4.135 -1.0219  1.2760 -0.8832
 3863TIP3   OH233079   1.887   2.066   2.184 -0.3268 -0.6297 -0.4306
 3863TIP3    H133080   1.976   2.093   2.163  0.1775  0.2967  2.4205
 3863TIP3    H233081   1.833   2.103   2.114  1.0796  2.5813  0.0291
 3864TIP3   OH233082   4.952   3.837  13.112  0.0180 -0.9612 -0.5420
 3864TIP3    H133083   5.033   3.875  13.078 -0.3929  1.5552  0.9911
 3864TIP3    H233084   4.947   3.869  13.202 -2.9875 -0.4916 -0.7763
 3865TIP3   OH233085   0.773   6.237  17.137 -0.2194 -0.1344  0.6553
 3865TIP3    H133086   0.814   6.280  17.212  0.5147 -1.0864  0.8102
 3865TIP3    H233087   0.756   6.148  17.166 -1.4413 -0.0670  0.2249
 3866TIP3   OH233088   4.655   6.571   4.111  0.2319 -0.1674 -0.3711
 3866TIP3    H133089   4.688   6.532   4.192  0.5476 -0.5811 -0.6958
 3866TIP3    H233090   4.578   6.622   4.138  0.4203 -0.1898  0.2055
 3867TIP3   OH233091   3.994   1.865   3.090  1.0782 -0.2177 -0.1014
 3867TIP3    H133092   3.925   1.810   3.126  1.5507 -0.5908  0.2425
 3867TIP3    H233093   4.017   1.824   3.007  0.5046  0.2244 -0.4890
 3868TIP3   OH233094   0.006   2.301   1.325  0.0475  0.6898 -0.3825
 3868TIP3    H133095   0.019   2.238   1.396  1.7327 -1.1373 -2.1878
 3868TIP3    H233096  -0.046   2.255   1.260 -0.3856  1.8810 -0.9073
 3869TIP3   OH233097   4.433   5.524   0.125 -0.4378  0.6465 -0.1602
 3869TIP3    H133098   4.476   5.609   0.133 -0.7942  0.7744  0.4583
 3869TIP3    H233099   4.493   5.472   0.071 -0.0220  1.1582 -0.2027
 3870TIP3   OH233100   3.464   4.552  14.188  0.4002  0.2195  0.2068
 3870TIP3    H133101   3.443   4.541  14.280 -1.7262  0.3024 -0.2158
 3870TIP3    H233102   3.424   4.636  14.164 -0.2387 -0.4193 -1.0761
 3871TIP3   OH233103   6.008   0.131  14.474  0.0319  0.1779  0.1610
 3871TIP3    H133104   5.936   0.170  14.523 -1.1085  1.3714 -2.3339
 3871TIP3    H233105   5.973   0.049  14.440  1.1434 -1.1565  2.0399
 3872TIP3   OH233106   4.572   3.845  13.111  0.6871 -0.1492  0.1122
 3872TIP3    H133107   4.480   3.854  13.085  0.5474 -0.2339  0.5736
 3872TIP3    H233108   4.577   3.759  13.151  0.9172 -0.0515  0.2947
 3873TIP3   OH233109   6.564   1.417   3.450 -0.6214  0.2124 -0.2645
 3873TIP3    H133110   6.610   1.404   3.367 -0.6565  0.9816 -0.4167
 3873TIP3    H233111   6.630   1.406   3.518 -0.7560 -1.2178 -0.3447
 3874TIP3   OH233112   5.337   3.681  11.156  0.3444  0.5804  0.0648
 3874TIP3    H133113   5.261   3.675  11.098  0.3973  0.2516  0.0281
 3874TIP3    H233114   5.392   3.749  11.118 -1.5521  3.3859  1.9635
 3875TIP3   OH233115   4.685   6.396  15.288 -0.1524  0.3546 -0.2425
 3875TIP3    H133116   4.744   6.466  15.258  0.4293 -0.6097 -1.3923
 3875TIP3    H233117   4.690   6.401  15.384 -0.2946  2.0213 -0.2892
 3876TIP3   OH233118   1.018   1.873  11.508  0.6490  0.2464  0.2118
 3876TIP3    H133119   0.978   1.830  11.583  1.5069 -1.9236 -0.4906
 3876TIP3    H233120   0.975   1.834  11.432  0.9416  1.2041 -0.4651
 3877TIP3   OH233121   3.942   6.196   0.650 -0.1703 -0.2931 -0.6703
 3877TIP3    H133122   4.006   6.224   0.715 -0.6742  0.1018 -0.3316
 3877TIP3    H233123   3.905   6.278   0.615  0.3320 -0.4880 -1.7019
 3878TIP3   OH233124   5.846   4.153   1.296 -0.7412 -0.1176  0.1608
 3878TIP3    H133125   5.772   4.166   1.355 -1.4182 -1.0702 -0.4490
 3878TIP3    H233126   5.807   4.125   1.213  0.3224 -1.2455  0.0042
 3879TIP3   OH233127   0.295   0.910  11.147 -0.1006  0.1130 -0.2104
 3879TIP3    H133128   0.374   0.859  11.129  0.0016 -1.0354  2.8776
 3879TIP3    H233129   0.243   0.853  11.203 -0.8757  2.6778  1.8306
 3880TIP3   OH233130   3.736   2.947  12.458  0.3194 -0.1488 -0.2592
 3880TIP3    H133131   3.760   3.038  12.442  0.7087 -0.0434  0.8503
 3880TIP3    H233132   3.692   2.948  12.543 -1.3966 -0.7250 -1.0980
 3881TIP3   OH233133   6.345   6.659   1.521 -0.0302 -0.0329  0.4247
 3881TIP3    H133134   6.321   6.575   1.482 -1.7679  1.1479 -1.2776
 3881TIP3    H233135   6.266   6.687   1.566 -0.2317  1.6209 -0.8615
 3882TIP3   OH233136   5.114   5.143  14.885  0.0588  0.3041 -0.1755
 3882TIP3    H133137   5.079   5.228  14.914 -1.9424 -0.7399  0.6556
 3882TIP3    H233138   5.037   5.089  14.872  1.3021 -1.4224 -0.6827
 3883TIP3   OH233139   5.755   6.730  14.331 -0.2675  0.4063 -0.1379
 3883TIP3    H133140   5.805   6.790  14.276 -0.3792  0.0118 -0.6861
 3883TIP3    H233141   5.664   6.749  14.310 -0.3174  0.3776  0.0502
 3884TIP3   OH233142   4.273   2.044  14.663 -0.3149  0.0568 -0.4196
 3884TIP3    H133143   4.243   1.956  14.684 -2.1924  0.3953 -1.4272
 3884TIP3    H233144   4.237   2.099  14.733 -0.2254  0.1953 -0.4820
 3885TIP3   OH233145   3.001   4.583  10.481 -0.3119 -0.1738  0.2171
 3885TIP3    H133146   3.090   4.549  10.486 -0.3710 -0.1745  2.1309
 3885TIP3    H233147   3.000   4.655  10.544 -1.4459  0.3858 -0.4054
 3886TIP3   OH233148   4.985   2.037  12.102  0.4411  0.1210  0.3220
 3886TIP3    H133149   5.047   2.077  12.041  1.5564 -2.1056 -0.0997
 3886TIP3    H233150   4.900   2.074  12.077  1.3056  1.6294 -0.4822
 3887TIP3   OH233151   3.850   5.696   2.927  0.3506  0.6279 -0.3437
 3887TIP3    H133152   3.827   5.663   2.840 -0.7892  1.8543 -0.5468
 3887TIP3    H233153   3.818   5.786   2.928 -0.8084  0.2757  1.7659
 3888TIP3   OH233154   5.270   1.622   6.737  0.0170  0.7837  0.0190
 3888TIP3    H133155   5.236   1.671   6.812 -0.5774 -0.6481  0.7229
 3888TIP3    H233156   5.298   1.689   6.675 -3.3868  2.0984 -0.3009
 3889TIP3   OH233157   3.837   1.104  14.684  0.0186  0.1266  0.2379
 3889TIP3    H133158   3.915   1.085  14.736 -0.2281  1.6849  1.2472
 3889TIP3    H233159   3.791   1.172  14.734  0.3240  2.5493 -2.4939
 3890TIP3   OH233160   4.336   4.401   6.011 -0.1330 -0.0929 -0.2452
 3890TIP3    H133161   4.283   4.380   6.088  0.4445 -0.9632 -0.0731
 3890TIP3    H233162   4.355   4.495   6.020  0.4885 -0.3267  1.0232
 3891TIP3   OH233163   3.181   1.800  12.619  0.0400 -0.0179 -0.5772
 3891TIP3    H133164   3.232   1.725  12.590  0.8864 -0.5007  1.9152
 3891TIP3    H233165   3.172   1.788  12.714 -1.6283  1.9387 -0.4099
 3892TIP3   OH233166   1.662   0.526  15.980 -0.6026  0.5513  0.3436
 3892TIP3    H133167   1.589   0.582  15.952 -0.6473  0.6805  0.7084
 3892TIP3    H233168   1.681   0.554  16.069 -1.0287 -0.4270  0.7600
 3893TIP3   OH233169   6.648   1.778   1.031 -0.1260  0.0581  0.0447
 3893TIP3    H133170   6.677   1.865   1.002 -1.9156  1.1948  1.3776
 3893TIP3    H233171   6.597   1.744   0.957 -1.4959  1.2789  0.3714
 3894TIP3   OH233172   6.150   6.562  16.681 -0.0628 -0.6418  0.3468
 3894TIP3    H133173   6.105   6.603  16.607 -1.8666  1.0935  2.2630
 3894TIP3    H233174   6.116   6.473  16.685 -0.5808 -0.4840 -0.4226
 3895TIP3   OH233175   2.583   0.139   1.274 -0.4401  0.0665 -0.3496
 3895TIP3    H133176   2.508   0.105   1.323 -0.4440 -1.1939 -1.1649
 3895TIP3    H233177   2.556   0.225   1.243 -1.9467 -0.7497 -1.4344
 3896TIP3   OH233178   6.149   5.663  14.913 -0.6311  0.5766 -0.2523
 3896TIP3    H133179   6.090   5.591  14.893 -0.5417  0.7567 -1.2007
 3896TIP3    H233180   6.207   5.670  14.837  0.3049  0.7195  0.4508
 3897TIP3   OH233181   1.947   3.612  15.466 -0.2547  0.5981  0.0233
 3897TIP3    H133182   2.011   3.617  15.536  0.4323 -1.0470 -0.4349
 3897TIP3    H233183   1.987   3.657  15.392 -0.0056  0.3830  0.0252
 3898TIP3   OH233184   5.253   1.290  12.545  0.1088  0.1701  0.2487
 3898TIP3    H133185   5.182   1.310  12.484  1.8748  1.4724 -1.5037
 3898TIP3    H233186   5.321   1.248  12.491  0.4470 -1.7171  2.0099
 3899TIP3   OH233187   0.573   4.465   4.062 -0.3833 -0.3583  0.5968
 3899TIP3    H133188   0.644   4.492   4.004 -0.0486 -0.2390  1.0630
 3899TIP3    H233189   0.582   4.522   4.139 -1.9325  0.7719  0.0011
 3900TIP3   OH233190   4.248   6.358   6.049  0.2667 -0.4593 -0.0615
 3900TIP3    H133191   4.262   6.311   6.131  1.7942 -1.2977 -0.7573
 3900TIP3    H233192   4.224   6.289   5.987  0.0133  0.0442 -0.5311
 3901TIP3   OH233193   1.053   0.689   4.217 -0.3004 -0.5328  0.1471
 3901TIP3    H133194   1.061   0.595   4.201  0.7523 -0.6303  1.1479
 3901TIP3    H233195   0.982   0.697   4.280 -0.2323 -0.6799  0.2431
 3902TIP3   OH233196   6.558   1.085  11.775 -0.5424  0.3983 -0.2113
 3902TIP3    H133197   6.483   1.068  11.832 -0.1687 -1.4742 -0.2195
 3902TIP3    H233198   6.634   1.076  11.832  0.0540 -4.4072 -1.3182
 3903TIP3   OH233199   6.492   2.362   2.912 -0.2883  0.3309  0.0189
 3903TIP3    H133200   6.559   2.348   2.979  1.0974 -1.2518 -1.5995
 3903TIP3    H233201   6.516   2.444   2.870  0.4315 -0.0298 -0.2879
 3904TIP3   OH233202   2.520   2.603   3.647  0.6018 -0.7295  0.5498
 3904TIP3    H133203   2.594   2.602   3.585  0.4612  2.4556  0.1318
 3904TIP3    H233204   2.562   2.598   3.733  1.3927  0.8822  0.3136
 3905TIP3   OH233205   2.824   3.683   5.374 -0.1039 -0.0795  0.0935
 3905TIP3    H133206   2.905   3.734   5.383 -0.2543  0.4232 -1.2394
 3905TIP3    H233207   2.830   3.643   5.288 -0.9383 -0.6458  0.2871
 3906TIP3   OH233208   3.887   2.882   2.045 -0.4448  0.0774 -0.3505
 3906TIP3    H133209   3.812   2.924   2.086  0.1875  0.5933  0.3006
 3906TIP3    H233210   3.880   2.906   1.952 -0.5369  0.9634 -0.1222
 3907TIP3   OH233211   1.838   2.302  11.799 -0.5890  0.2849 -0.2019
 3907TIP3    H133212   1.843   2.304  11.895  1.6092 -1.1228 -0.1936
 3907TIP3    H233213   1.824   2.393  11.773  1.4874  1.1612  1.4240
 3908TIP3   OH233214   6.099   1.078   1.606 -0.6181 -0.1423  0.0805
 3908TIP3    H133215   6.038   1.133   1.656  0.1112  2.1000 -1.3497
 3908TIP3    H233216   6.167   1.138   1.577 -0.7345 -1.4065 -3.1662
 3909TIP3   OH233217   2.351   0.703  14.179 -0.5546  0.0410  0.4261
 3909TIP3    H133218   2.348   0.686  14.274 -0.4556  0.4137  0.4970
 3909TIP3    H233219   2.316   0.791  14.170 -0.2155  0.1470  0.1502
 3910TIP3   OH233220   5.981   3.215  14.479  0.5237  0.0445 -0.0146
 3910TIP3    H133221   6.049   3.148  14.471  2.4082  1.7971  0.4838
 3910TIP3    H233222   5.921   3.180  14.545  1.3557 -1.2301  0.0993
 3911TIP3   OH233223   2.538   6.141  12.524  0.0012  0.1729 -0.3386
 3911TIP3    H133224   2.491   6.224  12.519  1.1833  0.9683  0.8689
 3911TIP3    H233225   2.629   6.166  12.541 -0.0194 -1.3514  2.6719
 3912TIP3   OH233226   2.597   2.400  13.563 -0.0676 -0.2979 -0.1312
 3912TIP3    H133227   2.667   2.339  13.585 -0.4136 -0.5643  0.2537
 3912TIP3    H233228   2.639   2.466  13.508  2.0012  2.7854  4.4609
 3913TIP3   OH233229   4.434   3.189  14.618 -0.1556  0.3251 -0.3741
 3913TIP3    H133230   4.412   3.282  14.623  1.7238  0.7776  0.5023
 3913TIP3    H233231   4.451   3.172  14.526  1.3054  1.3408 -0.3132
 3914TIP3   OH233232   2.052   0.448  12.553 -0.1790  0.3634 -0.1275
 3914TIP3    H133233   1.958   0.465  12.543 -0.2390  0.1665  0.0959
 3914TIP3    H233234   2.064   0.433  12.647 -0.0236 -0.2095 -0.2353
 3915TIP3   OH233235   2.060   3.624   4.726 -0.3892 -0.5864 -0.6610
 3915TIP3    H133236   2.022   3.671   4.652 -0.7232 -2.1584 -1.5384
 3915TIP3    H233237   2.147   3.598   4.696  0.3996  0.7109  0.3717
 3916TIP3   OH233238   6.425   5.155   0.544 -0.6726  0.1495  0.0952
 3916TIP3    H133239   6.498   5.203   0.584  0.6364 -0.2457 -1.6990
 3916TIP3    H233240   6.356   5.157   0.610 -0.9968  5.0467 -0.0382
 3917TIP3   OH233241   5.304   5.241  12.174 -0.2249  0.1380 -0.1625
 3917TIP3    H133242   5.338   5.197  12.096 -2.6288  2.9209 -3.0937
 3917TIP3    H233243   5.358   5.319  12.184 -0.5817  0.3342  0.3063
 3918TIP3   OH233244   5.329   3.396  15.397 -0.0826 -0.1364  0.0466
 3918TIP3    H133245   5.360   3.388  15.487 -0.4484 -0.3353  0.1586
 3918TIP3    H233246   5.242   3.437  15.405  0.1202  0.3611 -0.2558
 3919TIP3   OH233247   5.470   0.801   4.983 -0.5366  0.2599 -0.0319
 3919TIP3    H133248   5.417   0.880   4.981 -0.6193  0.1940 -0.7072
 3919TIP3    H233249   5.526   0.811   5.059  1.5990  2.3813 -1.7271
 3920TIP3   OH233250   5.214   2.486   6.421 -0.6068  0.4585  0.5055
 3920TIP3    H133251   5.262   2.471   6.502  1.1181  2.4772 -0.0672
 3920TIP3    H233252   5.122   2.486   6.447 -0.1987 -0.6418  2.1239
 3921TIP3   OH233253   4.154   4.904  15.615 -0.2440 -0.0293  0.2807
 3921TIP3    H133254   4.089   4.967  15.646 -1.7069 -1.5222  0.3676
 3921TIP3    H233255   4.205   4.952  15.549 -2.0609  0.9181 -0.4987
 3922TIP3   OH233256   2.900   2.653   5.912  0.0833  0.0800  0.1922
 3922TIP3    H133257   2.971   2.693   5.860 -0.7744 -0.3257 -1.3689
 3922TIP3    H233258   2.917   2.559   5.905 -0.7317 -0.0315 -0.4165
 3923TIP3   OH233259   4.520   4.109  13.469 -0.0461  0.3444 -0.0370
 3923TIP3    H133260   4.569   4.094  13.388 -1.2434 -1.1849 -0.5371
 3923TIP3    H233261   4.441   4.055  13.459 -0.1617  0.0196  2.1973
 3924TIP3   OH233262   4.934   5.637   2.360  0.0056 -0.3030  0.1835
 3924TIP3    H133263   4.977   5.723   2.353 -2.0944  0.8132  0.3097
 3924TIP3    H233264   4.927   5.606   2.270  1.1420 -0.5697  0.1680
 3925TIP3   OH233265   2.863   0.810   6.135 -0.2320  0.0139  0.3444
 3925TIP3    H133266   2.890   0.776   6.220 -0.0368 -0.9969 -0.1012
 3925TIP3    H233267   2.937   0.864   6.106 -0.4604  0.6870  0.9703
 3926TIP3   OH233268   2.643   3.089   2.231 -0.8315 -0.5811  0.6771
 3926TIP3    H133269   2.647   3.090   2.135  1.7569  0.7945  0.7032
 3926TIP3    H233270   2.682   3.004   2.255 -0.4636 -0.4643  0.5055
 3927TIP3   OH233271   5.099   0.865  14.461  0.5269 -0.3019  0.4002
 3927TIP3    H133272   5.115   0.911  14.544  1.4407  0.3008 -0.0825
 3927TIP3    H233273   5.122   0.930  14.394  1.4134 -1.3128 -0.3048
 3928TIP3   OH233274   5.013   0.984  11.746  0.1766  0.1787 -0.3787
 3928TIP3    H133275   5.034   1.069  11.707  3.1327  0.2220  1.0159
 3928TIP3    H233276   5.077   0.924  11.707  0.8272 -0.5050  1.6367
 3929TIP3   OH233277   6.108   4.301   2.669  0.1543  0.0569  0.2856
 3929TIP3    H133278   6.061   4.243   2.729 -1.0006 -0.2756 -0.8983
 3929TIP3    H233279   6.054   4.380   2.664  0.8556  0.5635  0.5961
 3930TIP3   OH233280   2.449   1.695  11.793 -1.0977 -0.1580  0.0209
 3930TIP3    H133281   2.504   1.618  11.777 -1.2397 -0.0917 -0.8482
 3930TIP3    H233282   2.510   1.769  11.793 -0.6526 -0.4116  2.9015
 3931TIP3   OH233283   3.119   1.233  16.733 -0.2996  0.7917  0.1970
 3931TIP3    H133284   3.182   1.204  16.667  1.4344  1.0494  1.6463
 3931TIP3    H233285   3.157   1.204  16.817 -2.3538  0.5826  1.1008
 3932TIP3   OH233286   0.836   6.285   2.294 -0.1628 -0.0042 -0.3396
 3932TIP3    H133287   0.826   6.276   2.199  0.7252 -0.7422 -0.3866
 3932TIP3    H233288   0.928   6.261   2.310 -0.2769  0.2099  0.6905
 3933TIP3   OH233289   1.399   6.216  12.849 -0.8588 -0.2891 -0.1138
 3933TIP3    H133290   1.379   6.306  12.875  0.1179 -0.1364  0.1240
 3933TIP3    H233291   1.318   6.167  12.867 -1.5993  0.6436 -0.7927
 3934TIP3   OH233292   1.127   2.253  15.744 -0.4841  0.0531 -0.0909
 3934TIP3    H133293   1.044   2.267  15.789 -0.2416 -0.1904  0.4304
 3934TIP3    H233294   1.107   2.187  15.677 -0.3681 -1.1893  1.0530
 3935TIP3   OH233295   2.313   4.555  15.800 -0.0973 -0.1908  0.4438
 3935TIP3    H133296   2.326   4.461  15.812  0.4164 -0.1283  0.3638
 3935TIP3    H233297   2.217   4.565  15.797 -0.1478 -0.7710 -0.0634
 3936TIP3   OH233298   5.225   1.605  17.323  0.3870  0.3474  0.1977
 3936TIP3    H133299   5.153   1.581  17.265  0.3453 -0.3255  0.5208
 3936TIP3    H233300   5.253   1.522  17.363  1.6579  0.5176 -0.2846
 3937TIP3   OH233301   1.671   4.576  12.159  0.5367  0.0895  0.3727
 3937TIP3    H133302   1.647   4.485  12.147  0.3581  0.1496  0.2751
 3937TIP3    H233303   1.630   4.622  12.086 -1.5966  0.6390  1.8248
 3938TIP3   OH233304   6.355   2.460   2.602 -0.3980  0.4998  0.0005
 3938TIP3    H133305   6.444   2.472   2.634  0.2767 -1.0419 -1.1787
 3938TIP3    H233306   6.363   2.465   2.507 -1.4758 -0.2542 -0.1425
 3939TIP3   OH233307   1.786   0.788   0.490  0.7518  0.5169 -0.9595
 3939TIP3    H133308   1.853   0.852   0.469  0.9049  0.7065  0.0847
 3939TIP3    H233309   1.757   0.810   0.578 -0.4869  0.2631 -1.2806
 3940TIP3   OH233310   4.793   1.841  13.550 -0.0804  0.6082  0.4304
 3940TIP3    H133311   4.816   1.791  13.472 -0.1760  1.5402 -0.2138
 3940TIP3    H233312   4.700   1.822  13.564  0.1614 -0.2914  0.8831
 3941TIP3   OH233313   0.488   6.542  10.646 -0.2663 -0.2889  0.4047
 3941TIP3    H133314   0.561   6.592  10.683 -0.5468 -0.2702  0.9501
 3941TIP3    H233315   0.522   6.454  10.635  0.0774 -0.0991 -0.0835
 3942TIP3   OH233316   0.781   1.034  12.279  0.1671 -0.1495 -0.0804
 3942TIP3    H133317   0.826   1.115  12.302  0.6370 -0.8344  1.6411
 3942TIP3    H233318   0.802   0.974  12.351 -0.4035 -1.7077 -1.1409
 3943TIP3   OH233319   3.012   6.181   4.815 -0.1831  0.1527 -0.3123
 3943TIP3    H133320   2.928   6.163   4.772  0.3762 -0.0279 -1.3662
 3943TIP3    H233321   3.015   6.276   4.823  1.1279  0.5669 -3.8101
 3944TIP3   OH233322   4.873   0.313   0.660  0.0213  0.1295  0.1914
 3944TIP3    H133323   4.880   0.392   0.714  0.4509 -0.9146  1.7285
 3944TIP3    H233324   4.960   0.304   0.621 -0.4191  1.1356 -1.0965
 3945TIP3   OH233325   1.655   1.691  16.080 -0.2291 -0.5357 -0.4862
 3945TIP3    H133326   1.719   1.751  16.117 -0.8666 -0.1340  0.0022
 3945TIP3    H233327   1.594   1.674  16.152  0.2080 -2.1701 -0.4651
 3946TIP3   OH233328   3.096   2.238   6.231  0.1589  0.5349  0.0712
 3946TIP3    H133329   3.164   2.228   6.164 -0.7517  0.0473 -0.7958
 3946TIP3    H233330   3.014   2.244   6.182 -0.6123 -0.6069  1.1510
 3947TIP3   OH233331   3.217   5.634   0.093  0.6437  0.0669 -0.0547
 3947TIP3    H133332   3.259   5.712   0.131 -1.0646  0.8655  0.2791
 3947TIP3    H233333   3.262   5.621   0.010  0.5081  1.8368 -0.4421
 3948TIP3   OH233334   0.762   6.627  15.394 -0.1627 -0.3056  0.2341
 3948TIP3    H133335   0.818   6.602  15.320 -0.4080  0.2044 -0.1251
 3948TIP3    H233336   0.700   6.554  15.402 -0.1187 -0.3766 -0.0484
 3949TIP3   OH233337   0.429   1.358   2.477  0.4619  0.4595  0.3330
 3949TIP3    H133338   0.335   1.344   2.477  0.4315  0.6363 -0.4283
 3949TIP3    H233339   0.458   1.325   2.562 -0.2459  0.1531  0.4614
 3950TIP3   OH233340   1.408   1.315   5.033 -0.3363 -0.0025 -0.1534
 3950TIP3    H133341   1.462   1.319   4.954  0.2326  0.5154  0.2565
 3950TIP3    H233342   1.444   1.243   5.083 -0.8305 -0.4654 -0.4574
 3951TIP3   OH233343   1.874   4.881  13.379  0.5606 -0.7327  0.4897
 3951TIP3    H133344   1.838   4.863  13.292  3.2454 -0.3403 -0.7967
 3951TIP3    H233345   1.930   4.806  13.398  1.5335  0.1038  0.9841
 3952TIP3   OH233346   0.784   0.291   1.120  0.2882  0.2929 -0.2973
 3952TIP3    H133347   0.716   0.358   1.122  1.0438  1.0827 -0.5347
 3952TIP3    H233348   0.738   0.211   1.096 -0.7207  0.6040  0.4977
 3953TIP3   OH233349   5.372   4.289   3.752  0.8986  0.5023  0.3748
 3953TIP3    H133350   5.297   4.244   3.715  1.9894  0.8755 -2.5749
 3953TIP3    H233351   5.429   4.219   3.783  0.9884 -0.0175 -0.8990
 3954TIP3   OH233352   6.634   4.177   2.037 -0.0828  0.3364  0.7234
 3954TIP3    H133353   6.577   4.166   1.961  1.1859  0.2044 -0.2424
 3954TIP3    H233354   6.655   4.088   2.064 -1.1138  0.3775  1.6968
 3955TIP3   OH233355   0.560   4.581  13.668  0.4520 -0.0013 -0.3230
 3955TIP3    H133356   0.642   4.624  13.642  0.4321  0.7266  0.7519
 3955TIP3    H233357   0.556   4.502  13.614  1.6320  0.1871 -0.7170
 3956TIP3   OH233358   2.782   0.123   2.039  0.3084 -0.3076 -0.5956
 3956TIP3    H133359   2.709   0.078   1.996  0.1860 -3.5201  2.5342
 3956TIP3    H233360   2.741   0.180   2.104  0.5775 -0.3015 -0.4278
 3957TIP3   OH233361   2.544   5.996   0.284  0.1715 -0.2576  0.0722
 3957TIP3    H133362   2.457   5.975   0.319 -0.2857  0.6116 -0.4978
 3957TIP3    H233363   2.544   6.092   0.275  0.4697 -0.3931 -1.7430
 3958TIP3   OH233364   2.356   5.161  12.875 -0.1940 -0.0666  0.1685
 3958TIP3    H133365   2.341   5.108  12.797 -1.1667  2.2158 -1.3087
 3958TIP3    H233366   2.423   5.113  12.924 -3.2601 -4.3395  0.7246
 3959TIP3   OH233367   0.365   5.713  15.240 -1.0514 -0.1084  0.4470
 3959TIP3    H133368   0.302   5.644  15.261 -1.1027  0.0054  0.6617
 3959TIP3    H233369   0.450   5.678  15.269 -0.6072 -1.2851 -1.9633
 3960TIP3   OH233370   2.738   4.721  16.940  0.0712 -0.3570  0.2088
 3960TIP3    H133371   2.762   4.805  16.900 -0.9183 -0.2451 -0.1930
 3960TIP3    H233372   2.821   4.678  16.958  0.5770 -0.5460 -2.2625
 3961TIP3   OH233373   5.416   2.649   1.880 -0.1556  0.2721  0.0823
 3961TIP3    H133374   5.347   2.620   1.940 -1.3425 -0.4651 -1.5767
 3961TIP3    H233375   5.370   2.687   1.806  1.2910  1.6502 -0.1793
 3962TIP3   OH233376   3.435   2.673  13.328 -0.0145 -0.3413  0.0537
 3962TIP3    H133377   3.467   2.616  13.258  0.4091  1.8752 -1.7003
 3962TIP3    H233378   3.340   2.670  13.320  0.0441  0.3906 -1.0874
 3963TIP3   OH233379   4.251   3.245  11.551  0.6069  0.3953  0.1397
 3963TIP3    H133380   4.346   3.239  11.544  0.4979 -0.5490 -0.6723
 3963TIP3    H233381   4.221   3.155  11.553 -0.2845  0.6832  0.2839
 3964TIP3   OH233382   5.924   6.467   2.116 -0.8005  0.8236  0.1925
 3964TIP3    H133383   5.987   6.402   2.146 -0.5725  0.1677 -1.5783
 3964TIP3    H233384   5.961   6.500   2.034 -2.2483  1.1760 -0.3454
 3965TIP3   OH233385   1.254   5.483  11.521  0.3652  0.3226  0.2439
 3965TIP3    H133386   1.161   5.491  11.501  0.5215  1.2562 -0.1261
 3965TIP3    H233387   1.267   5.390  11.539 -0.3250 -0.0804 -1.2578
 3966TIP3   OH233388   6.030   0.583   3.965 -0.4610  0.4200  0.4294
 3966TIP3    H133389   5.986   0.517   4.018  0.7346 -0.5305  0.2980
 3966TIP3    H233390   6.116   0.545   3.947 -1.1754  0.1361 -3.1358
 3967TIP3   OH233391   0.758   6.090   6.725  0.6952 -0.2483 -0.0559
 3967TIP3    H133392   0.682   6.032   6.737  2.3603 -2.2801  1.4086
 3967TIP3    H233393   0.781   6.081   6.633  1.1413 -2.3039  0.2088
 3968TIP3   OH233394   3.814   3.255  14.760  0.0329 -0.2587 -0.1230
 3968TIP3    H133395   3.735   3.293  14.722  0.0305 -0.7243 -0.6024
 3968TIP3    H233396   3.835   3.182  14.702  1.5544  0.6505 -0.7850
 3969TIP3   OH233397   2.060   4.578  12.996  0.0534 -0.0462 -0.0266
 3969TIP3    H133398   2.123   4.643  12.964  1.9128 -1.1512  1.1994
 3969TIP3    H233399   2.003   4.627  13.055 -0.0642  0.9113 -0.9023
 3970TIP3   OH233400   5.180   4.530  13.676 -0.2168 -0.4044 -0.0846
 3970TIP3    H133401   5.148   4.619  13.690 -1.8075 -0.9514 -0.0062
 3970TIP3    H233402   5.184   4.520  13.581 -1.7622 -0.7873 -0.1414
 3971TIP3   OH233403   5.199   3.391   5.592  1.0379  0.1257  0.7288
 3971TIP3    H133404   5.274   3.450   5.584  1.0802  0.0819  0.8083
 3971TIP3    H233405   5.174   3.372   5.501  0.8131  0.5321  0.7014
 3972TIP3   OH233406   1.126   2.056  12.762 -0.1846 -0.1845  0.5539
 3972TIP3    H133407   1.074   1.979  12.784 -0.4914 -0.7986 -1.9228
 3972TIP3    H233408   1.216   2.024  12.757 -0.2810 -0.3607 -0.2348
 3973TIP3   OH233409   2.870   3.258   2.123 -0.1598 -0.1496 -0.0492
 3973TIP3    H133410   2.842   3.244   2.214 -1.9334 -1.4186 -0.7253
 3973TIP3    H233411   2.950   3.207   2.115 -0.8450 -1.3591  0.4168
 3974TIP3   OH233412   0.790   2.730  12.521 -0.5005 -0.8917 -0.1546
 3974TIP3    H133413   0.807   2.823  12.533  0.3431 -1.1108  0.4273
 3974TIP3    H233414   0.695   2.721  12.532 -0.8103  0.1163 -1.8020
 3975TIP3   OH233415   3.213   5.297   5.808  0.3165 -0.4282 -0.4655
 3975TIP3    H133416   3.223   5.391   5.828 -0.0812 -0.4098 -0.3486
 3975TIP3    H233417   3.125   5.290   5.772 -0.5856 -1.1245  1.7353
 3976TIP3   OH233418   4.673   1.919   2.650  0.0213  0.0863  0.3102
 3976TIP3    H133419   4.586   1.891   2.677  0.6139 -0.7596  1.4339
 3976TIP3    H233420   4.691   1.997   2.703 -0.6637  1.2566 -1.0907
 3977TIP3   OH233421   5.002   6.753  13.864  0.2818  0.0746 -0.1822
 3977TIP3    H133422   5.001   6.722  13.773  1.4026 -0.8653  0.1140
 3977TIP3    H233423   4.955   6.685  13.913 -1.9845  1.4459 -0.2674
 3978TIP3   OH233424   5.079   5.854  15.220  0.4247 -0.1975  0.0856
 3978TIP3    H133425   5.173   5.837  15.219  0.4487 -0.0492 -0.2410
 3978TIP3    H233426   5.062   5.902  15.139  0.1329  0.1172  0.3281
 3979TIP3   OH233427   4.010   1.620   1.749 -0.4600 -0.2192 -0.0568
 3979TIP3    H133428   4.020   1.632   1.843 -0.5586 -0.5909  0.0058
 3979TIP3    H233429   4.094   1.647   1.712 -0.7055  0.7046  0.0578
 3980TIP3   OH233430   5.771   2.316   5.114 -0.2431  0.6153  0.0424
 3980TIP3    H133431   5.856   2.323   5.157 -0.1826  0.7912 -0.1054
 3980TIP3    H233432   5.728   2.400   5.131 -0.7863  0.1725  0.9494
 3981TIP3   OH233433   5.429   6.665  11.250 -0.3201  0.4180 -0.0845
 3981TIP3    H133434   5.387   6.588  11.289  0.2910 -0.5126 -1.1882
 3981TIP3    H233435   5.435   6.728  11.322 -1.9348 -0.0887  0.5478
 3982TIP3   OH233436   1.436   2.806   4.966 -0.0545  0.1149 -0.0553
 3982TIP3    H133437   1.363   2.759   4.924 -0.2441  0.6695 -0.3600
 3982TIP3    H233438   1.502   2.739   4.981 -0.0426 -0.1382 -1.1136
 3983TIP3   OH233439   2.652   1.063   5.179 -0.1882 -0.2345  0.1590
 3983TIP3    H133440   2.615   1.039   5.094 -2.8362 -1.7658  1.6031
 3983TIP3    H233441   2.708   0.988   5.202 -3.1881 -2.1705  1.7153
 3984TIP3   OH233442   3.395   2.794   5.394  0.7267 -0.0783  0.4075
 3984TIP3    H133443   3.489   2.775   5.403  0.5523 -0.9574  0.4602
 3984TIP3    H233444   3.353   2.709   5.402  0.0141  0.1143 -1.0412
 3985TIP3   OH233445   2.520   0.321   1.832 -0.0456 -0.1336  0.3433
 3985TIP3    H133446   2.452   0.273   1.784  0.5975  0.7689 -1.5820
 3985TIP3    H233447   2.602   0.285   1.798  0.4602 -0.4902  1.8914
 3986TIP3   OH233448   0.450   0.743  12.024 -0.2528 -0.5488 -0.1120
 3986TIP3    H133449   0.501   0.814  12.063 -0.6531 -1.4174  2.1268
 3986TIP3    H233450   0.359   0.764  12.045 -0.4418 -1.3112 -0.1508
 3987TIP3   OH233451   6.083   2.504  15.129  0.0171  0.6258 -0.4249
 3987TIP3    H133452   6.016   2.565  15.098 -0.8184 -0.7317 -1.4154
 3987TIP3    H233453   6.035   2.422  15.144  0.5250  0.8349  3.5622
 3988TIP3   OH233454   3.816   2.524  15.747 -0.3218  0.5062  0.1146
 3988TIP3    H133455   3.881   2.478  15.800  0.6097  0.8007 -0.7529
 3988TIP3    H233456   3.769   2.454  15.702 -1.3754  0.2233  1.5543
 3989TIP3   OH233457   3.114   0.806  12.627  0.1111 -0.9078  0.0540
 3989TIP3    H133458   3.044   0.771  12.573 -1.8654 -1.5590  2.8357
 3989TIP3    H233459   3.177   0.735  12.636 -0.0890 -1.1505 -0.4721
 3990TIP3   OH233460   4.483   1.898  13.435  0.0522 -0.3999 -0.6339
 3990TIP3    H133461   4.497   1.805  13.415  0.0818 -0.3790 -0.7114
 3990TIP3    H233462   4.394   1.902  13.470  0.4768 -0.6446  0.5359
 3991TIP3   OH233463   1.084   4.469  16.258 -0.2386  0.1660 -0.4098
 3991TIP3    H133464   1.130   4.466  16.341  4.3973  1.6552 -2.5875
 3991TIP3    H233465   1.049   4.381  16.246  0.9395 -0.7154  2.0343
 3992TIP3   OH233466   2.656   3.245  11.421  0.0285  0.4825  0.2876
 3992TIP3    H133467   2.711   3.313  11.460  0.0018  0.6895 -0.0334
 3992TIP3    H233468   2.580   3.238  11.479 -0.2806  1.1811 -0.0301
 3993TIP3   OH233469   5.477   4.222  16.323  0.2593 -0.3201  0.1698
 3993TIP3    H133470   5.540   4.182  16.383 -0.2016  0.3712  1.1431
 3993TIP3    H233471   5.527   4.238  16.243  0.7864 -1.6092  0.2148
 3994TIP3   OH233472   1.310   3.068   5.688 -0.2380  0.0477  0.2660
 3994TIP3    H133473   1.218   3.089   5.701 -0.8127 -2.2091  0.2621
 3994TIP3    H233474   1.316   3.040   5.597  1.1652  3.1969 -0.7572
 3995TIP3   OH233475   4.929   6.694  12.022 -0.7393  0.0426 -0.5980
 3995TIP3    H133476   4.899   6.782  12.001 -1.2255  0.4668  1.6038
 3995TIP3    H233477   5.023   6.704  12.040 -0.9210  0.2622  0.2781
 3996TIP3   OH233478   0.499   6.473  15.996  0.3472 -0.0586  0.0038
 3996TIP3    H133479   0.431   6.423  15.951  0.0791 -0.3446  0.7026
 3996TIP3    H233480   0.565   6.408  16.020  0.0693 -0.0650  0.7848
 3997TIP3   OH233481   1.390   3.822  14.995  0.0499  0.2791 -0.2257
 3997TIP3    H133482   1.341   3.772  15.061 -0.6623 -0.7386 -1.4637
 3997TIP3    H233483   1.480   3.790  15.003  0.2895  1.2286  1.2042
 3998TIP3   OH233484   2.401   0.134   6.395 -0.1885 -0.1837  0.3563
 3998TIP3    H133485   2.357   0.195   6.337  1.0461  0.8287  0.4341
 3998TIP3    H233486   2.332   0.076   6.428 -1.3752  1.1351  0.2365
 3999TIP3   OH233487   0.401   2.971  11.287  0.1086 -0.5705  0.2359
 3999TIP3    H133488   0.475   2.915  11.309 -0.0390 -0.8239  0.1039
 3999TIP3    H233489   0.399   2.971  11.191  0.4609  0.1367  0.2247
 4000TIP3   OH233490   3.452   5.288  13.063 -0.3260 -0.1669  0.0442
 4000TIP3    H133491   3.401   5.358  13.021 -0.0232 -0.6176 -1.1232
 4000TIP3    H233492   3.466   5.318  13.153 -2.2130  0.2044  0.2537
 4001TIP3   OH233493   4.986   1.960  11.415 -0.5305  0.4464 -0.8160
 4001TIP3    H133494   5.062   1.904  11.426 -0.8802  0.4180  2.3663
 4001TIP3    H233495   4.936   1.949  11.497 -2.5516  2.5025 -1.6731
 4002TIP3   OH233496   3.698   2.133  15.810 -0.1400  0.3249  0.6543
 4002TIP3    H133497   3.780   2.086  15.818 -0.0614 -0.5713 -3.4529
 4002TIP3    H233498   3.639   2.088  15.871  1.2807 -1.8661  0.5361
 4003TIP3   OH233499   1.238   3.506  12.180 -0.2198  0.2529 -0.2128
 4003TIP3    H133500   1.237   3.585  12.234  6.2137  0.9933 -0.4500
 4003TIP3    H233501   1.233   3.538  12.090  1.0967  0.3337 -0.2723
 4004TIP3   OH233502   6.616   0.861  13.463  0.1561  0.4786 -0.1965
 4004TIP3    H133503   6.689   0.801  13.475  1.8824  2.5939  0.4455
 4004TIP3    H233504   6.551   0.832  13.528  1.7873  0.5313  1.5526
 4005TIP3   OH233505   4.657   4.305  16.821  0.6648  0.6527 -0.4588
 4005TIP3    H133506   4.688   4.382  16.773  0.6825  0.8508 -0.1325
 4005TIP3    H233507   4.649   4.335  16.912  2.5144 -0.2298  0.0392
 4006TIP3   OH233508   1.379   4.089  14.138  0.7127 -0.2749  0.0662
 4006TIP3    H133509   1.351   4.029  14.207 -2.8445  0.2486 -0.7590
 4006TIP3    H233510   1.422   4.161  14.184  0.1745 -0.8677  1.5445
 4007TIP3   OH233511   1.876   6.714   5.672  0.4215 -0.1699 -0.1531
 4007TIP3    H133512   1.887   6.733   5.578  0.8927 -0.4682 -0.1614
 4007TIP3    H233513   1.811   6.644   5.675  0.5164 -0.2633 -0.2675
 4008TIP3   OH233514   4.259   5.309  14.462  0.7717 -0.0381 -0.1252
 4008TIP3    H133515   4.349   5.294  14.490  0.8451 -0.2146 -0.4446
 4008TIP3    H233516   4.217   5.351  14.537  1.3355  0.8106 -0.2692
 4009TIP3   OH233517   5.454   0.493   1.930 -0.4452 -0.1044 -0.0176
 4009TIP3    H133518   5.453   0.450   2.015  0.6163  0.1756  0.1613
 4009TIP3    H233519   5.366   0.530   1.919 -0.6805 -0.4140  0.8116
 4010TIP3   OH233520   0.469   6.465   4.230  0.0849 -0.2924  0.5129
 4010TIP3    H133521   0.565   6.461   4.232  0.1869  0.4721 -1.0229
 4010TIP3    H233522   0.441   6.419   4.309  1.6791 -1.7606  0.2800
 4011TIP3   OH233523   3.716   6.287   4.814  0.8077 -0.6211 -0.1924
 4011TIP3    H133524   3.800   6.243   4.806  0.2284 -1.7528 -0.2100
 4011TIP3    H233525   3.731   6.357   4.878  1.6720 -1.0164  0.0429
 4012TIP3   OH233526   3.092   2.189  13.257 -0.5737  0.0188 -0.4229
 4012TIP3    H133527   3.028   2.123  13.284 -0.6847  0.1092 -0.4655
 4012TIP3    H233528   3.041   2.253  13.207 -0.2861 -0.4510 -1.3571
 4013TIP3   OH233529   2.687   5.588   3.973 -0.0577 -0.1092  0.2090
 4013TIP3    H133530   2.627   5.663   3.970  1.5967  1.4906  3.1866
 4013TIP3    H233531   2.648   5.530   4.038  2.2638  1.8102  3.6241
 4014TIP3   OH233532   0.534   4.787   4.434 -0.7131 -0.3293 -0.4006
 4014TIP3    H133533   0.617   4.834   4.442 -0.3410 -0.9571 -0.4791
 4014TIP3    H233534   0.518   4.784   4.339 -1.1547  0.3427 -0.3529
 4015TIP3   OH233535   2.816   5.948   4.593 -0.1415  0.2312 -0.0258
 4015TIP3    H133536   2.757   5.941   4.519 -0.1606  0.4812 -0.0366
 4015TIP3    H233537   2.897   5.906   4.564 -0.2003  0.1899 -0.1308
 4016TIP3   OH233538   3.788   0.849  14.911  0.1358  0.2018  0.1177
 4016TIP3    H133539   3.832   0.814  14.834 -1.1601 -0.4009 -0.3932
 4016TIP3    H233540   3.830   0.933  14.928  2.6924 -1.1056  0.7861
 4017TIP3   OH233541   3.048   1.348  10.876 -0.0450  0.5614  0.4649
 4017TIP3    H133542   3.135   1.372  10.908 -0.0942  0.0880  0.9613
 4017TIP3    H233543   3.033   1.260  10.911  0.2425 -0.3292 -1.5169
 4018TIP3   OH233544   6.244   5.627  12.149  0.2777 -1.1235  0.5000
 4018TIP3    H133545   6.310   5.688  12.180  0.3942 -1.4424  0.8737
 4018TIP3    H233546   6.253   5.550  12.205  0.4467 -1.6733 -0.2696
 4019TIP3   OH233547   4.840   4.190  12.711  0.5860 -0.4376  0.1695
 4019TIP3    H133548   4.931   4.160  12.712  0.8431  0.3233  0.8224
 4019TIP3    H233549   4.790   4.115  12.680  1.1505 -1.6511  2.0762
 4020TIP3   OH233550   0.537   1.908  13.530  0.6079  0.0152 -0.1970
 4020TIP3    H133551   0.462   1.957  13.564 -0.3892 -1.8551  0.4289
 4020TIP3    H233552   0.510   1.879  13.443  1.7228  1.6197 -1.1504
 4021TIP3   OH233553   2.978   2.308  13.842  0.4379  0.1493  0.5367
 4021TIP3    H133554   2.885   2.288  13.852  0.7500 -1.7640 -0.0301
 4021TIP3    H233555   2.980   2.394  13.798 -1.1117 -0.7936 -1.5368
 4022TIP3   OH233556   0.604   2.626   4.522 -0.2225 -0.0864 -0.2212
 4022TIP3    H133557   0.620   2.657   4.433 -2.0124  2.2435  0.1802
 4022TIP3    H233558   0.509   2.618   4.527 -0.2028  0.5459  1.6798
 4023TIP3   OH233559   0.468   4.136  11.078  0.1496 -0.0583  0.0811
 4023TIP3    H133560   0.469   4.230  11.063 -0.5440  0.0256  0.5055
 4023TIP3    H233561   0.492   4.098  10.994 -0.8547  0.4653 -0.4628
 4024TIP3   OH233562   5.274   1.639   1.291  0.6124  0.0541  0.3385
 4024TIP3    H133563   5.329   1.576   1.338  0.1752 -0.7903 -0.2618
 4024TIP3    H233564   5.184   1.612   1.310  0.4227  0.2561 -0.2459
 4025TIP3   OH233565   2.602   4.556   6.459  0.5320  0.0683 -0.2172
 4025TIP3    H133566   2.657   4.586   6.531 -0.7427  0.9311  0.4350
 4025TIP3    H233567   2.602   4.629   6.396 -0.3886  0.3764  0.1125
 4026TIP3   OH233568   0.700   1.104   3.660  0.0108 -0.4368 -0.3283
 4026TIP3    H133569   0.648   1.056   3.725 -0.4109  1.2802  0.6877
 4026TIP3    H233570   0.663   1.078   3.576 -1.5748 -0.3615  0.2955
 4027TIP3   OH233571   3.201   6.524   5.457 -0.7931  0.1824 -0.2165
 4027TIP3    H133572   3.242   6.531   5.543  1.1341  0.4641 -1.1153
 4027TIP3    H233573   3.158   6.609   5.444  0.4280  0.8173 -0.2445
 4028TIP3   OH233574   1.303   6.758  15.429 -0.1805  0.3341 -0.2224
 4028TIP3    H133575   1.223   6.746  15.479 -0.4983  0.6295 -0.6576
 4028TIP3    H233576   1.310   6.678  15.376  1.6750 -1.3731  2.3313
 4029TIP3   OH233577   4.759   2.179   0.099 -0.7123 -0.0288 -0.0455
 4029TIP3    H133578   4.729   2.180   0.190  1.0100 -1.2078  0.5823
 4029TIP3    H233579   4.854   2.192   0.105 -0.8672  3.3553 -1.9127
 4030TIP3   OH233580   4.650   1.103   2.310  0.2250  0.6375 -0.2383
 4030TIP3    H133581   4.713   1.043   2.349  1.8670  0.2674 -3.1412
 4030TIP3    H233582   4.614   1.055   2.236  0.7171  2.7415 -1.9502
 4031TIP3   OH233583   4.621   1.922  14.364 -0.2040 -0.0368  0.0844
 4031TIP3    H133584   4.543   1.913  14.419 -0.2776 -0.9253 -0.1520
 4031TIP3    H233585   4.658   1.834  14.360 -0.6231 -0.1546 -1.9360
 4032TIP3   OH233586   2.780   3.042  13.526 -0.8021  0.0252  0.3765
 4032TIP3    H133587   2.852   3.083  13.574  0.3157 -1.1716 -0.2161
 4032TIP3    H233588   2.788   3.078  13.437 -2.0792  1.2602  0.7231
 4033TIP3   OH233589   1.970   2.763  16.144 -0.3104 -0.1003  0.3383
 4033TIP3    H133590   1.997   2.680  16.106 -1.0890 -0.1615 -0.0971
 4033TIP3    H233591   2.022   2.771  16.224  0.1608 -0.7426  0.0994
 4034TIP3   OH233592   5.957   3.701   5.652  0.0597  0.4511  0.4024
 4034TIP3    H133593   5.896   3.639   5.693 -0.1133  1.0074  0.9973
 4034TIP3    H233594   6.022   3.720   5.719  1.3840 -0.7489 -0.4852
 4035TIP3   OH233595   0.210   1.425   4.692  0.3275 -0.0782 -0.1512
 4035TIP3    H133596   0.291   1.376   4.687  0.3715  0.0317 -0.5915
 4035TIP3    H233597   0.142   1.359   4.704  0.5552 -0.1111  0.9926
 4036TIP3   OH233598   1.204   3.877  11.012  0.0750 -0.6816  0.4286
 4036TIP3    H133599   1.144   3.805  10.993 -1.9840  0.7324  1.2258
 4036TIP3    H233600   1.190   3.939  10.940  0.5853 -0.3247  0.6342
 4037TIP3   OH233601   6.406   2.911   4.624  0.5690 -0.1930  0.2260
 4037TIP3    H133602   6.356   2.918   4.543  0.0461 -1.1624  0.4493
 4037TIP3    H233603   6.415   3.001   4.655 -0.1363  0.0869 -0.3584
 4038TIP3   OH233604   5.529   0.032   1.753  0.1303 -0.6293 -0.7759
 4038TIP3    H133605   5.497   0.122   1.745 -0.6373 -0.9312 -1.2037
 4038TIP3    H233606   5.454  -0.022   1.731  0.4594 -1.3888 -0.0903
 4039TIP3   OH233607   4.738   1.135  17.337  0.0333 -0.0643  0.1325
 4039TIP3    H133608   4.723   1.195  17.411  0.2143  0.5299 -0.2986
 4039TIP3    H233609   4.825   1.099  17.353 -0.0857 -0.2335  0.4075
 4040TIP3   OH233610   1.305   0.735  13.248 -0.2497  1.2203  0.0388
 4040TIP3    H133611   1.361   0.668  13.287 -0.3884  0.5607 -0.8563
 4040TIP3    H233612   1.249   0.764  13.320 -0.1798  0.3769  0.4418
 4041TIP3   OH233613   3.153   1.540   1.431 -0.2609 -0.0610  0.4947
 4041TIP3    H133614   3.233   1.491   1.451 -0.5125 -1.3769 -1.5189
 4041TIP3    H233615   3.184   1.622   1.394  0.2438 -1.1872 -1.7433
 4042TIP3   OH233616   4.235   5.384  17.360  0.0943  0.3231 -0.4377
 4042TIP3    H133617   4.270   5.320  17.421 -0.0928 -0.0000 -0.6675
 4042TIP3    H233618   4.311   5.435  17.331  0.1911  0.4291  0.0074
 4043TIP3   OH233619   4.971   6.445  10.743 -0.7299 -0.2084 -0.1400
 4043TIP3    H133620   5.007   6.493  10.669  0.1945  0.2895  0.6107
 4043TIP3    H233621   4.879   6.473  10.748 -0.6308  0.2301 -0.6983
 4044TIP3   OH233622   1.767   1.707  16.412 -0.9594  0.3557 -0.3020
 4044TIP3    H133623   1.751   1.676  16.502 -1.2245 -0.1146 -0.5043
 4044TIP3    H233624   1.862   1.719  16.407 -0.9967  0.9230  0.2093
 4045TIP3   OH233625   0.686   1.860   1.283 -0.0641 -0.2094 -0.1329
 4045TIP3    H133626   0.625   1.915   1.235 -0.8429  0.1193  1.1890
 4045TIP3    H233627   0.639   1.778   1.298 -0.1466 -0.0100  0.7633
 4046TIP3   OH233628   2.985   4.777   0.287  0.5535  0.5140 -0.5613
 4046TIP3    H133629   2.931   4.790   0.209 -0.7079  0.0220  0.1926
 4046TIP3    H233630   2.989   4.863   0.327  0.2166  0.5361 -0.5675
 4047TIP3   OH233631   1.238   5.226   1.517 -0.1049 -0.1472 -0.3029
 4047TIP3    H133632   1.321   5.271   1.501 -0.3019 -0.0897 -1.1921
 4047TIP3    H233633   1.250   5.185   1.603  1.5724 -1.7663 -1.2067
 4048TIP3   OH233634   3.059   4.576  15.675 -0.2176 -0.3000  0.4450
 4048TIP3    H133635   3.001   4.600  15.602  0.3080 -1.3985 -0.3701
 4048TIP3    H233636   3.034   4.487  15.698  2.7192 -1.8542 -1.6632
 4049TIP3   OH233637   4.868   4.855  10.658 -0.2225  0.0648 -0.3511
 4049TIP3    H133638   4.908   4.937  10.628 -0.6186  0.4679  0.1924
 4049TIP3    H233639   4.904   4.788  10.600  1.7859  0.2971  0.5201
 4050TIP3   OH233640   5.828   0.695   5.711  0.0676  0.2381 -0.4755
 4050TIP3    H133641   5.898   0.636   5.681 -0.3852 -0.1851 -0.7070
 4050TIP3    H233642   5.850   0.779   5.672 -0.0668 -0.1159 -1.3322
 4051TIP3   OH233643   3.668   4.034   5.658 -0.4335 -0.4248 -0.2795
 4051TIP3    H133644   3.606   4.087   5.708  0.2704  0.2543 -0.1049
 4051TIP3    H233645   3.735   4.097   5.629 -1.0847 -0.7075 -2.5153
 4052TIP3   OH233646   1.481   0.594   1.830 -0.0219  0.3335  0.5495
 4052TIP3    H133647   1.507   0.504   1.853  0.9608  0.4193 -0.1718
 4052TIP3    H233648   1.550   0.649   1.867  0.1678  0.6746 -0.2949
 4053TIP3   OH233649   2.543   6.234  14.333 -0.4265  0.1934 -0.2650
 4053TIP3    H133650   2.500   6.149  14.326 -0.2447 -0.3427  3.0890
 4053TIP3    H233651   2.632   6.212  14.363 -0.1740  1.5116 -0.0088
 4054TIP3   OH233652   5.521   3.660  15.984  0.0740  0.3896  0.3794
 4054TIP3    H133653   5.615   3.645  15.983  0.0546  0.2996 -0.1674
 4054TIP3    H233654   5.512   3.755  15.984  0.1672  0.4002  0.8576
 4055TIP3   OH233655   1.131   3.322   1.746  0.4661  0.4134  0.1736
 4055TIP3    H133656   1.063   3.325   1.679  1.2258  2.1108 -0.5882
 4055TIP3    H233657   1.119   3.404   1.795  1.5147  0.4058  0.4659
 4056TIP3   OH233658   3.554   6.397  13.361  0.0845  0.0288 -0.2664
 4056TIP3    H133659   3.649   6.393  13.371 -0.0286 -0.1025  0.8244
 4056TIP3    H233660   3.523   6.311  13.389 -0.4886  0.6612  1.1380
 4057TIP3   OH233661   0.489   0.435  10.687  0.0602  0.2854  0.8787
 4057TIP3    H133662   0.411   0.449  10.741 -1.7610 -0.1348 -1.4986
 4057TIP3    H233663   0.509   0.521  10.651  0.8322  0.4209  1.5931
 4058TIP3   OH233664   6.198   4.576  16.085 -0.0769  0.0066 -0.4244
 4058TIP3    H133665   6.176   4.669  16.088  0.6657  0.2031 -0.9944
 4058TIP3    H233666   6.189   4.546  16.176 -0.0585  0.6869 -0.1971
 4059TIP3   OH233667   1.716   0.510   4.457  0.3122 -0.2487 -0.3559
 4059TIP3    H133668   1.695   0.584   4.399  1.3461  0.5504  0.2599
 4059TIP3    H233669   1.636   0.456   4.456 -1.1755  1.7947  0.6074
 4060TIP3   OH233670   2.740   0.619   1.996  0.1062 -0.3194  0.0905
 4060TIP3    H133671   2.675   0.687   2.018 -0.9053 -1.1441 -0.2662
 4060TIP3    H233672   2.795   0.660   1.929 -1.3669 -0.2880 -1.1565
 4061TIP3   OH233673   1.184   2.576   2.468  0.1957 -0.5462 -0.2471
 4061TIP3    H133674   1.243   2.518   2.515 -0.0057 -0.0415  0.6561
 4061TIP3    H233675   1.217   2.577   2.378 -0.0481 -2.3723 -0.3893
 4062TIP3   OH233676   2.658   2.619  16.126 -0.0893 -0.2893 -0.0955
 4062TIP3    H133677   2.666   2.548  16.062 -0.4312 -0.9637  0.5909
 4062TIP3    H233678   2.746   2.656  16.132  0.3811 -1.4607  0.4338
 4063TIP3   OH233679   5.759   3.752  15.299 -0.4900  0.1823  0.3185
 4063TIP3    H133680   5.787   3.834  15.257  0.0851  0.4149  1.1389
 4063TIP3    H233681   5.720   3.702  15.228  1.8628 -0.1027 -0.8749
 4064TIP3   OH233682   3.481   1.606  12.696  0.2071 -0.7658 -0.1954
 4064TIP3    H133683   3.478   1.512  12.713 -1.8495 -1.1036 -2.0612
 4064TIP3    H233684   3.446   1.646  12.775  0.2693 -1.6120  0.2743
 4065TIP3   OH233685   1.108   4.720  13.303 -0.0041  0.0126  0.6323
 4065TIP3    H133686   1.074   4.640  13.342 -0.6295 -0.4383 -0.7965
 4065TIP3    H233687   1.201   4.701  13.287  0.0845 -0.0549  1.1806
 4066TIP3   OH233688   2.906   1.322  14.175 -0.2455  0.1444  0.0587
 4066TIP3    H133689   2.894   1.360  14.088 -0.0555 -0.7056 -0.3490
 4066TIP3    H233690   2.966   1.248  14.161 -1.8278 -1.3127  0.5441
 4067TIP3   OH233691   5.073   1.139   3.843 -0.2446 -0.1470  0.2043
 4067TIP3    H133692   5.005   1.137   3.776  1.4744  1.0654 -1.6574
 4067TIP3    H233693   5.087   1.232   3.860  1.6147 -0.3182 -0.1889
 4068TIP3   OH233694   2.182   3.397   0.409  0.2333 -0.2775 -0.1294
 4068TIP3    H133695   2.103   3.448   0.429  1.4567  1.1520  1.3820
 4068TIP3    H233696   2.254   3.458   0.425  1.7787 -2.3751  1.4549
 4069TIP3   OH233697   6.701   3.768   4.844 -0.1438  0.3264  0.1391
 4069TIP3    H133698   6.643   3.755   4.920  0.8028 -1.5376  0.6008
 4069TIP3    H233699   6.642   3.770   4.769 -0.8705 -1.4483  0.6027
 4070TIP3   OH233700   2.533   0.191   3.889 -0.2944 -0.8063  0.0379
 4070TIP3    H133701   2.502   0.178   3.979 -1.7704  1.1948 -0.1132
 4070TIP3    H233702   2.466   0.149   3.835 -1.5633  1.3844 -0.2047
 4071TIP3   OH233703   5.055   5.974   1.275 -0.1315 -0.3707  0.9937
 4071TIP3    H133704   5.043   5.966   1.181  0.7204 -1.0368  0.9268
 4071TIP3    H233705   5.011   5.897   1.312  1.1121 -1.1325  0.9752
 4072TIP3   OH233706   5.187   3.645  17.408 -0.0228 -0.1207 -0.1197
 4072TIP3    H133707   5.198   3.618  17.500 -0.3343  0.1282 -0.0074
 4072TIP3    H233708   5.106   3.602  17.381 -0.4019  0.5235 -0.0102
 4073TIP3   OH233709   0.212   0.470  12.596 -0.5404  0.3487 -0.0830
 4073TIP3    H133710   0.187   0.493  12.507 -1.4215 -2.3300 -0.6218
 4073TIP3    H233711   0.249   0.382  12.588  0.2487  0.4286  2.0935
 4074TIP3   OH233712   2.053   0.786  14.829 -0.1107  0.0431 -0.3304
 4074TIP3    H133713   2.092   0.732  14.898 -0.2234 -1.3530 -1.2986
 4074TIP3    H233714   2.128   0.822  14.781 -0.0111 -0.5831 -0.6563
 4075TIP3   OH233715   0.989   4.778   3.615  0.8211  0.4514 -0.0030
 4075TIP3    H133716   0.909   4.831   3.611  0.0737 -0.6342 -0.0564
 4075TIP3    H233717   1.009   4.772   3.708 -0.1984 -0.7133  0.1765
 4076TIP3   OH233718   2.811   2.817  12.981 -0.1345 -0.4318 -0.1732
 4076TIP3    H133719   2.888   2.821  13.037  0.9105 -2.2355 -1.3887
 4076TIP3    H233720   2.845   2.800  12.893 -1.8708 -0.7703 -0.8367
 4077TIP3   OH233721   6.332   5.304  15.360  0.1155 -0.4549  0.3804
 4077TIP3    H133722   6.238   5.298  15.342 -0.0902  0.3437  1.1386
 4077TIP3    H233723   6.342   5.266  15.448  0.7376 -1.9339 -0.2859
 4078TIP3   OH233724   6.615   5.171   3.092  0.6725 -0.1613 -0.0397
 4078TIP3    H133725   6.609   5.192   2.999  1.2859  0.2669  0.0062
 4078TIP3    H233726   6.601   5.255   3.136  1.2485 -0.1911  0.2183
 4079TIP3   OH233727   2.141   6.215  16.864 -0.0284 -0.0954  0.3789
 4079TIP3    H133728   2.228   6.181  16.845  0.7830  2.8000 -1.9241
 4079TIP3    H233729   2.150   6.261  16.947  1.1766  1.5080 -0.5760
 4080TIP3   OH233730   0.579   4.129  14.309 -0.0049  0.2288 -0.4374
 4080TIP3    H133731   0.635   4.100  14.236 -1.2368  1.1857 -1.8162
 4080TIP3    H233732   0.528   4.200  14.272  0.2527  1.6329  1.7705
 4081TIP3   OH233733   4.161   4.417  15.687 -0.3047 -0.4090 -0.1409
 4081TIP3    H133734   4.132   4.488  15.745 -1.9557 -1.1964  0.0507
 4081TIP3    H233735   4.231   4.456  15.635 -1.3845  1.4755 -0.2685
 4082TIP3   OH233736   2.894   1.364  17.367  0.1884  0.1126  0.2951
 4082TIP3    H133737   2.905   1.415  17.286 -1.6775 -2.2329 -1.6117
 4082TIP3    H233738   2.983   1.354  17.402  0.9783  1.7267 -1.1167
 4083TIP3   OH233739   3.218   5.061   3.532  0.1216  1.0796 -0.0636
 4083TIP3    H133740   3.271   5.140   3.521 -0.3284  1.4880  0.6270
 4083TIP3    H233741   3.178   5.070   3.619  0.2877 -0.0439  0.1510
 4084TIP3   OH233742   3.961   3.083  13.223 -0.5944 -0.1958  0.2023
 4084TIP3    H133743   3.981   3.055  13.134  0.7910  0.1153  0.4014
 4084TIP3    H233744   4.005   3.020  13.279 -1.0392 -0.0958  0.6791
 4085TIP3   OH233745   0.990   2.376  15.982 -0.0317  0.0147 -0.2881
 4085TIP3    H133746   1.059   2.315  16.009  1.3860  0.3645 -2.8118
 4085TIP3    H233747   0.909   2.337  16.014  1.2820 -0.0199  3.5101
 4086TIP3   OH233748   0.484   2.158   4.683  0.4051  0.2202 -0.1960
 4086TIP3    H133749   0.397   2.119   4.675  1.2549 -1.4771 -1.9516
 4086TIP3    H233750   0.534   2.122   4.609  3.0344  0.0137  1.5294
 4087TIP3   OH233751   1.427   6.545  11.808 -0.0037 -0.0543 -0.1528
 4087TIP3    H133752   1.375   6.530  11.888 -0.5639 -2.1499 -0.8497
 4087TIP3    H233753   1.437   6.458  11.770 -0.9368  1.0337 -3.1108
 4088TIP3   OH233754   5.385   1.404  11.019  0.0428  0.2455  0.2742
 4088TIP3    H133755   5.379   1.315  11.055 -0.8102  0.3014  0.3049
 4088TIP3    H233756   5.302   1.445  11.045 -0.1530  0.6144 -0.8991
 4089TIP3   OH233757   0.865   3.271   3.518  0.3002  0.7666 -0.0605
 4089TIP3    H133758   0.919   3.276   3.597 -0.1900 -0.1202  0.3455
 4089TIP3    H233759   0.816   3.189   3.528 -0.1740  0.9239 -1.0256
 4090TIP3   OH233760   0.731   4.303   0.490  0.2444 -0.0531 -0.5356
 4090TIP3    H133761   0.675   4.301   0.568  0.9482  0.9656  0.0238
 4090TIP3    H233762   0.681   4.352   0.425  0.2916  0.4783 -0.1804
 4091TIP3   OH233763   0.694   3.814   2.384  0.4686  0.0703 -0.4290
 4091TIP3    H133764   0.773   3.761   2.383  1.3024  1.2195  0.5950
 4091TIP3    H233765   0.665   3.811   2.475 -0.3938  0.0610 -0.6977
 4092TIP3   OH233766   1.483   1.310   1.748  0.0387  0.9761 -0.0030
 4092TIP3    H133767   1.566   1.264   1.739 -0.2522 -0.1874  2.4469
 4092TIP3    H233768   1.505   1.393   1.790  0.0469  0.9997 -0.0541
 4093TIP3   OH233769   2.621   2.332  14.291  0.7852  0.1242 -0.0568
 4093TIP3    H133770   2.693   2.395  14.286  0.5355  0.4120 -0.0227
 4093TIP3    H233771   2.542   2.385  14.285  0.5789 -0.2719 -0.9927
 4094TIP3   OH233772   6.330   5.565   5.460  0.3463  0.0121 -0.1478
 4094TIP3    H133773   6.419   5.530   5.461 -0.2313 -1.5576 -0.7522
 4094TIP3    H233774   6.341   5.659   5.477  2.3294  0.2851 -2.3367
 4095TIP3   OH233775   0.001   3.092   2.282  0.0486  0.3095  0.2734
 4095TIP3    H133776  -0.026   3.145   2.357  0.5951  1.2375 -0.1661
 4095TIP3    H233777  -0.079   3.046   2.255 -0.2168  0.1721  1.2455
 4096TIP3   OH233778   2.680   2.605  13.402 -0.4753  0.0488 -0.2755
 4096TIP3    H133779   2.745   2.662  13.443 -0.1421 -0.0436 -0.6677
 4096TIP3    H233780   2.653   2.653  13.323 -0.8732  0.0800 -0.1237
 4097TIP3   OH233781   4.942   6.207  16.660 -0.3253  0.1107  0.5829
 4097TIP3    H133782   5.006   6.223  16.591 -0.6547  0.5479  0.3725
 4097TIP3    H233783   4.941   6.112  16.671  1.3033  0.1649  1.5017
 4098TIP3   OH233784   5.953   2.420  12.648 -0.3605  0.6009  0.6346
 4098TIP3    H133785   5.891   2.464  12.590  1.7842  1.5761 -1.0630
 4098TIP3    H233786   5.928   2.328  12.643  0.5388  0.3705 -3.1165
 4099TIP3   OH233787   2.732   6.330   5.882 -0.5481  0.4140  0.0656
 4099TIP3    H133788   2.807   6.274   5.901 -1.8887 -1.1049  1.2096
 4099TIP3    H233789   2.745   6.407   5.936  0.5891  0.5669 -0.3947
 4100TIP3   OH233790   5.992   0.393   1.939 -0.0280  0.0716  0.1886
 4100TIP3    H133791   5.904   0.354   1.933  0.3658 -0.7164 -0.7798
 4100TIP3    H233792   5.977   0.482   1.972 -0.8351 -1.3454  4.2552
 4101TIP3   OH233793   0.160   2.221  10.524 -0.2623 -0.4485  0.4383
 4101TIP3    H133794   0.113   2.300  10.495  0.6874 -0.4669 -1.2375
 4101TIP3    H233795   0.091   2.157  10.540 -1.0740  0.7438  2.0368
 4102TIP3   OH233796   6.194   6.311  17.020 -0.1964 -0.0330  0.6546
 4102TIP3    H133797   6.177   6.221  16.990 -0.0829 -0.0560  0.6619
 4102TIP3    H233798   6.155   6.366  16.952  1.6091 -0.0620 -0.4586
 4103TIP3   OH233799   4.852   0.871  13.292 -0.6685 -0.0931  0.0542
 4103TIP3    H133800   4.827   0.874  13.200  0.5190 -0.7056 -0.3063
 4103TIP3    H233801   4.871   0.963  13.314 -1.2871  0.1040 -0.2018
 4104TIP3   OH233802   1.808   2.532   1.811 -0.2586 -0.1947  0.2936
 4104TIP3    H133803   1.868   2.458   1.821  1.0349  0.3194 -2.5727
 4104TIP3    H233804   1.856   2.607   1.846  0.4853  0.0648 -1.2069
 4105TIP3   OH233805   6.250   2.448   4.607  0.3800 -0.4827  0.4829
 4105TIP3    H133806   6.190   2.426   4.536  0.0879 -1.6604  1.0723
 4105TIP3    H233807   6.198   2.505   4.664 -0.6362 -2.4039  1.5905
 4106TIP3   OH233808   4.120   1.262  14.584 -0.1418  0.3063  0.0677
 4106TIP3    H133809   4.063   1.313  14.527  0.9002  1.7904  0.3021
 4106TIP3    H233810   4.189   1.229  14.527 -0.9491 -1.1063 -0.1318
 4107TIP3   OH233811   4.371   3.305   0.894 -0.2174  0.8077  0.1903
 4107TIP3    H133812   4.411   3.380   0.937  2.2831 -0.3020 -0.0032
 4107TIP3    H233813   4.400   3.311   0.803 -0.5626  0.0078  0.0123
 4108TIP3   OH233814   0.796   4.252  17.079 -0.2729  0.2043  0.2310
 4108TIP3    H133815   0.716   4.226  17.126 -0.8768 -0.9000 -1.3366
 4108TIP3    H233816   0.819   4.175  17.027  0.4381  1.3288 -1.1824
 4109TIP3   OH233817   1.882   0.417  14.832  0.6654  0.0013  0.7417
 4109TIP3    H133818   1.942   0.426  14.906  0.8048  1.1213  0.5147
 4109TIP3    H233819   1.820   0.490  14.843 -1.4476 -1.7863  1.6452
 4110TIP3   OH233820   0.080   0.107  16.170  0.1175 -0.6438  0.1259
 4110TIP3    H133821   0.059   0.160  16.093 -0.2168 -0.3513  0.4204
 4110TIP3    H233822   0.002   0.055  16.186 -0.7071  0.9432  1.6349
 4111TIP3   OH233823   1.119   2.248  13.919  0.6522 -0.2995  0.7075
 4111TIP3    H133824   1.177   2.207  13.855 -2.2706 -1.3634 -1.4960
 4111TIP3    H233825   1.081   2.323  13.873  0.4502  0.5391  2.1714
 4112TIP3   OH233826   4.877   2.952   0.186 -0.2110  0.2001  0.5451
 4112TIP3    H133827   4.944   2.943   0.118 -0.9234  1.9297 -0.4696
 4112TIP3    H233828   4.922   2.928   0.267  0.8401 -1.3286 -0.4397
 4113TIP3   OH233829   2.791   6.207  15.259  0.1382  0.4880 -0.3729
 4113TIP3    H133830   2.871   6.247  15.292 -0.2685  0.8742  0.1562
 4113TIP3    H233831   2.782   6.127  15.309  0.9928 -0.3379 -1.4834
 4114TIP3   OH233832   4.114   5.990  14.710  0.0044  0.1498 -0.1139
 4114TIP3    H133833   4.099   6.041  14.630  0.3303 -0.0622 -0.3120
 4114TIP3    H233834   4.150   5.907  14.679  0.4836  0.2096  0.2805
 4115TIP3   OH233835   4.445   2.083  15.263  0.6913 -0.2214 -0.2229
 4115TIP3    H133836   4.450   2.094  15.358  1.1739 -1.3345 -0.1095
 4115TIP3    H233837   4.414   2.168  15.231 -0.3504 -0.1007  1.0022
 4116TIP3   OH233838   3.375   2.905  11.517  0.0841 -0.3902 -0.4109
 4116TIP3    H133839   3.394   2.917  11.424 -1.0695 -0.9454 -0.7438
 4116TIP3    H233840   3.448   2.852  11.550 -1.5162 -3.9367 -2.0234
 4117TIP3   OH233841   2.636   3.479  12.062 -0.2243 -0.5649 -0.2518
 4117TIP3    H133842   2.599   3.555  12.018  0.0304 -0.0742  0.3749
 4117TIP3    H233843   2.564   3.416  12.067 -0.8385  0.1831  0.5028
 4118TIP3   OH233844   6.705   6.236   6.252  0.6242 -0.3854 -0.0683
 4118TIP3    H133845   6.793   6.224   6.287  1.2129 -1.1636 -1.7184
 4118TIP3    H233846   6.665   6.302   6.309  1.8160 -0.9437  1.4860
 4119TIP3   OH233847   6.755   2.816   1.482 -0.2362  0.1823 -0.1112
 4119TIP3    H133848   6.760   2.816   1.386 -0.3653  2.2168 -0.1722
 4119TIP3    H233849   6.671   2.859   1.501 -1.5648 -2.6607  0.9495
 4120TIP3   OH233850   1.406   5.077  15.122 -0.4512  0.3669 -0.1032
 4120TIP3    H133851   1.415   5.034  15.207 -0.8671  1.2125  0.3881
 4120TIP3    H233852   1.311   5.083  15.109 -0.3998  1.0458 -0.1982
 4121TIP3   OH233853   5.958   4.382  12.940 -0.3198  0.5615 -0.3226
 4121TIP3    H133854   6.022   4.451  12.922  0.9424 -0.5653 -0.2376
 4121TIP3    H233855   6.006   4.300  12.929 -1.2587 -0.3034  1.5461
 4122TIP3   OH233856   4.626   1.709  12.257 -0.3268  0.3236 -0.7421
 4122TIP3    H133857   4.697   1.646  12.244  0.1124  1.2590 -3.4115
 4122TIP3    H233858   4.549   1.655  12.274  0.7903 -0.7289  1.4436
 4123TIP3   OH233859   5.802   0.837  16.367  0.3639 -0.8089  0.2990
 4123TIP3    H133860   5.768   0.768  16.424 -0.2668 -1.1378 -0.4744
 4123TIP3    H233861   5.829   0.792  16.287 -1.4132 -0.0143 -0.8159
 4124TIP3   OH233862   1.968   4.795   5.928  0.2619  0.0568 -0.1362
 4124TIP3    H133863   1.934   4.747   5.853 -0.8477  0.1259  0.3001
 4124TIP3    H233864   1.898   4.791   5.993  0.4381  1.6050  0.1930
 4125TIP3   OH233865   1.932   0.939   3.887 -0.3052  0.4171  0.8321
 4125TIP3    H133866   1.965   0.851   3.906 -0.1482  0.5870  1.3419
 4125TIP3    H233867   1.996   0.976   3.827  0.1028  0.5103  1.3188
 4126TIP3   OH233868   4.652   4.886  14.564 -0.0241  0.1548  0.3836
 4126TIP3    H133869   4.712   4.835  14.510 -0.2699  2.0175 -1.7625
 4126TIP3    H233870   4.710   4.943  14.616  0.1741  1.8343 -1.5642
 4127TIP3   OH233871   5.390   1.207  15.956 -0.4284  0.0170  0.3291
 4127TIP3    H133872   5.409   1.292  15.915 -2.3528  0.2913 -0.0751
 4127TIP3    H233873   5.374   1.227  16.048 -0.7690  0.0751  0.2567
 4128TIP3   OH233874   2.306   2.445  15.536 -0.5640  0.1912  0.0360
 4128TIP3    H133875   2.311   2.540  15.526 -0.1034  0.1573 -0.0760
 4128TIP3    H233876   2.212   2.427  15.541 -0.7272  0.5015 -1.4427
 4129TIP3   OH233877   3.300   5.746  17.182 -0.8392 -0.3039  0.0999
 4129TIP3    H133878   3.333   5.705  17.262 -0.6873  0.7763  0.6021
 4129TIP3    H233879   3.271   5.833  17.209 -1.4912 -0.2003 -0.8782
 4130TIP3   OH233880   0.842   2.974  15.702  0.7244  0.2313  0.2530
 4130TIP3    H133881   0.889   3.037  15.647 -0.3878 -0.2010 -1.2767
 4130TIP3    H233882   0.765   3.023  15.734  0.7340  0.1263  0.4381
 4131TIP3   OH233883   0.979   2.495  15.282  0.0170  0.2106 -0.0542
 4131TIP3    H133884   0.922   2.437  15.232  0.2489 -0.4351  0.4229
 4131TIP3    H233885   0.972   2.579  15.237 -0.6662 -0.0682 -0.4919
 4132TIP3   OH233886   0.037   1.871  12.638 -0.4213 -0.3422  0.2470
 4132TIP3    H133887   0.096   1.817  12.585 -1.5725 -0.6627 -0.7738
 4132TIP3    H233888   0.094   1.925  12.692  0.7808 -1.1546 -0.1778
 4133TIP3   OH233889   2.560   1.529   1.605  0.0676 -0.0462 -0.0383
 4133TIP3    H133890   2.528   1.443   1.578 -1.8772  0.6522 -0.0715
 4133TIP3    H233891   2.606   1.563   1.528 -0.1342 -0.5942 -0.4004
 4134TIP3   OH233892   2.177   0.391   5.213 -0.1619  0.0022 -1.0656
 4134TIP3    H133893   2.182   0.439   5.130 -1.2004 -1.1674 -1.8402
 4134TIP3    H233894   2.268   0.372   5.234  0.3232  2.5584 -0.5391
 4135TIP3   OH233895   0.691   5.335  13.585 -0.1369  0.3984  0.1563
 4135TIP3    H133896   0.673   5.397  13.655  1.6200  0.4985  0.5817
 4135TIP3    H233897   0.787   5.333  13.579 -0.2144 -0.3169 -1.6125
 4136TIP3   OH233898   0.892   0.451   6.007 -0.4311 -0.0058 -0.0669
 4136TIP3    H133899   0.987   0.444   6.018 -0.3687  2.0545  1.2528
 4136TIP3    H233900   0.870   0.537   6.043 -2.8629 -0.5635 -0.0537
 4137TIP3   OH233901   1.958   4.763  17.411  0.3012 -0.5303 -0.4100
 4137TIP3    H133902   1.944   4.719  17.494  1.4598 -0.5018 -0.1787
 4137TIP3    H233903   2.047   4.737  17.385 -0.3609 -1.2674 -2.0853
 4138TIP3   OH233904   1.360   2.915  11.721  0.8649 -0.0459 -0.0203
 4138TIP3    H133905   1.299   2.920  11.794 -0.6758  1.4469 -1.3168
 4138TIP3    H233906   1.417   2.991  11.733 -0.0507  0.8103 -0.8641
 4139TIP3   OH233907   2.974   1.608  14.775  0.1728  0.0631  0.5729
 4139TIP3    H133908   2.899   1.621  14.718  1.7380  1.5659 -1.3026
 4139TIP3    H233909   2.989   1.693  14.816  1.9439  0.3616 -0.5875
 4140TIP3   OH233910   5.528   4.054  13.238 -0.1644 -0.0174  0.5112
 4140TIP3    H133911   5.492   3.970  13.208 -0.2069  0.2350 -0.1765
 4140TIP3    H233912   5.611   4.062  13.192 -0.7076  0.8526 -0.3556
 4141TIP3   OH233913   3.472   5.812  11.605  0.1977 -0.4557 -0.3952
 4141TIP3    H133914   3.474   5.733  11.660 -1.2298  0.9650  1.8837
 4141TIP3    H233915   3.387   5.808  11.561  0.1561 -0.2250 -0.3348
 4142TIP3   OH233916   4.762   6.178  13.237  0.5312  0.0503  0.4653
 4142TIP3    H133917   4.700   6.218  13.298  0.3211 -1.8576  1.5622
 4142TIP3    H233918   4.815   6.252  13.205 -0.3595  1.2987  1.7496
 4143TIP3   OH233919   2.546   4.304   0.464  0.3355 -0.1025 -0.2383
 4143TIP3    H133920   2.496   4.271   0.389  0.1881  0.9240 -0.6035
 4143TIP3    H233921   2.617   4.241   0.475 -1.4538 -2.0511  0.7958
 4144TIP3   OH233922   2.476   6.468   1.048  0.2211  0.0404 -0.0751
 4144TIP3    H133923   2.472   6.375   1.072 -0.9314  0.3121  0.8676
 4144TIP3    H233924   2.566   6.494   1.067  0.6377 -0.9416 -0.6242
 4145TIP3   OH233925   3.295   0.252   5.285  0.3063  0.8400  0.2043
 4145TIP3    H133926   3.343   0.176   5.316  0.5040  0.9269  0.1126
 4145TIP3    H233927   3.246   0.283   5.361 -0.0560  0.4037  0.1471
 4146TIP3   OH233928   5.557   0.835  15.461  0.0092 -0.0907 -0.2567
 4146TIP3    H133929   5.534   0.802  15.548  0.6802  0.2766  0.0644
 4146TIP3    H233930   5.571   0.929  15.475  0.3366 -0.0729 -0.7183
 4147TIP3   OH233931   5.764   0.264   2.151  0.1644 -0.0636 -0.2968
 4147TIP3    H133932   5.777   0.262   2.246 -1.2969  1.8688  0.0089
 4147TIP3    H233933   5.752   0.357   2.130 -0.2700 -0.5046 -2.2730
 4148TIP3   OH233934   4.830   5.313   2.792  0.1591 -0.4262  0.4774
 4148TIP3    H133935   4.854   5.221   2.778  0.2909 -0.5911  1.6968
 4148TIP3    H233936   4.737   5.317   2.771  0.3292 -0.6536 -0.3689
 4149TIP3   OH233937   3.437   4.706  17.134  0.2994 -0.0245  0.1659
 4149TIP3    H133938   3.349   4.681  17.106  1.1489 -2.5683 -0.4905
 4149TIP3    H233939   3.464   4.635  17.192  1.8005  0.9292  0.6890
 4150TIP3   OH233940   0.341   4.358   3.841 -0.0689 -0.0048  0.3695
 4150TIP3    H133941   0.335   4.453   3.834 -0.8985 -0.0749 -0.0654
 4150TIP3    H233942   0.433   4.340   3.861  0.3843  0.8050 -0.8920
 4151TIP3   OH233943   6.227   1.645   0.460  0.7629 -0.0312  0.1353
 4151TIP3    H133944   6.270   1.649   0.375 -1.7941  1.4006 -1.2192
 4151TIP3    H233945   6.189   1.732   0.472 -0.2967 -0.6742  1.9895
 4152TIP3   OH233946   2.794   2.392   0.545 -0.2823 -0.8280 -0.0616
 4152TIP3    H133947   2.764   2.469   0.496 -0.0119  1.6023  3.2525
 4152TIP3    H233948   2.714   2.348   0.573 -0.5220 -0.2607  0.1544
 4153TIP3   OH233949   2.282   4.123   2.418 -0.1321 -0.1903 -0.1197
 4153TIP3    H133950   2.275   4.059   2.347  2.5849 -0.6071 -0.1173
 4153TIP3    H233951   2.287   4.070   2.498 -1.5879  0.2107  0.2550
 4154TIP3   OH233952   3.695   5.057  15.690 -0.0300  0.2127  0.6267
 4154TIP3    H133953   3.607   5.050  15.726  0.3119 -0.3152  1.3858
 4154TIP3    H233954   3.682   5.092  15.602 -0.8872  1.4653  1.2183
 4155TIP3   OH233955   6.310   4.855   5.674  0.0305  0.5584 -0.0158
 4155TIP3    H133956   6.338   4.865   5.583 -0.1387  0.6106 -0.0641
 4155TIP3    H233957   6.379   4.898   5.725  0.8186 -0.6538 -0.0179
 4156TIP3   OH233958   5.037   6.216   0.538  0.0794  0.4871 -0.4104
 4156TIP3    H133959   4.985   6.206   0.458 -2.0143 -0.2619  0.9469
 4156TIP3    H233960   5.122   6.248   0.508 -0.2397 -0.8617 -3.0397
 4157TIP3   OH233961   4.688   5.686  11.559  0.2219  0.2328  0.7065
 4157TIP3    H133962   4.691   5.755  11.492  0.2677 -0.5432 -0.1017
 4157TIP3    H233963   4.771   5.639  11.550 -0.8618 -1.5529 -0.5199
 4158TIP3   OH233964   1.656   3.680   0.389  0.8551  0.2797  0.3024
 4158TIP3    H133965   1.570   3.643   0.410  2.3250 -2.6368  1.8016
 4158TIP3    H233966   1.659   3.762   0.439 -0.9274  0.3275  0.4062
 4159TIP3   OH233967   0.300   5.851   2.410  0.2935  0.4522 -0.8146
 4159TIP3    H133968   0.347   5.836   2.492  0.9216  0.0956 -1.2315
 4159TIP3    H233969   0.309   5.945   2.394 -2.7525  1.2644  1.2636
 4160TIP3   OH233970   3.474   2.112  16.724  0.0773  0.5301 -0.1450
 4160TIP3    H133971   3.395   2.080  16.769 -1.1787  2.8804 -0.5185
 4160TIP3    H233972   3.473   2.068  16.639  2.2098 -3.5965  1.6826
 4161TIP3   OH233973   5.899   5.265  11.660  0.4502  0.1573  0.2234
 4161TIP3    H133974   5.810   5.234  11.642  0.9142 -0.0174 -2.0253
 4161TIP3    H233975   5.955   5.191  11.639  1.2511  0.9049 -0.3689
 4162TIP3   OH233976   0.955   2.985   5.438 -0.0678  0.5919 -0.8382
 4162TIP3    H133977   0.892   2.920   5.409  0.6232 -0.1238 -0.7737
 4162TIP3    H233978   1.041   2.943   5.426  0.3674  1.3144 -0.3684
 4163TIP3   OH233979   6.183   5.834   4.184  0.4239 -0.3381  0.2686
 4163TIP3    H133980   6.117   5.859   4.119  0.2348 -0.0521  0.5670
 4163TIP3    H233981   6.136   5.776   4.245  0.8827 -1.5135 -0.4735
 4164TIP3   OH233982   0.039   2.309   4.147 -0.5677 -0.1354  0.5613
 4164TIP3    H133983   0.122   2.299   4.100  0.4209  0.7843  2.0191
 4164TIP3    H233984  -0.016   2.361   4.089  0.1119 -0.1982 -0.1503
 4165TIP3   OH233985   4.986   3.820   0.807  0.8649 -0.2218  0.2260
 4165TIP3    H133986   4.946   3.862   0.731  0.3514 -2.4521 -0.8248
 4165TIP3    H233987   4.912   3.794   0.862  1.1712  0.1416  0.8247
 4166TIP3   OH233988   1.291   4.940   0.348 -0.3034  0.0761 -0.5002
 4166TIP3    H133989   1.215   4.923   0.293  0.3653 -1.0874 -1.1108
 4166TIP3    H233990   1.300   4.861   0.402 -0.7513  1.0576  1.0767
 4167TIP3   OH233991   4.334   5.812  13.859  0.0481  0.1080 -0.3451
 4167TIP3    H133992   4.320   5.765  13.941 -1.8970 -1.0092 -1.2718
 4167TIP3    H233993   4.339   5.904  13.886  0.6382 -0.3138  1.1318
 4168TIP3   OH233994   6.735   5.752   3.446  0.1459 -0.2035  0.5377
 4168TIP3    H133995   6.757   5.724   3.534 -0.8389  2.7293  1.8514
 4168TIP3    H233996   6.784   5.833   3.433 -0.5508  0.0036 -1.1813
 4169TIP3   OH233997   2.527   2.471   5.207 -0.2453  0.0371  0.5842
 4169TIP3    H133998   2.459   2.499   5.268 -1.7574 -0.5935 -0.7354
 4169TIP3    H233999   2.596   2.537   5.215 -1.1165  0.8287  1.7874
 4170TIP3   OH234000   2.719   1.333  12.699  0.2287 -0.4908 -0.2264
 4170TIP3    H134001   2.639   1.282  12.709  0.2130 -0.3667  0.2937
 4170TIP3    H234002   2.720   1.358  12.607 -2.1470  2.4381  0.3780
 4171TIP3   OH234003   6.652   4.470  15.112 -0.4664 -0.3980 -0.2916
 4171TIP3    H134004   6.702   4.469  15.030  0.3652 -1.2647  0.2105
 4171TIP3    H234005   6.709   4.517  15.173 -0.0323 -1.7723  0.4056
 4172TIP3   OH234006   5.801   5.564  16.931 -0.5416 -0.3035 -0.3262
 4172TIP3    H134007   5.810   5.469  16.936 -0.9641 -0.3050  0.5992
 4172TIP3    H234008   5.886   5.598  16.957 -0.4846 -0.4228 -0.3558
 4173TIP3   OH234009   5.917   4.709   5.374 -0.5139 -0.0857  0.6050
 4173TIP3    H134010   5.846   4.773   5.367  0.8399  1.3091 -1.4341
 4173TIP3    H234011   5.981   4.751   5.431  0.2638  0.3134 -0.5291
 4174TIP3   OH234012   1.904   2.963  12.469 -0.4580  0.1291  0.3327
 4174TIP3    H134013   1.839   2.915  12.418 -0.7603  0.4583  0.4102
 4174TIP3    H234014   1.988   2.933  12.434 -0.6238 -0.9653  0.8280
 4175TIP3   OH234015   0.062   0.804   0.050 -0.2823 -0.0765  0.0677
 4175TIP3    H134016   0.113   0.878   0.018  1.5409  0.2718  3.3005
 4175TIP3    H234017  -0.025   0.840   0.069 -0.0360  0.7314 -0.3055
 4176TIP3   OH234018   5.864   0.808  11.882 -0.3240 -0.5310  0.2997
 4176TIP3    H134019   5.824   0.841  11.962  2.2749  1.0778  1.0507
 4176TIP3    H234020   5.824   0.860  11.812  0.5108  1.1641  1.0343
 4177TIP3   OH234021   0.651   5.347   5.279 -0.1317  0.1931  0.1413
 4177TIP3    H134022   0.620   5.376   5.365  1.1779 -0.7861  0.9857
 4177TIP3    H234023   0.573   5.310   5.237 -0.5705 -0.4137  1.4108
 4178TIP3   OH234024   5.414   3.062  16.903 -0.1201 -0.6009  0.2898
 4178TIP3    H134025   5.474   3.094  16.836 -0.7946 -1.0938 -0.5745
 4178TIP3    H234026   5.401   3.136  16.962  0.7264 -0.2561  0.0496
 4179TIP3   OH234027   0.418   4.669  14.430  0.3537  0.0644  0.5982
 4179TIP3    H134028   0.478   4.594  14.439  0.8807  0.2334 -1.1935
 4179TIP3    H234029   0.332   4.629  14.419  0.5735 -0.2761  0.0687
 4180TIP3   OH234030   5.357   3.177   3.161  0.3584  0.5683 -0.3936
 4180TIP3    H134031   5.274   3.206   3.201 -0.2211  1.8645 -2.3498
 4180TIP3    H234032   5.424   3.205   3.223 -0.6119 -0.1515  1.0519
 4181TIP3   OH234033   5.681   0.644   6.306  0.0672  0.8136 -0.4875
 4181TIP3    H134034   5.765   0.690   6.304  0.4353  0.4271  2.2776
 4181TIP3    H234035   5.703   0.553   6.286  0.2310  0.8011 -0.2496
 4182TIP3   OH234036   6.099   0.652  13.172 -0.5290 -0.5051  0.0750
 4182TIP3    H134037   6.078   0.731  13.122 -1.8142 -0.2530  0.9430
 4182TIP3    H234038   6.089   0.679  13.264 -0.2037 -1.4696  0.4038
 4183TIP3   OH234039   5.297   3.932  15.651  0.0882  0.2106  0.5197
 4183TIP3    H134040   5.329   4.008  15.603  1.1442 -0.3938  0.2397
 4183TIP3    H234041   5.241   3.886  15.589  2.6696 -1.4124 -0.7583
 4184TIP3   OH234042   0.226   2.878   1.848 -0.0595  0.4235  0.2528
 4184TIP3    H134043   0.245   2.879   1.755 -0.5837  0.0654  0.1346
 4184TIP3    H234044   0.132   2.862   1.853 -0.0957  0.7854  0.8352
 4185TIP3   OH234045   0.132   4.203   6.161 -0.4885 -0.5723  0.2328
 4185TIP3    H134046   0.094   4.207   6.249 -0.4270 -1.1379  0.2909
 4185TIP3    H234047   0.062   4.169   6.106 -1.5378  2.5530 -0.5518
 4186TIP3   OH234048   0.137   2.389   3.058  0.5662  0.5725 -0.5035
 4186TIP3    H134049   0.207   2.435   3.011  1.7663  0.2861  0.9285
 4186TIP3    H234050   0.135   2.302   3.018  0.8892  0.6498 -0.6933
 4187TIP3   OH234051   1.369   5.933  16.814  0.1709  0.2760 -0.8169
 4187TIP3    H134052   1.421   5.959  16.891  0.7256  0.8723 -1.3821
 4187TIP3    H234053   1.284   5.906  16.850  0.6838 -0.1952  0.0733
 4188TIP3   OH234054   1.600   3.348  11.869  0.1241 -0.1209  0.1354
 4188TIP3    H134055   1.602   3.342  11.774 -0.1685  0.0683  0.1162
 4188TIP3    H234056   1.617   3.440  11.888  0.5054 -0.2206  0.2783
 4189TIP3   OH234057   6.389   3.216   1.902 -0.0877 -0.2407  0.5125
 4189TIP3    H134058   6.480   3.184   1.897  0.3119  0.5563  2.1393
 4189TIP3    H234059   6.344   3.168   1.833  1.4854 -0.9393 -0.0965
 4190TIP3   OH234060   0.147   0.687   4.837  0.6147  0.0590 -0.4900
 4190TIP3    H134061   0.172   0.595   4.849 -1.6884 -0.3956  1.6319
 4190TIP3    H234062   0.090   0.686   4.761 -2.0639 -0.9585  1.4014
 4191TIP3   OH234063   2.404   4.092  15.296 -0.4100  0.2852  0.2650
 4191TIP3    H134064   2.493   4.129  15.292  0.5819 -1.8694  0.7773
 4191TIP3    H234065   2.352   4.150  15.240  1.8646  0.1879 -2.1824
 4192TIP3   OH234066   5.691   0.627   3.350  0.1396  0.5215 -0.4914
 4192TIP3    H134067   5.668   0.551   3.403 -1.3102  0.2767 -1.3934
 4192TIP3    H234068   5.782   0.645   3.372 -0.2686  0.1840  1.7298
 4193TIP3   OH234069   5.593   5.885   0.213  0.2067  0.2183 -0.2100
 4193TIP3    H134070   5.651   5.813   0.238 -0.0967  0.0062 -0.1128
 4193TIP3    H234071   5.569   5.926   0.296  2.7654  2.3340 -0.3920
 4194TIP3   OH234072   6.338   4.351   1.210 -0.0348  0.0341 -0.7122
 4194TIP3    H134073   6.389   4.348   1.291 -0.1864  1.4150 -0.5462
 4194TIP3    H234074   6.320   4.259   1.190  1.3184 -0.4088 -0.0231
 4195TIP3   OH234075   3.019   3.111  13.204 -0.3563  0.1561  0.3562
 4195TIP3    H134076   3.085   3.080  13.142 -0.2549  1.6052 -0.3051
 4195TIP3    H234077   3.069   3.159  13.270 -0.6359  0.1794  0.5527
 4196TIP3   OH234078   0.989   6.616  11.469 -0.0090  0.0826  0.1523
 4196TIP3    H134079   0.913   6.654  11.424  0.2133  0.3254 -0.0133
 4196TIP3    H234080   0.964   6.524  11.481 -0.4187  0.2063  0.2872
 4197TIP3   OH234081   1.631   5.777   2.296  0.1652 -0.5581  0.1527
 4197TIP3    H134082   1.713   5.801   2.252 -0.1073 -0.3452 -0.2479
 4197TIP3    H234083   1.638   5.817   2.382  1.0731 -1.6870  0.6208
 4198TIP3   OH234084   2.380   4.283  12.130 -0.2576  0.1760  0.9324
 4198TIP3    H134085   2.365   4.293  12.224  2.2104 -0.8861  1.5025
 4198TIP3    H234086   2.329   4.206  12.105 -0.1947 -0.0906  1.6093
 4199TIP3   OH234087   3.714   5.352   2.828 -0.7918  0.2067 -0.4443
 4199TIP3    H134088   3.658   5.430   2.832 -0.0662  0.7026  0.8875
 4199TIP3    H234089   3.788   5.379   2.773 -0.7263  0.3345 -0.2944
 4200TIP3   OH234090   0.764   5.116  12.980  0.1623 -0.2518 -0.3893
 4200TIP3    H134091   0.691   5.058  12.959 -0.2714 -0.4691  1.5210
 4200TIP3    H234092   0.763   5.122  13.076  0.6228  2.3444 -0.4708
 4201TIP3   OH234093   0.981   2.245  10.768 -0.4683  0.5948 -0.1941
 4201TIP3    H134094   0.930   2.211  10.694 -0.5280  0.8979 -0.2947
 4201TIP3    H234095   0.976   2.177  10.834  1.3221 -0.6336 -1.2322
 4202TIP3   OH234096   3.017   4.847   5.362 -0.4055  0.5282  0.1603
 4202TIP3    H134097   2.958   4.844   5.437  0.8311 -0.7966  1.1240
 4202TIP3    H234098   2.969   4.803   5.292 -0.5107 -0.7269  0.9922
 4203TIP3   OH234099   5.590   3.017  13.118 -0.3739  0.8220 -0.0202
 4203TIP3    H134100   5.517   2.954  13.112 -0.3069  0.8501 -1.5116
 4203TIP3    H234101   5.640   3.003  13.037 -0.7569  3.2863 -0.7400
 4204TIP3   OH234102   6.735   3.508  11.109 -0.2107  0.6141 -0.1511
 4204TIP3    H134103   6.777   3.433  11.151 -0.1924  0.5022 -0.3698
 4204TIP3    H234104   6.641   3.496  11.127 -0.3536 -0.1517 -1.2667
 4205TIP3   OH234105   4.614   6.443   4.973  0.4782  0.8006  0.4149
 4205TIP3    H134106   4.679   6.375   4.951 -0.9637 -0.8519  1.0386
 4205TIP3    H234107   4.662   6.505   5.027  1.0956 -1.5072  2.7157
 4206TIP3   OH234108   3.592   1.735  14.234 -0.1130  0.9800 -0.3821
 4206TIP3    H134109   3.596   1.815  14.287  0.1876 -0.2341  1.5423
 4206TIP3    H234110   3.674   1.735  14.185  0.1892  1.5232  0.1114
 4207TIP3   OH234111   0.115   4.729  15.909  0.0216  0.2006 -0.0018
 4207TIP3    H134112   0.102   4.784  15.986 -0.0968 -0.6432  0.5988
 4207TIP3    H234113   0.034   4.678  15.902  0.5727 -0.7283  0.1552
 4208TIP3   OH234114   2.687   3.469   5.030 -0.9754 -0.1087 -0.4486
 4208TIP3    H134115   2.724   3.412   5.097  0.3983 -0.9028 -1.8205
 4208TIP3    H234116   2.600   3.430   5.012 -0.7101 -0.8251 -0.2309
 4209TIP3   OH234117   0.771   4.960  13.557  0.3458  0.2339  0.0196
 4209TIP3    H134118   0.835   4.977  13.487 -1.4691 -0.6145 -1.9600
 4209TIP3    H234119   0.797   4.875  13.593  0.5996  0.0961 -0.4778
 4210TIP3   OH234120   5.750   4.532   4.206  0.2353  0.3556 -0.2515
 4210TIP3    H134121   5.791   4.617   4.223  0.2418  0.2151  0.4859
 4210TIP3    H234122   5.663   4.539   4.246  1.3913 -1.0737  2.9177
 4211TIP3   OH234123   2.533   2.071  13.639  0.0625  0.2310  0.6343
 4211TIP3    H134124   2.509   2.125  13.564 -0.4814 -0.6473  0.1645
 4211TIP3    H234125   2.601   2.122  13.684  1.0811  0.3651 -0.9530
 4212TIP3   OH234126   3.484   4.246   0.868  0.3794 -0.0660 -0.1036
 4212TIP3    H134127   3.408   4.197   0.834 -0.2451  1.0786 -0.4010
 4212TIP3    H234128   3.489   4.324   0.812  0.4911  0.9195  1.2368
 4213TIP3   OH234129   5.114   5.460   1.176 -0.5242 -0.0171 -0.3885
 4213TIP3    H134130   5.086   5.378   1.135  2.9602 -1.0886 -0.8903
 4213TIP3    H234131   5.070   5.528   1.125 -2.5626 -1.4752 -0.7188
 4214TIP3   OH234132   5.475   5.701   1.554  0.6053  0.0535  0.2612
 4214TIP3    H134133   5.550   5.643   1.563  1.4854  1.3505  1.6647
 4214TIP3    H234134   5.454   5.727   1.643 -1.2959  0.0166 -0.1328
 4215TIP3   OH234135   4.848   4.663   6.637 -0.6338  0.4139 -0.9701
 4215TIP3    H134136   4.881   4.574   6.627  3.0912  1.4255  0.4786
 4215TIP3    H234137   4.897   4.715   6.573  0.8141  2.0152  1.2459
 4216TIP3   OH234138   2.243   6.288   3.527  0.3174  0.2888  0.2688
 4216TIP3    H134139   2.286   6.325   3.605  1.7906 -0.1639 -0.2972
 4216TIP3    H234140   2.155   6.325   3.529  0.7735  1.4006  1.3913
 4217TIP3   OH234141   3.210   3.688   5.212  0.2394 -0.0208 -0.0506
 4217TIP3    H134142   3.151   3.617   5.236  1.0863 -0.2811  1.3162
 4217TIP3    H234143   3.294   3.664   5.249  0.4156  1.9909  0.9950
 4218TIP3   OH234144   4.583   6.126   0.953 -0.1086  0.4362  1.3784
 4218TIP3    H134145   4.511   6.066   0.973 -0.3233 -0.0076 -0.5286
 4218TIP3    H234146   4.650   6.071   0.912  0.9517  1.0061  2.2788
 4219TIP3   OH234147   4.407   0.569  15.054  0.2286 -0.7146 -0.2734
 4219TIP3    H134148   4.403   0.474  15.066 -1.9786 -0.5926  0.3425
 4219TIP3    H234149   4.421   0.604  15.142  0.6466 -0.4591 -0.4423
 4220TIP3   OH234150   0.958   2.503  16.940 -0.2260  0.1629  0.3992
 4220TIP3    H134151   0.994   2.449  17.010  0.8442 -1.4863 -1.3433
 4220TIP3    H234152   1.006   2.586  16.947 -0.3639  0.1607  1.7722
 4221TIP3   OH234153   2.222   1.146   4.656 -0.2996  0.0415 -0.0627
 4221TIP3    H134154   2.206   1.121   4.747 -0.0454  0.2774  0.0496
 4221TIP3    H234155   2.135   1.159   4.619 -0.3937  1.1607  0.4930
 4222TIP3   OH234156   2.341   0.627  16.477 -0.4267  0.1523  0.1485
 4222TIP3    H134157   2.411   0.660  16.421  1.8624 -1.6583  1.7190
 4222TIP3    H234158   2.339   0.533  16.458 -2.7332  0.1987 -0.0787
 4223TIP3   OH234159   0.324   4.365   5.792  0.3911  0.3627  0.0155
 4223TIP3    H134160   0.419   4.351   5.797  0.4747  0.1177 -1.5839
 4223TIP3    H234161   0.309   4.390   5.701 -0.9079  1.9234  0.6079
 4224TIP3   OH234162   1.782   2.736   3.940  0.0992  0.0329 -0.2617
 4224TIP3    H134163   1.788   2.819   3.987 -0.3735  0.3460 -0.7517
 4224TIP3    H234164   1.871   2.721   3.907  0.0459  0.6709 -0.7150
 4225TIP3   OH234165   6.139   4.422  11.021 -0.3138 -0.2493  0.5186
 4225TIP3    H134166   6.219   4.381  11.052 -0.4523 -1.1741 -0.2991
 4225TIP3    H234167   6.166   4.510  10.994  0.7248 -0.9647 -0.9541
 4226TIP3   OH234168   0.388   2.101   1.795  0.1832  0.0290 -0.1363
 4226TIP3    H134169   0.392   2.181   1.847  0.8346 -0.0583 -0.0523
 4226TIP3    H234170   0.459   2.046   1.829 -3.1706 -2.7373  3.3692
 4227TIP3   OH234171   6.028   2.643  11.963  0.3516 -0.2361  0.7447
 4227TIP3    H134172   6.022   2.557  12.005 -3.0954 -0.2745  0.5279
 4227TIP3    H234173   5.991   2.703  12.028 -2.3534  0.1446 -0.9794
 4228TIP3   OH234174   4.486   5.507   2.963 -0.1098 -0.2949 -0.1651
 4228TIP3    H134175   4.493   5.414   2.944  0.1697 -0.4124  0.4732
 4228TIP3    H234176   4.576   5.535   2.979 -0.1329  0.2056 -0.8985
 4229TIP3   OH234177   4.772   1.010  12.236  0.9134  0.5543 -0.5814
 4229TIP3    H134178   4.731   0.924  12.239  2.3417 -0.2109 -1.6048
 4229TIP3    H234179   4.705   1.067  12.198  0.1203 -0.2120 -0.3626
 4230TIP3   OH234180   5.043   0.514   4.924  0.1207  0.0989  0.0772
 4230TIP3    H134181   5.002   0.500   4.838 -1.3724  1.5925  0.4769
 4230TIP3    H234182   5.119   0.569   4.906  0.1132 -0.0283 -0.3481
 4231TIP3   OH234183   2.680   1.313   4.647 -0.5441  0.4265 -0.2472
 4231TIP3    H134184   2.766   1.356   4.650 -0.6020  0.5549 -0.4377
 4231TIP3    H234185   2.647   1.320   4.737  0.8722 -2.1452  0.5655
 4232TIP3   OH234186   0.737   6.769   0.492 -0.0294 -0.5480 -0.1108
 4232TIP3    H134187   0.655   6.769   0.443 -0.3232  1.1689  0.3016
 4232TIP3    H234188   0.740   6.684   0.535 -1.3127 -0.8441 -0.5740
 4233TIP3   OH234189   0.769   0.832  10.500 -0.3139  0.5788  0.1951
 4233TIP3    H134190   0.809   0.848  10.585  0.3514 -0.3607  0.0783
 4233TIP3    H234191   0.747   0.739  10.501  0.7715  0.2829 -1.0811
 4234TIP3   OH234192   1.838   6.720  16.685 -0.3226  0.9862  0.1666
 4234TIP3    H134193   1.825   6.795  16.627  1.6763  1.4931  0.3085
 4234TIP3    H234194   1.932   6.719  16.703 -0.5959 -0.3552  1.7961
 4235TIP3   OH234195   2.943   1.422   1.292 -0.5818 -0.1116  0.2729
 4235TIP3    H134196   3.021   1.448   1.341 -0.8019  0.9259  0.0931
 4235TIP3    H234197   2.943   1.479   1.215 -1.0234 -0.7359 -0.2048
 4236TIP3   OH234198   2.293   3.427   5.683  0.6341  0.0904 -0.2639
 4236TIP3    H134199   2.351   3.371   5.632 -0.2366 -0.4400 -0.7001
 4236TIP3    H234200   2.252   3.367   5.746  1.1758  0.6124  0.5994
 4237TIP3   OH234201   3.549   5.517   0.191  0.1412 -0.0889  0.5046
 4237TIP3    H134202   3.569   5.574   0.117 -2.9592 -0.0386 -0.4037
 4237TIP3    H234203   3.506   5.575   0.255 -1.3072 -0.9894  0.3808
 4238TIP3   OH234204   5.317   1.230   1.172  0.5106 -0.0918 -0.2764
 4238TIP3    H134205   5.374   1.161   1.138  0.1569 -0.5979  0.1374
 4238TIP3    H234206   5.240   1.229   1.115 -0.5711 -1.6688  1.1173
 4239TIP3   OH234207   0.343   5.642   5.674 -0.2598 -0.2268 -0.3454
 4239TIP3    H134208   0.317   5.663   5.764 -0.3499 -0.9627 -0.1987
 4239TIP3    H234209   0.345   5.727   5.629  2.4124  0.5599  1.0189
 4240TIP3   OH234210   1.568   4.042   5.070 -0.1714  0.8325 -0.2648
 4240TIP3    H134211   1.566   4.105   4.997  2.1593  0.7730 -0.4530
 4240TIP3    H234212   1.613   4.088   5.140  0.8101 -0.3071 -0.1141
 4241TIP3   OH234213   2.132   2.650   5.801  0.3072 -0.0742 -0.7709
 4241TIP3    H134214   2.201   2.619   5.859 -1.3728  0.4484  1.6778
 4241TIP3    H234215   2.052   2.607   5.832 -1.5001  3.6777  0.4499
 4242TIP3   OH234216   2.496   0.460   4.702  0.1401 -0.5536 -0.1574
 4242TIP3    H134217   2.473   0.508   4.781  2.9209  0.5881  0.0459
 4242TIP3    H234218   2.508   0.369   4.731  0.4660 -0.2725  0.5900
 4243TIP3   OH234219   0.209   3.981   4.032 -0.4721  0.4018  0.0978
 4243TIP3    H134220   0.228   4.038   3.957  0.9589 -1.1547 -0.7970
 4243TIP3    H234221   0.196   4.041   4.105  0.9380  1.8853 -0.7924
 4244TIP3   OH234222   0.699   6.559  14.815  0.1725  0.1047 -0.7349
 4244TIP3    H134223   0.749   6.574  14.735  0.5998  0.2732 -0.4460
 4244TIP3    H234224   0.658   6.474  14.803 -0.2415  0.3921 -1.3717
 4245TIP3   OH234225   4.569   2.107  14.670 -0.2700 -0.2976 -0.5312
 4245TIP3    H134226   4.474   2.112  14.668 -0.1979  2.1408 -1.1233
 4245TIP3    H234227   4.593   2.143  14.756  0.1127 -1.0551 -0.3189
 4246TIP3   OH234228   6.268   2.097   3.378  0.2615  0.1084 -0.0689
 4246TIP3    H134229   6.311   2.024   3.332  0.0515  0.8091 -1.4361
 4246TIP3    H234230   6.328   2.170   3.366  1.4672 -0.2183  2.9937
 4247TIP3   OH234231   2.028   4.855  15.116  0.8078 -0.2113  0.0613
 4247TIP3    H134232   2.028   4.760  15.105  0.8360 -0.0335 -1.7468
 4247TIP3    H234233   1.989   4.869  15.203 -2.1497 -1.7724 -0.8818
 4248TIP3   OH234234   0.465   6.452   2.415  0.2797 -0.3773  0.4698
 4248TIP3    H134235   0.414   6.466   2.495  0.5173  0.3837  0.4983
 4248TIP3    H234236   0.437   6.522   2.357  0.1430 -0.9026 -0.1047
 4249TIP3   OH234237   5.950   4.385  11.600 -0.2028 -0.5603  0.2335
 4249TIP3    H134238   5.946   4.400  11.506  0.9600 -3.3686 -0.3445
 4249TIP3    H234239   5.860   4.363  11.624 -0.7020  1.0927  0.0185
 4250TIP3   OH234240   5.852   1.544   2.517 -0.2000  0.4703  0.2652
 4250TIP3    H134241   5.797   1.567   2.591 -0.4342  0.7503  0.0068
 4250TIP3    H234242   5.795   1.554   2.440 -0.6147 -1.8282  0.1917
 4251TIP3   OH234243   5.277   0.158   1.981  0.2249  0.3228  0.7210
 4251TIP3    H134244   5.225   0.160   1.901  0.3830 -1.0166  0.5591
 4251TIP3    H234245   5.337   0.233   1.972 -0.2839  0.6572 -0.0350
 4252TIP3   OH234246   4.665   6.281  17.302 -0.1948  0.4826 -0.2101
 4252TIP3    H134247   4.570   6.279  17.314 -0.0818  2.7498  1.8642
 4252TIP3    H234248   4.691   6.189  17.301 -2.3519 -0.1947 -0.6382
 4253TIP3   OH234249   6.775   2.464  15.329 -0.0292 -0.1021 -0.2935
 4253TIP3    H134250   6.728   2.422  15.257  0.9047 -3.0021  0.6131
 4253TIP3    H234251   6.848   2.509  15.287  0.5388 -1.7925 -1.2465
 4254TIP3   OH234252   5.988   5.470  14.813 -0.3189 -0.1148 -0.7189
 4254TIP3    H134253   5.933   5.501  14.741  0.3713  0.4538 -1.0201
 4254TIP3    H234254   5.931   5.415  14.865 -1.2052  0.5508 -0.9583
 4255TIP3   OH234255   4.041   1.832  11.216  0.6900 -0.0801 -0.1155
 4255TIP3    H134256   3.965   1.788  11.254  1.2730 -0.9381  0.0571
 4255TIP3    H234257   4.116   1.779  11.242  1.1997 -0.1864 -1.6937
 4256TIP3   OH234258   5.445   2.271  17.206  0.1757  0.3577 -0.6854
 4256TIP3    H134259   5.366   2.221  17.228  0.1594  0.0882 -1.3624
 4256TIP3    H234260   5.443   2.345  17.268 -0.3966  0.1431 -0.4336
 4257TIP3   OH234261   6.516   3.432  13.175  0.0562 -0.3537  0.3872
 4257TIP3    H134262   6.603   3.441  13.135 -0.9076 -0.3363 -1.8096
 4257TIP3    H234263   6.535   3.416  13.268  2.4294 -0.9459 -0.1178
 4258TIP3   OH234264   5.734   4.689   6.013  0.2467  0.4107 -0.1889
 4258TIP3    H134265   5.769   4.748   5.946  2.0833 -0.4053 -0.0143
 4258TIP3    H234266   5.765   4.603   5.987 -0.7276 -0.2119  0.6386
 4259TIP3   OH234267   1.064   4.475  10.984  0.4014  0.0343  0.0971
 4259TIP3    H134268   1.128   4.532  11.026  1.6680 -1.0924 -0.2154
 4259TIP3    H234269   1.114   4.396  10.961 -1.4707 -1.7086  1.5627
 4260TIP3   OH234270   0.236   6.759   1.284 -0.0581  0.2220 -0.0027
 4260TIP3    H134271   0.284   6.689   1.328 -0.7191 -0.3607 -0.1905
 4260TIP3    H234272   0.145   6.746   1.310 -0.5622 -0.4660 -1.9346
 4261TIP3   OH234273   3.010   0.522  11.397  0.6362  0.8339 -0.6543
 4261TIP3    H134274   2.967   0.599  11.361 -3.0941 -0.1001  1.3655
 4261TIP3    H234275   3.012   0.537  11.491  0.4178 -1.2365 -0.2789
 4262TIP3   OH234276   1.975   1.996  15.714  0.2943  0.2533  0.1263
 4262TIP3    H134277   2.037   2.066  15.734  2.9595 -1.3573 -1.8318
 4262TIP3    H234278   1.905   2.007  15.778  1.3432  3.7149  0.8743
 4263TIP3   OH234279   2.171   4.147   5.748 -0.3865  0.1452 -0.3152
 4263TIP3    H134280   2.118   4.221   5.778 -0.8891 -0.0398 -0.7265
 4263TIP3    H234281   2.229   4.128   5.822 -0.5886  0.6342 -0.0218
 4264TIP3   OH234282   0.167   4.284  16.672 -0.5931  0.1196  0.6624
 4264TIP3    H134283   0.200   4.197  16.693  0.0946 -0.0597 -1.0121
 4264TIP3    H234284   0.241   4.329  16.632 -1.3048  1.0331  0.3216
 4265TIP3   OH234285   4.705   2.915   5.062 -0.0162 -0.0477 -0.0268
 4265TIP3    H134286   4.731   2.865   5.139  0.2992  2.7129  1.8136
 4265TIP3    H234287   4.617   2.885   5.041  1.3706 -3.7712 -1.2816
 4266TIP3   OH234288   6.173   6.412  15.688  0.2255  0.4526  0.1886
 4266TIP3    H134289   6.101   6.438  15.745 -2.7650 -0.3010 -2.8860
 4266TIP3    H234290   6.199   6.492  15.644 -0.8768  0.2623 -0.8492
 4267TIP3   OH234291   2.415   6.097   3.676 -0.1018 -0.1964  0.1717
 4267TIP3    H134292   2.432   6.015   3.629 -0.8778 -0.1672 -0.1785
 4267TIP3    H234293   2.319   6.101   3.683 -0.0481  0.4440  0.6127
 4268TIP3   OH234294   6.296   5.428  12.304 -0.0891 -0.1657  0.1541
 4268TIP3    H134295   6.351   5.428  12.382  0.9599 -0.7944 -0.5514
 4268TIP3    H234296   6.316   5.345  12.261 -3.4647 -1.6266  1.1016
 4269TIP3   OH234297   3.976   0.224   4.809 -0.2693  0.5582 -0.4185
 4269TIP3    H134298   3.915   0.235   4.882  0.0283  0.6395 -0.1820
 4269TIP3    H234299   4.012   0.136   4.820 -0.7421  0.3042 -0.8634
 4270TIP3   OH234300   5.271   1.330   6.644  0.1823  0.2720 -0.0057
 4270TIP3    H134301   5.344   1.294   6.694 -0.4207  0.7812  1.2770
 4270TIP3    H234302   5.282   1.425   6.650 -0.5926  0.3570  0.2321
 4271TIP3   OH234303   1.953   2.828  17.394 -0.5602 -0.5037 -0.1540
 4271TIP3    H134304   1.859   2.834  17.375 -0.5217 -0.0979 -0.2345
 4271TIP3    H234305   1.962   2.866  17.481 -0.3318  0.4438 -0.5813
 4272TIP3   OH234306   3.097   5.291   0.297 -0.1890  0.2980  0.2006
 4272TIP3    H134307   3.034   5.343   0.248  0.3942  0.4357 -0.4097
 4272TIP3    H234308   3.076   5.200   0.275  0.6681  0.3809 -1.0818
 4273TIP3   OH234309   4.755   2.401   5.291 -0.2285 -0.5060  0.1054
 4273TIP3    H134310   4.828   2.413   5.351 -0.0047  1.1591 -0.4498
 4273TIP3    H234311   4.777   2.322   5.241  0.3250 -1.0103  1.1218
 4274TIP3   OH234312   5.700   1.212   4.027 -0.1643  0.1871  0.3682
 4274TIP3    H134313   5.785   1.169   4.036 -0.1060 -0.0219 -1.0615
 4274TIP3    H234314   5.642   1.145   3.992 -1.1145  0.1357  1.9399
 4275TIP3   OH234315   5.073   5.736  14.624  0.2843  0.2925  0.2200
 4275TIP3    H134316   5.051   5.726  14.717  2.3264 -0.5037  0.6748
 4275TIP3    H234317   5.062   5.830  14.607  1.5945  0.7938  1.7960
 4276TIP3   OH234318   4.377   4.494   3.196 -0.1479  0.3293  0.0317
 4276TIP3    H134319   4.328   4.450   3.126 -0.9169 -0.8392  1.2394
 4276TIP3    H234320   4.418   4.422   3.245  1.0811  1.1722  0.2790
 4277TIP3   OH234321   6.358   5.337  14.952 -0.0103 -0.0426  0.4240
 4277TIP3    H134322   6.298   5.314  14.881  0.7593  1.4753 -0.7854
 4277TIP3    H234323   6.419   5.262  14.956  0.0134 -0.0940 -0.6209
 4278TIP3   OH234324   3.050   6.749  14.916  0.0335  0.1742 -0.0178
 4278TIP3    H134325   2.992   6.674  14.900  0.3048  0.0575 -0.4649
 4278TIP3    H234326   3.068   6.785  14.829 -0.3760  0.9791  0.2106
 4279TIP3   OH234327   4.486   4.403   7.065  0.3800  0.0280  0.0033
 4279TIP3    H134328   4.526   4.349   6.996  1.3630 -0.2475  0.7692
 4279TIP3    H234329   4.554   4.467   7.087 -0.4215  0.9832 -0.2105
 4280TIP3   OH234330   3.955   3.022   0.785 -0.2029  0.0819  0.3295
 4280TIP3    H134331   4.037   2.974   0.777  0.8506  1.4025  2.5443
 4280TIP3    H234332   3.981   3.113   0.797 -1.7192  0.1471  4.6617
 4281TIP3   OH234333   2.469   0.291  12.198  0.5351  0.3139  0.5961
 4281TIP3    H134334   2.532   0.239  12.149  1.6351  1.6406  0.5309
 4281TIP3    H234335   2.428   0.347  12.133 -1.1489 -0.8820  0.5473
 4282TIP3   OH234336   3.812   2.788   4.469  0.4081  0.4598  0.0333
 4282TIP3    H134337   3.789   2.756   4.557 -1.7645  1.6874 -0.0168
 4282TIP3    H234338   3.736   2.766   4.415  0.7845  1.6558 -1.0187
 4283TIP3   OH234339   5.812   0.883   1.913 -0.0079 -0.6422 -0.3371
 4283TIP3    H134340   5.750   0.816   1.941 -0.7382  0.1440 -0.0325
 4283TIP3    H234341   5.769   0.966   1.933  1.4919 -0.0588  0.6537
 4284TIP3   OH234342   2.657   5.621   2.267 -0.3484  0.3485 -0.1304
 4284TIP3    H134343   2.618   5.563   2.332  0.7312 -0.6071 -0.3046
 4284TIP3    H234344   2.712   5.680   2.318 -1.7006  1.4737  0.0804
 4285TIP3   OH234345   1.588   5.603   4.327  0.4425  0.0980  0.4928
 4285TIP3    H134346   1.682   5.594   4.342  0.4524  0.3142  0.5551
 4285TIP3    H234347   1.568   5.694   4.349  0.1349 -0.0774  0.9580
 4286TIP3   OH234348   0.676   6.497  12.569  0.1966  0.0351  0.1125
 4286TIP3    H134349   0.608   6.453  12.620  1.7154 -0.3999  1.8585
 4286TIP3    H234350   0.628   6.559  12.515 -1.7411 -1.6007 -0.1635
 4287TIP3   OH234351   2.957   3.645   4.622  0.1607  0.0044  0.4791
 4287TIP3    H134352   2.996   3.593   4.692 -0.8186  1.6924  2.3946
 4287TIP3    H234353   2.864   3.648   4.644 -0.2442  0.2736 -1.1460
 4288TIP3   OH234354   2.050   5.629   1.740 -0.0130  0.4277 -0.0164
 4288TIP3    H134355   2.032   5.656   1.831 -1.1376  1.0088 -0.3909
 4288TIP3    H234356   2.050   5.711   1.691  0.5142  0.1063 -0.5640
 4289TIP3   OH234357   4.633   0.280   3.030 -0.3401  0.0189  0.0747
 4289TIP3    H134358   4.616   0.251   2.941 -1.3679  2.0570 -0.4557
 4289TIP3    H234359   4.726   0.261   3.044 -0.4073 -1.2821 -1.0259
 4290TIP3   OH234360   4.539   3.845   2.891 -0.3460 -0.0723 -0.1722
 4290TIP3    H134361   4.477   3.824   2.821 -0.3315  0.7124 -0.4276
 4290TIP3    H234362   4.490   3.901   2.951  0.7089  2.3986 -1.4961
 4291TIP3   OH234363   5.865   1.244   3.212 -0.5954 -0.0977  0.0068
 4291TIP3    H134364   5.879   1.290   3.129  0.4545 -0.6636 -0.1598
 4291TIP3    H234365   5.890   1.307   3.279  1.7227 -0.6362 -0.2471
 4292TIP3   OH234366   2.594   6.731  17.383  0.0751  0.2241  0.0036
 4292TIP3    H134367   2.638   6.699  17.304  0.3541  1.1025 -0.2150
 4292TIP3    H234368   2.664   6.773  17.434 -0.3343  0.8139  0.0890
 4293TIP3   OH234369   2.219   5.094  15.028 -0.2037  0.3315 -0.1792
 4293TIP3    H134370   2.171   5.164  14.984 -2.6619  0.8977  3.0582
 4293TIP3    H234371   2.154   5.024  15.038  1.2541 -1.1138 -0.3584
 4294TIP3   OH234372   0.895   0.583  12.151  0.4355  0.2317 -0.3651
 4294TIP3    H134373   0.805   0.558  12.127  0.9517 -1.3081 -0.7885
 4294TIP3    H234374   0.920   0.648  12.086 -1.0991  2.3565  1.0240
 4295TIP3   OH234375   0.584   4.528   0.779  0.5197  0.0631  0.8920
 4295TIP3    H134376   0.580   4.432   0.772 -0.2849  0.2081 -1.7727
 4295TIP3    H234377   0.510   4.551   0.835  0.0054 -0.8248  0.5974
 4296TIP3   OH234378   5.787   5.918   0.749 -0.3221 -0.6623 -0.8927
 4296TIP3    H134379   5.869   5.905   0.796 -0.9508  0.1471  0.4953
 4296TIP3    H234380   5.779   6.013   0.741 -1.1302 -0.7274 -0.9712
 4297TIP3   OH234381   1.416   1.832   0.748  0.4364  0.0645 -0.2584
 4297TIP3    H134382   1.425   1.925   0.727 -0.0478  0.5538  1.4842
 4297TIP3    H234383   1.463   1.786   0.678  2.3482  1.7095 -0.1464
 4298TIP3   OH234384   1.367   0.352  11.461  0.4133 -0.2868 -0.4801
 4298TIP3    H134385   1.375   0.379  11.552  1.6595 -0.4022 -0.5465
 4298TIP3    H234386   1.324   0.426  11.417  1.0102  0.3186 -0.0566
 4299TIP3   OH234387   0.832   5.804  16.783 -0.0629  0.3340  0.0547
 4299TIP3    H134388   0.779   5.765  16.714 -0.4333 -2.1623  1.6388
 4299TIP3    H234389   0.888   5.866  16.738 -2.6432  1.3611 -2.0060
 4300TIP3   OH234390   5.675   4.949  12.357 -0.5542 -0.3777  0.6142
 4300TIP3    H134391   5.603   4.915  12.305  0.6152 -0.7953 -0.7924
 4300TIP3    H234392   5.735   4.987  12.293  0.3705  0.1804  1.7695
 4301TIP3   OH234393   6.331   4.221  12.717  0.0478  0.5378  0.3557
 4301TIP3    H134394   6.365   4.279  12.785  1.1095  1.5543 -0.9885
 4301TIP3    H234395   6.248   4.261  12.690  0.9950  1.7624 -0.8875
 4302TIP3   OH234396   5.770   2.237  14.737 -1.1522  0.1627  0.1428
 4302TIP3    H134397   5.851   2.195  14.708 -1.1218 -0.8987  1.6360
 4302TIP3    H234398   5.700   2.185  14.696 -1.1338  1.5062 -1.7225
 4303TIP3   OH234399   4.699   0.706   2.145  1.0398  0.1867 -0.6658
 4303TIP3    H134400   4.636   0.695   2.074 -1.2889 -0.2566  1.3014
 4303TIP3    H234401   4.733   0.618   2.162  0.6711  0.0812 -0.4631
 4304TIP3   OH234402   2.667   4.190  15.082  0.0686 -0.7202  0.0836
 4304TIP3    H134403   2.687   4.109  15.035  1.0653 -0.9033  0.7884
 4304TIP3    H234404   2.705   4.259  15.028  1.2545 -0.9336  0.6149
 4305TIP3   OH234405   5.621   1.927   3.361 -0.2732  0.3212 -0.3042
 4305TIP3    H134406   5.689   1.895   3.302 -0.5362 -1.1623  0.1451
 4305TIP3    H234407   5.555   1.857   3.362 -0.0282  0.0460  2.1074
 4306TIP3   OH234408   5.628   1.789  13.230  0.4081  0.6080  0.0693
 4306TIP3    H134409   5.660   1.879  13.228  0.9392  0.4430  0.7583
 4306TIP3    H234410   5.702   1.736  13.200  0.7882  0.2360  1.5705
 4307TIP3   OH234411   3.684   4.028   0.935 -0.4652  0.0085 -0.3360
 4307TIP3    H134412   3.757   4.089   0.944  0.7569 -1.5716  0.8928
 4307TIP3    H234413   3.606   4.083   0.943  0.5218  1.7735 -1.9626
 4308TIP3   OH234414   2.475   5.907   5.717  0.1801 -0.0000  0.3994
 4308TIP3    H134415   2.509   5.921   5.806  1.1524  1.6486 -0.1721
 4308TIP3    H234416   2.536   5.954   5.661 -1.3260  0.3830 -1.0019
 4309TIP3   OH234417   3.607   3.393  15.242 -0.4918  0.4554  0.7202
 4309TIP3    H134418   3.527   3.412  15.192 -1.4048 -1.3455  1.4075
 4309TIP3    H234419   3.673   3.376  15.175 -1.5935 -1.5363  0.0381
 4310TIP3   OH234420   4.646   1.627   3.481 -1.0591 -0.3505  0.4603
 4310TIP3    H134421   4.678   1.549   3.435  1.1363 -0.9484  2.7781
 4310TIP3    H234422   4.602   1.593   3.559 -0.9144  0.6960  1.0212
 4311TIP3   OH234423   2.171   0.253  16.652  0.5473  0.2081  0.2561
 4311TIP3    H134424   2.221   0.311  16.709  0.7629  0.0306  0.2524
 4311TIP3    H234425   2.081   0.262  16.681 -0.1741  3.8774 -2.5512
 4312TIP3   OH234426   3.706   3.462   1.236  0.0801  0.5502  0.6086
 4312TIP3    H134427   3.676   3.377   1.269  0.9146  0.4689  1.1812
 4312TIP3    H234428   3.653   3.477   1.157  0.4164 -0.8250  0.0984
 4313TIP3   OH234429   2.558   0.414  16.627 -0.2776 -0.5147  0.1566
 4313TIP3    H134430   2.539   0.419  16.534  0.6844 -0.9652 -0.0803
 4313TIP3    H234431   2.544   0.322  16.650  2.2112 -1.0577 -0.2059
 4314TIP3   OH234432   2.221   0.301  14.821 -0.1130 -0.2592  0.4215
 4314TIP3    H134433   2.256   0.228  14.770  1.1980  0.5762  0.0747
 4314TIP3    H234434   2.285   0.372  14.809 -1.9944  1.4001 -0.3507
 4315TIP3   OH234435   5.511   3.859  11.896  0.6443  0.0598 -0.5535
 4315TIP3    H134436   5.585   3.842  11.838  0.7058  0.7815 -0.7037
 4315TIP3    H234437   5.443   3.798  11.868  1.1692 -0.5998 -0.4237
 4316TIP3   OH234438   4.880   1.111  16.354 -0.5757  0.3647  0.0843
 4316TIP3    H134439   4.792   1.085  16.381  0.2151 -1.6842  0.8658
 4316TIP3    H234440   4.936   1.090  16.429  0.8078  0.0786 -0.9741
 4317TIP3   OH234441   2.613   0.232  14.292  0.4217  0.1351 -0.1934
 4317TIP3    H134442   2.643   0.205  14.379  0.0186  0.7743  0.1541
 4317TIP3    H234443   2.635   0.159  14.235 -0.0549 -0.6565  0.6032
 4318TIP3   OH234444   4.264   6.317   2.889 -0.4149  0.0193 -0.0158
 4318TIP3    H134445   4.309   6.346   2.968  0.4782 -1.5344  0.0773
 4318TIP3    H234446   4.330   6.269   2.840 -1.1866  0.2314 -1.3183
 4319TIP3   OH234447   6.743   0.206  15.943  0.2880 -0.1000 -0.8556
 4319TIP3    H134448   6.745   0.271  15.873  1.6802  1.1195  0.2355
 4319TIP3    H234449   6.651   0.184  15.954 -0.1735  1.4541 -1.4758
 4320TIP3   OH234450   2.188   1.269   2.378 -0.3383  0.0544 -0.1098
 4320TIP3    H134451   2.177   1.266   2.473 -0.5883  0.3531 -0.1283
 4320TIP3    H234452   2.114   1.321   2.347 -0.0396  0.2929 -0.4324
 4321TIP3   OH234453   5.566   5.246  13.923  0.1481  0.6842 -0.2417
 4321TIP3    H134454   5.545   5.210  13.837  0.3033  0.6185 -0.2526
 4321TIP3    H234455   5.482   5.268  13.961 -0.0615 -0.9977  0.3448
 4322TIP3   OH234456   3.514   3.458   0.604  0.0418  0.3025  0.3067
 4322TIP3    H134457   3.515   3.369   0.639  0.2571 -0.2896 -1.1343
 4322TIP3    H234458   3.462   3.452   0.524  0.1664  1.4547  0.1151
 4323TIP3   OH234459   4.379   5.260   2.002 -0.0958  0.1954  0.2309
 4323TIP3    H134460   4.474   5.267   2.014 -0.2176  0.2047  1.2839
 4323TIP3    H234461   4.364   5.289   1.912  0.8267  0.8501  0.2723
 4324TIP3   OH234462   4.110   6.246  15.449  0.1967  0.1506  0.4171
 4324TIP3    H134463   4.043   6.216  15.387  0.3913  0.7408 -0.0928
 4324TIP3    H234464   4.187   6.191  15.429 -0.0891 -0.4383  0.9155
 4325TIP3   OH234465   6.424   0.926  16.640 -0.0842 -0.2981 -0.1659
 4325TIP3    H134466   6.457   0.946  16.728  0.8521 -0.3132 -0.5057
 4325TIP3    H234467   6.412   1.011  16.599  0.4495 -0.3178 -0.3691
 4326TIP3   OH234468   0.916   4.266  16.411 -0.0944 -0.1699 -0.0426
 4326TIP3    H134469   0.842   4.286  16.353 -1.4103 -1.4165  1.1211
 4326TIP3    H234470   0.903   4.175  16.436  0.8502  0.1073  1.5933
 4327TIP3   OH234471   0.589   0.101   3.889  0.5243 -0.2985  0.0953
 4327TIP3    H134472   0.536   0.032   3.850  1.5509 -0.4829 -1.0454
 4327TIP3    H234473   0.634   0.141   3.814  0.3774  1.2336  0.7973
 4328TIP3   OH234474   5.753   4.425  15.637  0.3326  0.4881  0.1457
 4328TIP3    H134475   5.709   4.342  15.655 -0.8052  1.4128  1.9174
 4328TIP3    H234476   5.702   4.465  15.566  0.0351  0.2765  0.2405
 4329TIP3   OH234477   0.707   0.945   4.453 -0.5154  0.0664  0.0842
 4329TIP3    H134478   0.699   0.947   4.549  0.7998 -0.1477  0.2117
 4329TIP3    H234479   0.775   1.010   4.433  0.4797 -1.1334 -0.5410
 4330TIP3   OH234480   2.943   4.503  14.286  0.0055 -0.1353  0.1102
 4330TIP3    H134481   3.018   4.469  14.238 -0.0852 -1.4432  0.8347
 4330TIP3    H234482   2.923   4.435  14.351  0.1479  1.5621  2.0274
 4331TIP3   OH234483   3.400   5.133   1.456 -0.2873 -0.7390  1.0491
 4331TIP3    H134484   3.432   5.179   1.534 -1.9921 -0.2048  1.4801
 4331TIP3    H234485   3.319   5.091   1.485 -2.1246  1.2037 -0.9010
 4332TIP3   OH234486   1.688   3.211   1.552  0.1812  0.6348 -0.1768
 4332TIP3    H134487   1.618   3.242   1.495 -0.6800  1.9895  1.5328
 4332TIP3    H234488   1.766   3.256   1.519 -0.3170  1.4867 -0.2278
 4333TIP3   OH234489   2.838   4.259   4.172  0.8413 -0.1804  0.5430
 4333TIP3    H134490   2.889   4.179   4.185  0.4825 -0.4267  0.4599
 4333TIP3    H234491   2.798   4.277   4.258 -0.2568 -0.9195  0.2087
 4334TIP3   OH234492   4.365   1.716   4.837 -0.1348 -0.1525  0.2986
 4334TIP3    H134493   4.446   1.753   4.801  0.3359 -0.0928  1.3806
 4334TIP3    H234494   4.314   1.792   4.864 -0.0004 -0.2207  0.7594
 4335TIP3   OH234495   2.219   2.087   4.824 -0.4458  0.3893  0.1745
 4335TIP3    H134496   2.137   2.072   4.779 -0.7443  2.4190 -0.0501
 4335TIP3    H234497   2.200   2.156   4.887  0.6488 -0.4283  1.4687
 4336TIP3   OH234498   3.497   2.126   3.222 -0.7264  0.1150 -0.0869
 4336TIP3    H134499   3.525   2.141   3.132  0.4775  0.2492  0.2818
 4336TIP3    H234500   3.522   2.035   3.240  1.6747  0.8985  0.9649
 4337TIP3   OH234501   2.688   0.597  16.365  0.2150 -0.2014 -0.3152
 4337TIP3    H134502   2.651   0.519  16.324 -1.6449 -0.1488  1.1237
 4337TIP3    H234503   2.668   0.668  16.305 -0.6724 -0.4165 -0.2806
 4338TIP3   OH234504   3.191   3.787   2.098  0.4372  0.4344  0.4045
 4338TIP3    H134505   3.111   3.738   2.077  0.4528  0.6065 -0.0722
 4338TIP3    H234506   3.258   3.747   2.043  1.4550 -1.8763  3.0844
 4339TIP3   OH234507   4.514   6.002   2.343 -0.2698  0.2283 -0.0273
 4339TIP3    H134508   4.564   6.083   2.332 -0.6043  0.4781  0.2606
 4339TIP3    H234509   4.429   6.020   2.303 -0.8749  0.5513  1.3494
 4340TIP3   OH234510   2.809   5.985   0.200 -0.3689  0.0524 -0.0624
 4340TIP3    H134511   2.873   5.971   0.270  0.9363  0.9783 -1.0354
 4340TIP3    H234512   2.727   5.999   0.246  0.2384 -0.4835  1.2431
 4341TIP3   OH234513   3.192   0.201   6.529  0.0430  0.3509  0.2304
 4341TIP3    H134514   3.141   0.129   6.564 -0.9704  0.8440 -0.1884
 4341TIP3    H234515   3.283   0.169   6.530 -0.4982 -1.3723 -1.0265
 4342TIP3   OH234516   5.647   6.681  16.190 -0.5853  0.2105 -0.7663
 4342TIP3    H134517   5.629   6.738  16.264 -0.8589 -1.0271  0.1432
 4342TIP3    H234518   5.612   6.729  16.114  0.7767  2.0338 -0.3233
 4343TIP3   OH234519   3.819   5.199   3.268 -0.1768 -0.1165  0.0098
 4343TIP3    H134520   3.899   5.251   3.254  0.7610 -1.6618 -0.6245
 4343TIP3    H234521   3.779   5.193   3.182 -0.5837  0.0263  0.1878
 4344TIP3   OH234522   1.646   5.272   0.181  0.0929 -0.2840 -0.2140
 4344TIP3    H134523   1.711   5.243   0.116  0.1015 -0.6265 -0.0566
 4344TIP3    H234524   1.612   5.355   0.146  0.0326 -0.5096 -0.6975
 4345TIP3   OH234525   1.921   4.613  12.636 -0.2764  0.2864 -0.0760
 4345TIP3    H134526   1.906   4.708  12.633 -0.4863  0.2343 -0.6882
 4345TIP3    H234527   1.876   4.579  12.559  1.0265 -0.1457 -0.6712
 4346TIP3   OH234528   4.121   2.474   4.568 -0.1869  0.1183  0.5333
 4346TIP3    H134529   4.117   2.502   4.476 -0.0873 -0.6935  0.2712
 4346TIP3    H234530   4.096   2.552   4.618  0.2615  0.7207 -0.1541
 4347TIP3   OH234531   1.136   2.557  12.143 -0.0648  0.6543  0.2205
 4347TIP3    H134532   1.155   2.532  12.234  0.1934  1.9523  0.5473
 4347TIP3    H234533   1.215   2.534  12.094 -0.1957 -0.0293  0.3277
 4348TIP3   OH234534   2.969   5.179   0.783 -0.1242 -0.1186  0.1454
 4348TIP3    H134535   2.992   5.236   0.710  1.3242 -0.3740  0.3809
 4348TIP3    H234536   2.908   5.116   0.745  0.8240 -0.4289 -0.9403
 4349TIP3   OH234537   4.670   5.411  14.026 -0.9931 -0.5416  0.3761
 4349TIP3    H134538   4.741   5.449  13.973 -0.1786 -1.8907  0.4663
 4349TIP3    H234539   4.715   5.362  14.095 -2.0138 -1.5724  0.3400
 4350TIP3   OH234540   0.101   3.368  12.664  0.1278 -0.1817 -0.6333
 4350TIP3    H134541   0.170   3.342  12.725  1.1846  2.7666 -0.4437
 4350TIP3    H234542   0.040   3.419  12.716 -0.3181  0.2224 -1.5302
 4351TIP3   OH234543   6.484   6.756  12.081 -0.6238  0.2050 -0.3030
 4351TIP3    H134544   6.574   6.777  12.055 -0.5466  0.4399  0.1497
 4351TIP3    H234545   6.465   6.673  12.037  0.5446 -0.9263  1.2061
 4352TIP3   OH234546   5.979   5.942   4.438 -0.1472 -0.0654 -0.3179
 4352TIP3    H134547   5.983   5.948   4.343 -0.1288  1.9838 -0.2250
 4352TIP3    H234548   5.889   5.968   4.461  0.2372  0.7965  0.2799
 4353TIP3   OH234549   4.726   2.541  14.197  0.1452  0.0339  0.7086
 4353TIP3    H134550   4.733   2.571  14.106 -2.4720 -2.3875 -0.4525
 4353TIP3    H234551   4.791   2.472  14.205  1.4745  1.2947  1.2531
 4354TIP3   OH234552   5.804   1.290  14.463 -0.3846 -0.4894  0.8181
 4354TIP3    H134553   5.841   1.352  14.526 -0.5234  0.5067 -0.0429
 4354TIP3    H234554   5.879   1.264  14.409 -0.5543 -0.0713  0.3753
 4355TIP3   OH234555   2.559   3.467   0.753 -0.3919 -0.3716  0.4186
 4355TIP3    H134556   2.603   3.491   0.834  1.9922 -1.2304 -0.5273
 4355TIP3    H234557   2.555   3.372   0.755 -1.4331 -0.3531  0.0496
 4356TIP3   OH234558   5.375   6.769   0.963 -0.0760  0.2503 -0.2042
 4356TIP3    H134559   5.355   6.845   0.909  2.2408  1.8751  1.0294
 4356TIP3    H234560   5.360   6.799   1.053  0.5321 -0.8728  0.2965
 4357TIP3   OH234561   6.726   4.915   1.134  0.0929 -0.6619  0.6159
 4357TIP3    H134562   6.807   4.868   1.113  0.0160 -0.3344 -0.4760
 4357TIP3    H234563   6.656   4.852   1.115  0.0184 -0.3312 -0.2460
 4358TIP3   OH234564   0.578   1.919   1.866  0.3508  0.0437 -0.9318
 4358TIP3    H134565   0.508   1.871   1.910  0.9168  1.6978  2.0434
 4358TIP3    H234566   0.656   1.865   1.880  0.3311  0.0386 -0.8373
 4359TIP3   OH234567   3.922   5.932  17.468  0.2870  0.4001 -0.0790
 4359TIP3    H134568   3.842   5.918  17.419 -0.8414  1.3213  1.4155
 4359TIP3    H234569   3.920   5.865  17.537 -0.4591  1.8690  1.4087
 4360TIP3   OH234570   0.906   4.544  12.630  0.4332  0.8803  0.4488
 4360TIP3    H134571   0.899   4.622  12.685  1.8559  0.4357  1.3190
 4360TIP3    H234572   0.970   4.568  12.563 -1.7347  1.6361 -1.5028
 4361TIP3   OH234573   1.083   2.095  16.799  0.1885 -0.5144  0.0628
 4361TIP3    H134574   1.088   2.016  16.852 -0.7663 -0.8759 -0.3542
 4361TIP3    H234575   1.157   2.088  16.738  0.8386 -0.4654  0.8316
 4362TIP3   OH234576   6.027   5.834   4.923 -0.3114 -0.1488 -0.5606
 4362TIP3    H134577   5.944   5.880   4.916 -0.3037 -0.3389 -2.2626
 4362TIP3    H234578   6.093   5.904   4.926 -0.4766 -0.0128  0.2832
 4363TIP3   OH234579   4.952   6.389   0.775  0.0021 -0.1781 -0.1391
 4363TIP3    H134580   4.978   6.348   0.858  0.6417 -0.0723 -0.2770
 4363TIP3    H234581   5.035   6.407   0.731 -0.3367 -0.2475 -0.8112
 4364TIP3   OH234582   0.821   3.948  11.412  0.0112 -0.1029 -0.3000
 4364TIP3    H134583   0.838   3.861  11.376  0.0609  0.7516 -2.5086
 4364TIP3    H234584   0.729   3.965  11.391 -0.4605 -0.2055  1.5218
 4365TIP3   OH234585   1.162   1.136   1.306 -0.4804 -0.6016  0.1373
 4365TIP3    H134586   1.076   1.097   1.292 -0.2596 -0.7088 -1.0767
 4365TIP3    H234587   1.169   1.148   1.401 -1.0228 -2.4381  0.4436
 4366TIP3   OH234588   4.446   4.698   3.590 -0.7108 -0.0329 -0.0458
 4366TIP3    H134589   4.384   4.636   3.628 -0.3315 -0.9132 -0.8305
 4366TIP3    H234590   4.392   4.768   3.554 -1.0838  1.2800  2.7438
 4367TIP3   OH234591   0.003   3.676  15.460  0.0368 -0.6075 -0.2998
 4367TIP3    H134592   0.007   3.723  15.543 -0.0677 -1.1030 -0.0140
 4367TIP3    H234593  -0.091   3.669  15.442 -0.1373  4.1893 -3.1459
 4368TIP3   OH234594   3.144   2.550   3.682 -0.6510 -0.2214 -0.2093
 4368TIP3    H134595   3.188   2.516   3.760  1.2073 -0.7100 -1.4162
 4368TIP3    H234596   3.143   2.476   3.621 -0.4275  0.6502 -1.3032
 4369TIP3   OH234597   2.888   4.737  13.525 -0.2307 -0.2228  0.4104
 4369TIP3    H134598   2.948   4.786  13.580  0.2856 -0.0703 -0.2697
 4369TIP3    H234599   2.940   4.665  13.489  0.0301  0.8113 -1.4408
 4370TIP3   OH234600   5.323   0.780  13.520  0.0151  0.2217 -0.5073
 4370TIP3    H134601   5.348   0.816  13.435 -1.9824 -1.4724 -1.9288
 4370TIP3    H234602   5.238   0.820  13.539  0.1716  0.1366  0.4185
 4371TIP3   OH234603   6.636   4.229  13.235 -0.4208 -0.0901  0.2686
 4371TIP3    H134604   6.590   4.312  13.228 -0.9621 -0.3859  0.2023
 4371TIP3    H234605   6.576   4.173  13.285 -1.5256 -1.4138 -2.3014
 4372TIP3   OH234606   1.141   0.966  15.510 -0.0113 -0.1249  0.0762
 4372TIP3    H134607   1.072   0.969  15.577  1.2126  0.1507  1.3779
 4372TIP3    H234608   1.114   0.896  15.450 -0.3135 -1.5784  1.8238
 4373TIP3   OH234609   3.641   6.295   1.685 -0.4545 -0.2504  0.0349
 4373TIP3    H134610   3.549   6.275   1.671 -0.3808 -1.7110  1.3802
 4373TIP3    H234611   3.684   6.271   1.603 -1.0530 -1.1106 -0.0350
 4374TIP3   OH234612   2.015   3.245   5.479  0.1918 -0.1338 -0.4847
 4374TIP3    H134613   1.951   3.231   5.549 -0.9601 -1.2368 -1.7139
 4374TIP3    H234614   2.097   3.209   5.514 -0.2230 -0.1388  0.5095
 4375TIP3   OH234615   0.111   3.592   1.280 -0.5331 -0.5952  0.0405
 4375TIP3    H134616   0.111   3.546   1.196  0.5985 -0.3997 -0.0830
 4375TIP3    H234617   0.148   3.529   1.342  0.1289 -0.1976  0.0608
 4376TIP3   OH234618   3.026   0.339  12.432  0.7189 -0.3016 -0.7999
 4376TIP3    H134619   3.085   0.414  12.425  0.0910  0.3940  0.8142
 4376TIP3    H234620   3.076   0.273  12.480 -0.1429  0.7404  1.6682
 4377TIP3   OH234621   2.052   2.935   0.168  1.1534  0.2474 -0.7093
 4377TIP3    H134622   2.058   2.852   0.215 -0.7503  0.1821 -0.5094
 4377TIP3    H234623   2.070   3.002   0.235 -2.6435  0.2221  0.5573
 4378TIP3   OH234624   4.400   2.700  13.156 -0.5404 -0.1939  0.0740
 4378TIP3    H134625   4.416   2.623  13.210  0.3922 -0.4367 -0.5367
 4378TIP3    H234626   4.438   2.680  13.071  0.5574  1.2862  0.1739
 4379TIP3   OH234627   0.052   0.573   2.252 -0.0427 -0.1267 -0.4529
 4379TIP3    H134628  -0.028   0.584   2.303 -0.1621  0.2109 -0.7062
 4379TIP3    H234629   0.119   0.621   2.301 -0.4346  1.2889 -1.2512
 4380TIP3   OH234630   2.760   4.234   3.889 -0.0346 -0.2900 -0.3674
 4380TIP3    H134631   2.811   4.234   3.970  0.0206  0.0445 -0.4035
 4380TIP3    H234632   2.720   4.321   3.885 -0.8666 -0.6551 -0.1787
 4381TIP3   OH234633   0.886   3.318  13.519 -0.5433 -0.5527 -0.1062
 4381TIP3    H134634   0.877   3.366  13.601 -1.3979 -0.3636 -0.2939
 4381TIP3    H234635   0.946   3.371  13.466 -1.6215  0.4345 -0.3819
 4382TIP3   OH234636   1.221   4.747   5.706 -0.4462 -0.0832  0.2641
 4382TIP3    H134637   1.208   4.735   5.800  0.4720 -1.9748  0.1939
 4382TIP3    H234638   1.132   4.757   5.670 -0.8305  0.1495  1.2539
 4383TIP3   OH234639   1.930   3.365  13.010  0.3036 -0.2224  0.2649
 4383TIP3    H134640   1.955   3.312  13.085 -1.5788 -1.6222 -0.0016
 4383TIP3    H234641   2.009   3.372  12.957  0.7609 -2.4397  0.5450
 4384TIP3   OH234642   2.620   2.696  12.052  0.2863  0.1103  0.5521
 4384TIP3    H134643   2.639   2.768  12.113 -0.7336  1.2770 -0.4441
 4384TIP3    H234644   2.560   2.639  12.101 -0.5558  1.0556  0.6758
 4385TIP3   OH234645   2.661   1.375  14.870  0.2945  0.0142 -0.1255
 4385TIP3    H134646   2.716   1.440  14.913  0.0689 -0.9607  1.7515
 4385TIP3    H234647   2.575   1.416  14.864  0.8605  1.0748 -1.9601
 4386TIP3   OH234648   1.468   6.700  12.134  0.0238 -0.2275 -0.2845
 4386TIP3    H134649   1.385   6.675  12.174  0.6451 -0.3441  0.9713
 4386TIP3    H234650   1.467   6.796  12.135  0.5149 -0.2074  1.1164
 4387TIP3   OH234651   0.672   2.006  16.986  0.3266  0.0981 -0.2133
 4387TIP3    H134652   0.684   2.100  16.974  1.1717  0.0811  0.3678
 4387TIP3    H234653   0.578   1.996  17.004  0.2617  0.8490 -0.1002
 4388TIP3   OH234654   0.426   6.083   1.112  0.5738  0.4102  0.2679
 4388TIP3    H134655   0.430   6.030   1.192  1.6617  1.3865  0.9007
 4388TIP3    H234656   0.514   6.074   1.073  1.2617  2.7608  1.1221
 4389TIP3   OH234657   2.038   6.139  16.424 -0.2238 -0.0248 -0.0994
 4389TIP3    H134658   1.966   6.136  16.361 -0.1447  1.6796 -0.3193
 4389TIP3    H234659   2.099   6.202  16.387  1.1766 -1.0777  0.3274
 4390TIP3   OH234660   6.705   2.846   1.808  0.4014 -0.1605 -0.6590
 4390TIP3    H134661   6.660   2.879   1.731 -2.8124 -0.5531  0.8683
 4390TIP3    H234662   6.643   2.785   1.848  1.4032  0.8241  2.7881
 4391TIP3   OH234663   6.226   0.011  13.718 -0.8862 -0.1291  0.6124
 4391TIP3    H134664   6.173  -0.051  13.667 -0.1783  0.9825 -1.5962
 4391TIP3    H234665   6.276   0.060  13.653  0.3511  1.1686  2.4238
 4392TIP3   OH234666   5.522   4.214   6.677  0.4353 -0.4084  0.5571
 4392TIP3    H134667   5.558   4.140   6.725 -0.6665 -0.2800  1.6257
 4392TIP3    H234668   5.440   4.235   6.722 -0.7979 -0.4445 -1.5142
 4393TIP3   OH234669   3.031   0.614  15.066  0.6542  0.6178  0.5347
 4393TIP3    H134670   2.945   0.652  15.083 -0.3030 -0.5868 -1.2646
 4393TIP3    H234671   3.082   0.685  15.028 -0.6724  0.5706 -1.5212
 4394TIP3   OH234672   4.027   4.022  13.372  0.1848 -0.4212  0.4671
 4394TIP3    H134673   4.110   3.976  13.374  1.3633  1.0268 -3.8956
 4394TIP3    H234674   3.966   3.962  13.329  1.1403  0.9606 -3.1777
 4395TIP3   OH234675   2.095   5.433  13.360 -0.1546  0.0807  0.5197
 4395TIP3    H134676   2.034   5.368  13.396  0.0774 -1.4420 -1.6237
 4395TIP3    H234677   2.177   5.415  13.405 -0.5361  0.1079  1.2456
 4396TIP3   OH234678   5.965   2.194  11.029  0.4180 -0.2976 -0.0643
 4396TIP3    H134679   6.024   2.129  10.990  1.8938  1.0193 -0.1379
 4396TIP3    H234680   5.913   2.227  10.956  1.2623  0.2074 -0.4552
 4397TIP3   OH234681   3.331   2.247   0.837 -0.1604 -0.2637 -0.0578
 4397TIP3    H134682   3.300   2.278   0.923 -2.8000 -1.0357 -0.6357
 4397TIP3    H234683   3.385   2.318   0.804 -1.7845  1.4838  0.8637
 4398TIP3   OH234684   3.179   6.353   0.102  0.3682  0.1945  0.1324
 4398TIP3    H134685   3.214   6.318   0.184 -2.0507  0.5901  1.4310
 4398TIP3    H234686   3.221   6.438   0.092  1.7531 -0.4595  0.1751
 4399TIP3   OH234687   3.894   2.106  11.897 -0.5240 -0.2426  0.2662
 4399TIP3    H134688   3.851   2.114  11.982 -0.9380  2.6591 -0.1294
 4399TIP3    H234689   3.824   2.116  11.833  0.0724 -0.3175 -0.4139
 4400TIP3   OH234690   4.058   5.664   3.354  0.5305 -0.5150  0.0373
 4400TIP3    H134691   4.150   5.649   3.373  0.8981  0.9291 -0.4207
 4400TIP3    H234692   4.032   5.735   3.413 -0.8680 -2.1756  1.5612
 4401TIP3   OH234693   4.838   2.680  13.317  0.2460 -0.5500 -0.1425
 4401TIP3    H134694   4.784   2.678  13.396 -0.5740 -2.9167 -0.6717
 4401TIP3    H234695   4.798   2.747  13.262  0.3144  0.5193  1.0750
 4402TIP3   OH234696   2.409   2.259   4.701  0.2037 -0.0050  0.8127
 4402TIP3    H134697   2.334   2.206   4.728  1.5109 -1.6291  1.3933
 4402TIP3    H234698   2.431   2.309   4.780  0.5821 -0.5772  1.0760
 4403TIP3   OH234699   5.569   5.001   6.018  0.1323 -0.1397  0.2768
 4403TIP3    H134700   5.511   5.027   6.089  0.7915  2.1913  0.0200
 4403TIP3    H234701   5.514   4.946   5.961 -1.1790  0.2242  1.1544
 4404TIP3   OH234702   3.288   6.000   2.377  0.7913  0.1626 -0.1382
 4404TIP3    H134703   3.264   6.059   2.448  0.4781  0.9453 -0.8722
 4404TIP3    H234704   3.367   6.038   2.339  1.5706 -0.8275  0.4388
 4405TIP3   OH234705   6.627   0.644  12.306  0.1233  0.1990 -0.2095
 4405TIP3    H134706   6.648   0.616  12.217 -0.0000  1.0629 -0.5205
 4405TIP3    H234707   6.540   0.683  12.299 -0.4864 -0.9888  0.5638
 4406TIP3   OH234708   6.590   6.316  14.267 -0.3094  0.2246 -0.1012
 4406TIP3    H134709   6.573   6.282  14.355 -1.0720 -0.0190 -0.3325
 4406TIP3    H234710   6.677   6.282  14.245 -0.2830 -0.0436  0.3991
 4407TIP3   OH234711   6.266   6.682   1.128 -0.2274  0.2809  0.0229
 4407TIP3    H134712   6.241   6.773   1.110 -1.9550  0.0884  1.1977
 4407TIP3    H234713   6.195   6.648   1.183 -0.4537 -2.2568 -1.6461
 4408TIP3   OH234714   1.352   0.987   4.813 -0.2629 -0.1807  0.1231
 4408TIP3    H134715   1.414   0.992   4.885  0.3447 -1.0819 -0.3171
 4408TIP3    H234716   1.332   0.894   4.805 -0.6535 -0.0450 -0.5966
 4409TIP3   OH234717   6.274   3.513   0.937 -0.0762  0.2054 -0.4103
 4409TIP3    H134718   6.270   3.608   0.940 -0.2279  0.1834  0.3488
 4409TIP3    H234719   6.252   3.490   0.847  0.6490  0.9213 -0.7790
 4410TIP3   OH234720   0.287   4.286   2.442 -0.3323 -0.2712 -0.1313
 4410TIP3    H134721   0.331   4.364   2.475  0.9890 -1.8063  1.9622
 4410TIP3    H234722   0.352   4.245   2.384 -0.9918  0.0782 -1.1606
 4411TIP3   OH234723   3.285   3.839   4.270 -0.2155 -0.2081  0.1298
 4411TIP3    H134724   3.258   3.769   4.329 -1.6096 -1.9117 -2.3291
 4411TIP3    H234725   3.316   3.793   4.192 -0.5104  1.9102 -1.3065
 4412TIP3   OH234726   1.366   1.594   4.027  0.2568  0.3478 -0.1661
 4412TIP3    H134727   1.380   1.529   3.959  2.6008  0.5758  0.0178
 4412TIP3    H234728   1.391   1.677   3.986 -0.1606  0.7660  0.4029
 4413TIP3   OH234729   2.532   5.802  13.530  0.0312  0.8887  0.0828
 4413TIP3    H134730   2.584   5.751  13.467 -0.2368  3.6124 -2.6027
 4413TIP3    H234731   2.464   5.742  13.560  1.1385 -1.0048 -0.9944
 4414TIP3   OH234732   0.093   0.180   4.812 -0.4530  0.3010 -0.2192
 4414TIP3    H134733   0.113   0.188   4.718  0.9145  0.9953  0.1132
 4414TIP3    H234734   0.103   0.087   4.830  0.2913  0.3041 -0.5615
 4415TIP3   OH234735   5.133   0.138  12.350 -0.4181 -0.0702  0.1178
 4415TIP3    H134736   5.088   0.161  12.432  1.9431  2.7243  0.7890
 4415TIP3    H234737   5.198   0.073  12.377  2.3200  2.8750  1.2945
 4416TIP3   OH234738   0.249   2.871   1.574 -0.2042 -0.0610  0.7461
 4416TIP3    H134739   0.299   2.790   1.583  0.7860  0.5473  0.8944
 4416TIP3    H234740   0.168   2.845   1.530  0.2385 -1.0747  0.5038
 4417TIP3   OH234741   3.149   6.306   1.697 -0.7728  0.5405 -0.3711
 4417TIP3    H134742   3.214   6.364   1.658 -1.4004 -0.3434 -2.9484
 4417TIP3    H234743   3.075   6.309   1.637 -3.2276  1.5194  2.4415
 4418TIP3   OH234744   2.184   4.870  12.350 -0.2280 -0.1347 -0.7503
 4418TIP3    H134745   2.270   4.852  12.312 -0.2109 -0.0896 -0.7328
 4418TIP3    H234746   2.199   4.876  12.444 -0.5574 -2.0426 -0.5329
 4419TIP3   OH234747   1.405   2.315  13.034  0.1235  0.2721  0.6869
 4419TIP3    H134748   1.352   2.387  13.000  0.5623  0.2524 -0.0788
 4419TIP3    H234749   1.495   2.337  13.007  0.1011 -1.2056 -0.7726
 4420TIP3   OH234750   6.403   3.362  13.685 -0.1797 -0.6724 -0.4583
 4420TIP3    H134751   6.368   3.296  13.746 -1.5961 -0.0304 -0.5206
 4420TIP3    H234752   6.336   3.431  13.685  1.0886  0.5904 -0.6845
 4421TIP3   OH234753   1.940   4.489   4.412  0.0042  0.0456 -0.3143
 4421TIP3    H134754   1.955   4.583   4.407 -0.9217  0.2644  0.7480
 4421TIP3    H234755   2.025   4.452   4.437 -0.4350  1.0061  3.0199
 4422TIP3   OH234756   2.819   0.583  12.922 -0.8481  0.3732 -0.4515
 4422TIP3    H134757   2.780   0.562  12.837 -1.0673  1.6144 -0.6734
 4422TIP3    H234758   2.877   0.657  12.904 -0.3431  0.1862  0.3588
 4423TIP3   OH234759   5.805   3.238   1.607  0.0806 -0.5311  0.6176
 4423TIP3    H134760   5.810   3.170   1.675 -0.6569  0.2895  1.5189
 4423TIP3    H234761   5.852   3.312   1.645 -1.4932  0.3968  0.8106
 4424TIP3   OH234762   1.697   5.507  13.368  0.1046 -0.0056 -0.6811
 4424TIP3    H134763   1.745   5.425  13.378 -0.6002 -0.3246  0.1535
 4424TIP3    H234764   1.644   5.514  13.447 -0.3629  0.9118 -1.0630
 4425TIP3   OH234765   0.992   1.473   4.889 -0.2450  0.2906 -0.5454
 4425TIP3    H134766   0.937   1.539   4.932  0.4908  1.2677 -1.0637
 4425TIP3    H234767   1.051   1.443   4.958  0.1100  0.9492 -0.5520
 4426TIP3   OH234768   6.586   4.664   2.407  0.4947 -0.6480 -0.2176
 4426TIP3    H134769   6.577   4.603   2.480  1.0989 -0.1010  0.3266
 4426TIP3    H234770   6.657   4.628   2.354 -0.1166 -1.1843 -0.6860
 4427TIP3   OH234771   2.627   4.037  13.472 -0.3576  0.0248  0.2717
 4427TIP3    H134772   2.597   4.099  13.538  0.1511  0.1899  0.3488
 4427TIP3    H234773   2.682   3.975  13.519  0.3469  0.3855 -0.0653
 4428TIP3   OH234774   6.403   6.003  12.821  0.4030  0.0913 -0.3960
 4428TIP3    H134775   6.397   5.955  12.904  0.2425  0.2635 -0.3047
 4428TIP3    H234776   6.445   5.943  12.761 -1.7395 -0.9914 -0.8941
 4429TIP3   OH234777   4.160   5.434   5.280 -0.5696  0.1862 -0.2636
 4429TIP3    H134778   4.187   5.372   5.212 -0.1563 -0.8113  0.7838
 4429TIP3    H234779   4.086   5.392   5.323 -1.6819  1.4055 -0.9157
 4430TIP3   OH234780   6.185   0.071  14.039 -0.7785  0.5033  0.0998
 4430TIP3    H134781   6.229  -0.004  14.079 -0.3375  0.5057 -0.3661
 4430TIP3    H234782   6.219   0.073  13.949 -1.8874  0.3813 -0.3382
 4431TIP3   OH234783   6.541   1.441  14.497  0.2864  0.0814  0.2223
 4431TIP3    H134784   6.603   1.433  14.424  0.2903  0.0017  0.2334
 4431TIP3    H234785   6.472   1.377  14.476  0.7602 -0.6206  0.7518
 4432TIP3   OH234786   3.265   3.859  12.814  0.4202 -0.1560 -0.5445
 4432TIP3    H134787   3.181   3.859  12.769  0.8833  0.7854 -1.4270
 4432TIP3    H234788   3.299   3.948  12.805  0.7611 -0.0526  1.2472
 4433TIP3   OH234789   1.690   5.402   5.280  0.1164 -0.1595 -0.1712
 4433TIP3    H134790   1.766   5.382   5.335  0.1643 -1.4188 -0.6442
 4433TIP3    H234791   1.629   5.331   5.298 -1.1907  1.1039  0.5771
 4434TIP3   OH234792   4.671   4.662   2.489  0.3400  0.4558 -0.3156
 4434TIP3    H134793   4.649   4.627   2.402 -0.2010  0.7150 -0.2905
 4434TIP3    H234794   4.612   4.736   2.500  0.0367  0.1029  0.4988
 4435TIP3   OH234795   0.905   3.355  11.485 -0.4281  0.6804 -0.5235
 4435TIP3    H134796   0.900   3.321  11.395 -2.7332 -0.1186 -0.1702
 4435TIP3    H234797   0.820   3.332  11.523  0.1946  1.7336  1.6161
 4436TIP3   OH234798   0.865   1.727  12.275 -0.5247  0.4802 -1.1479
 4436TIP3    H134799   0.933   1.680  12.226 -0.9811 -0.1715 -1.1726
 4436TIP3    H234800   0.785   1.678  12.258 -0.7400  0.3802  0.0488
 4437TIP3   OH234801   0.454   0.767  16.142 -0.7731  0.0290  0.1910
 4437TIP3    H134802   0.510   0.698  16.106 -1.6814 -0.2082 -0.8160
 4437TIP3    H234803   0.367   0.727  16.147 -1.4568  1.2918 -1.0407
 4438TIP3   OH234804   3.108   3.277   0.965  0.3242  0.3614  0.0926
 4438TIP3    H134805   3.065   3.225   0.897 -0.3258  1.3361 -0.2682
 4438TIP3    H234806   3.195   3.237   0.974  0.5986  0.4524 -1.6344
 4439TIP3   OH234807   3.375   6.740   4.089  0.6209 -0.4953 -0.2142
 4439TIP3    H134808   3.330   6.767   4.168  0.8714  2.0108 -0.8409
 4439TIP3    H234809   3.308   6.743   4.020  1.3710  2.0526 -0.9208
 4440TIP3   OH234810   3.445   3.870   2.197 -0.0747 -0.0280  0.7575
 4440TIP3    H134811   3.512   3.870   2.265 -0.1580 -2.7625  0.9124
 4440TIP3    H234812   3.367   3.835   2.241 -0.4607 -0.7041 -0.4290
 4441TIP3   OH234813   2.735   3.942   5.184 -0.0053 -0.4917 -0.0636
 4441TIP3    H134814   2.750   3.854   5.151 -0.9096 -0.1975 -1.3084
 4441TIP3    H234815   2.640   3.953   5.182 -0.0505 -0.1368  1.8623
 4442TIP3   OH234816   3.951   2.549   0.045  0.2991 -0.1113  0.3673
 4442TIP3    H134817   3.866   2.592   0.054 -0.7479 -1.9755 -0.0380
 4442TIP3    H234818   3.947   2.505  -0.040  1.5009 -0.5802  0.5290
 4443TIP3   OH234819   5.144   3.045   6.494  0.4423 -0.0074 -0.4728
 4443TIP3    H134820   5.058   3.046   6.537  0.6131  0.2768 -0.1256
 4443TIP3    H234821   5.200   2.995   6.554  0.5366 -0.1286 -0.6618
 4444TIP3   OH234822   5.310   6.202  16.615 -0.7023 -0.3731  0.3185
 4444TIP3    H134823   5.362   6.130  16.580 -0.7608 -0.3941  0.2768
 4444TIP3    H234824   5.237   6.212  16.553 -0.5912 -0.1528  0.2219
 4445TIP3   OH234825   1.754   2.477  16.528 -0.0893  0.1837 -0.3233
 4445TIP3    H134826   1.742   2.490  16.434  0.1265  0.9911 -0.2417
 4445TIP3    H234827   1.753   2.382  16.539  0.2451  0.0731 -1.1920
 4446TIP3   OH234828   6.560   2.920   2.178 -0.1600  1.0515 -0.1026
 4446TIP3    H134829   6.481   2.894   2.131  0.3706  0.4921 -0.6978
 4446TIP3    H234830   6.555   2.872   2.261 -0.0746  0.4459 -0.4469
 4447TIP3   OH234831   4.713   4.539  14.270 -0.1399 -0.1485  0.4592
 4447TIP3    H134832   4.800   4.568  14.299 -0.0461 -0.0180  0.0645
 4447TIP3    H234833   4.653   4.607  14.299  0.0925  0.5059 -0.5482
 4448TIP3   OH234834   4.528   1.340   0.977  0.3610  0.6260 -0.3922
 4448TIP3    H134835   4.461   1.382   1.032 -1.5847  0.1154 -2.2000
 4448TIP3    H234836   4.595   1.407   0.966 -1.0010  2.0553 -0.3986
 4449TIP3   OH234837   4.940   0.026  12.585  0.0896  0.3571 -0.2877
 4449TIP3    H134838   4.959  -0.052  12.533 -1.3513  0.5830 -1.2235
 4449TIP3    H234839   4.960   0.001  12.675  0.4418 -0.8091 -0.6737
 4450TIP3   OH234840   0.294   4.047  17.412 -0.5518  0.2691 -0.0113
 4450TIP3    H134841   0.313   3.961  17.376  0.9378  0.2535  0.7523
 4450TIP3    H234842   0.230   4.085  17.351  0.1118 -0.6703 -1.3353
 4451TIP3   OH234843   3.100   1.705  15.120 -0.1611  0.2093  0.3536
 4451TIP3    H134844   3.157   1.771  15.159 -0.4590  0.0481  1.0680
 4451TIP3    H234845   3.040   1.754  15.065  0.2005  0.4465  0.1665
 4452TIP3   OH234846   0.696   3.563   1.115  0.1946  0.0881 -0.3846
 4452TIP3    H134847   0.628   3.628   1.099  0.8996  0.9331 -0.0692
 4452TIP3    H234848   0.766   3.586   1.054  0.9231  0.3644  0.5303
 4453TIP3   OH234849   6.578   3.439   0.711  0.1034 -0.3539 -0.0699
 4453TIP3    H134850   6.576   3.354   0.754 -0.9922  0.3486  1.3241
 4453TIP3    H234851   6.528   3.426   0.630  0.2898 -1.1244 -0.0699
 4454TIP3   OH234852   0.313   2.823   2.949 -0.0936 -0.3144  0.1040
 4454TIP3    H134853   0.365   2.868   2.882  1.3914  0.0356  1.4250
 4454TIP3    H234854   0.225   2.819   2.912  0.6014  0.1399 -1.7234
 4455TIP3   OH234855   5.994   5.443   1.091  0.0036  0.4739  0.2563
 4455TIP3    H134856   5.911   5.439   1.045  0.7467  1.1068 -1.2230
 4455TIP3    H234857   5.972   5.433   1.183 -1.6822  0.4765 -0.1273
 4456TIP3   OH234858   4.797   2.042  14.955  0.6623  0.8911  0.1440
 4456TIP3    H134859   4.790   1.986  15.032 -0.3659  1.4197  0.4599
 4456TIP3    H234860   4.729   2.108  14.967  0.2910  0.8270 -1.3540
 4457TIP3   OH234861   2.888   6.499   2.588 -0.0975  0.0728  0.5224
 4457TIP3    H134862   2.961   6.468   2.642 -0.3115  0.3154  0.9598
 4457TIP3    H234863   2.924   6.506   2.500  0.6180  0.9297  0.8688
 4458TIP3   OH234864   1.862   1.861  10.712  0.1064 -0.4987 -0.3481
 4458TIP3    H134865   1.932   1.812  10.669  1.4410 -0.8263  2.0756
 4458TIP3    H234866   1.799   1.795  10.738  0.0735 -0.4750 -0.3663
 4459TIP3   OH234867   1.695   0.317  14.644  0.1161 -0.0524  0.4621
 4459TIP3    H134868   1.783   0.302  14.610 -0.3634  0.2842 -0.9809
 4459TIP3    H234869   1.709   0.363  14.727  1.2969  0.9768 -0.2671
 4460TIP3   OH234870   0.085   1.681  11.896 -0.2636 -0.2738  0.5705
 4460TIP3    H134871   0.100   1.590  11.870  1.1311  0.0517  0.1435
 4460TIP3    H234872   0.133   1.732  11.831 -2.2721  0.8663 -0.1314
 4461TIP3   OH234873   3.473   1.395  11.849 -0.4186  0.0834 -0.0434
 4461TIP3    H134874   3.462   1.456  11.776 -0.5461 -0.1042 -0.1845
 4461TIP3    H234875   3.499   1.313  11.807 -1.5638 -0.3276  0.0236
 4462TIP3   OH234876   1.469   5.514  14.071  0.2619  0.3326 -0.3051
 4462TIP3    H134877   1.446   5.423  14.089  2.6589 -0.7970 -2.3959
 4462TIP3    H234878   1.471   5.555  14.158 -2.3006 -1.1488  0.5719
 4463TIP3   OH234879   3.450   1.898  13.626 -0.0405 -0.4000 -0.5655
 4463TIP3    H134880   3.468   1.984  13.586 -2.7655  0.0256 -1.1330
 4463TIP3    H234881   3.390   1.918  13.698 -0.5881 -1.8038 -0.6072
 4464TIP3   OH234882   1.917   2.637   0.836  0.2847  0.0557  0.8664
 4464TIP3    H134883   1.966   2.649   0.754  1.3065 -0.4104  1.3903
 4464TIP3    H234884   1.826   2.652   0.811  0.3666 -1.7120 -0.7304
 4465TIP3   OH234885   3.086   0.476   0.425  0.3019  0.7111  0.1897
 4465TIP3    H134886   3.149   0.449   0.492  0.0975 -0.0552  0.0744
 4465TIP3    H234887   3.026   0.402   0.417  0.4141  0.7417 -0.9600
 4466TIP3   OH234888   5.736   4.198   5.286 -0.3355  0.0366  0.3302
 4466TIP3    H134889   5.660   4.162   5.238 -0.2585 -0.5459  0.6359
 4466TIP3    H234890   5.783   4.121   5.317  0.1799  0.4045  0.4679
 4467TIP3   OH234891   0.046   2.130   2.396 -0.7094  0.1233 -0.3330
 4467TIP3    H134892   0.033   2.144   2.490 -0.5687  0.4788 -0.3637
 4467TIP3    H234893   0.042   2.218   2.358  1.7665  0.3150 -0.3326
 4468TIP3   OH234894   4.402   4.927  14.077  0.1187 -0.1531  0.4489
 4468TIP3    H134895   4.354   5.010  14.082  0.8529  0.5390 -2.3433
 4468TIP3    H234896   4.346   4.871  14.022  1.8101  0.2615 -1.8503
 4469TIP3   OH234897   0.262   4.458   1.919  0.0972 -0.3250 -0.5910
 4469TIP3    H134898   0.176   4.430   1.951  0.8536 -0.7053  1.2008
 4469TIP3    H234899   0.270   4.549   1.948  0.4704 -0.4136 -0.4209
 4470TIP3   OH234900   2.504   4.891   1.480 -0.2131  0.3293  0.0728
 4470TIP3    H134901   2.581   4.849   1.519  0.0877 -0.2547 -1.0785
 4470TIP3    H234902   2.440   4.820   1.471  0.2497  0.0689 -1.7603
 4471TIP3   OH234903   4.795   5.475  14.663 -0.0231  0.4260 -0.2021
 4471TIP3    H134904   4.831   5.390  14.636  0.6114  0.8607 -0.7313
 4471TIP3    H234905   4.802   5.530  14.585  0.5803  1.2954  0.4459
 4472TIP3   OH234906   5.654   0.457   5.694 -0.0807 -0.1132  0.0041
 4472TIP3    H134907   5.714   0.384   5.677 -0.3760 -0.5241  0.6778
 4472TIP3    H234908   5.712   0.533   5.705  0.1464  0.2764 -2.9715
 4473TIP3   OH234909   3.539   6.093  16.890  0.0166  0.1264 -0.4104
 4473TIP3    H134910   3.467   6.133  16.939 -0.0716  2.4362 -2.2642
 4473TIP3    H234911   3.582   6.036  16.954 -0.8238  2.0218  2.0149
 4474TIP3   OH234912   5.039   4.450  16.215 -0.0631  0.1331 -0.1684
 4474TIP3    H134913   5.055   4.357  16.231  1.4643  0.3324 -0.3740
 4474TIP3    H234914   5.118   4.494  16.247 -0.5444  1.3166 -0.5407
 4475TIP3   OH234915   4.760   5.626  12.868 -0.3117  0.0662  0.4710
 4475TIP3    H134916   4.761   5.631  12.963  1.4766  0.5228  0.4714
 4475TIP3    H234917   4.739   5.535  12.848  0.7720 -0.4014  1.3593
 4476TIP3   OH234918   4.676   3.982  15.470  0.1510 -0.3669 -0.0953
 4476TIP3    H134919   4.687   3.923  15.396 -0.0204 -0.2349 -0.2289
 4476TIP3    H234920   4.591   3.958  15.508  1.5181 -2.4190  1.8818
 4477TIP3   OH234921   3.803   6.411  11.269 -0.8380 -0.2301  0.4047
 4477TIP3    H134922   3.861   6.467  11.321 -0.2164 -0.6636  0.1907
 4477TIP3    H234923   3.838   6.415  11.180 -0.6177 -1.1727  0.4377
 4478TIP3   OH234924   5.069   6.529  15.691 -0.1494  0.0746 -0.1180
 4478TIP3    H134925   5.084   6.442  15.657  1.6301  1.3350 -2.8763
 4478TIP3    H234926   4.990   6.560  15.646 -0.2205  0.2517  0.1193
 4479TIP3   OH234927   5.691   4.789  17.091  0.5780 -1.1920 -0.9438
 4479TIP3    H134928   5.742   4.709  17.102  2.2789  0.0590  1.1317
 4479TIP3    H234929   5.606   4.759  17.059  1.4142 -3.7299 -1.0069
 4480TIP3   OH234930   4.614   6.459   5.828  0.0088 -0.2679 -0.0355
 4480TIP3    H134931   4.566   6.479   5.909 -0.1460 -2.0087  0.3446
 4480TIP3    H234932   4.565   6.386   5.789  2.0500 -1.7674  0.0956
 4481TIP3   OH234933   4.797   5.286  13.447  0.3551 -0.0962  0.1145
 4481TIP3    H134934   4.738   5.300  13.373 -0.0216  0.6172  0.5438
 4481TIP3    H234935   4.856   5.361  13.444 -0.9136  1.0266  1.7166
 4482TIP3   OH234936   1.745   3.499   5.296 -0.1339 -0.8205  0.0672
 4482TIP3    H134937   1.837   3.510   5.321 -0.1741 -1.3168  0.4516
 4482TIP3    H234938   1.739   3.537   5.209 -0.2673  2.1367  1.2708
 4483TIP3   OH234939   0.055   1.927   4.879  0.2922 -0.1799  0.0017
 4483TIP3    H134940   0.071   1.837   4.909  1.1846  0.6820  2.4160
 4483TIP3    H234941   0.011   1.918   4.795  0.0858 -2.8701  0.3290
 4484TIP3   OH234942   6.006   1.840   1.856 -0.2276  0.7435  0.0618
 4484TIP3    H134943   5.919   1.839   1.817  0.5976 -1.9533 -1.9872
 4484TIP3    H234944   6.052   1.910   1.808 -0.4345  0.1903 -0.9763
 4485TIP3   OH234945   2.861   6.076  12.451 -0.4845 -0.2970  0.0224
 4485TIP3    H134946   2.814   6.141  12.398  0.9118  0.0594 -0.8251
 4485TIP3    H234947   2.891   6.011  12.387 -0.4738 -0.9176  0.6538
 4486TIP3   OH234948   0.553   3.911  14.874  0.4720 -0.3047  0.0952
 4486TIP3    H134949   0.554   3.911  14.970  0.9561 -1.6586  0.1070
 4486TIP3    H234950   0.461   3.915  14.851  0.3493 -0.0244  0.6195
 4487TIP3   OH234951   5.866   3.174  13.240 -0.0792  0.1360  0.1270
 4487TIP3    H134952   5.851   3.243  13.305  2.5403 -0.1530  1.1704
 4487TIP3    H234953   5.792   3.115  13.250  0.0106  0.3290  2.5903
 4488TIP3   OH234954   1.477   0.561  10.672 -1.0037  0.0287 -0.5896
 4488TIP3    H134955   1.489   0.478  10.625 -0.2884 -0.4438  0.3939
 4488TIP3    H234956   1.535   0.623  10.628 -0.1252 -0.4799 -0.1506
 4489TIP3   OH234957   1.313   2.872  14.806  0.0315  0.4573  0.0150
 4489TIP3    H134958   1.323   2.802  14.742  0.0512  1.0596 -0.6514
 4489TIP3    H234959   1.220   2.895  14.802  0.5038  2.3583 -1.8295
 4490TIP3   OH234960   2.470   3.891   3.044 -0.0177  0.0472  0.6022
 4490TIP3    H134961   2.401   3.879   3.109 -0.3866 -1.6375 -0.0520
 4490TIP3    H234962   2.549   3.908   3.096 -0.2560 -1.5218  1.5637
 4491TIP3   OH234963   1.899   5.785   3.350 -0.0092 -0.1038 -0.9310
 4491TIP3    H134964   1.986   5.821   3.365 -0.5924  0.4576  1.4516
 4491TIP3    H234965   1.839   5.852   3.380 -1.2331 -1.1607 -0.9125
 4492TIP3   OH234966   3.383   3.826   0.129 -0.3580 -0.4260 -0.1853
 4492TIP3    H134967   3.306   3.808   0.182 -0.5078 -0.9487 -0.5700
 4492TIP3    H234968   3.425   3.902   0.171 -1.1738 -0.0242 -0.0798
 4493TIP3   OH234969   6.544   1.382   4.469  0.4668  0.1309  0.0638
 4493TIP3    H134970   6.638   1.370   4.454  0.3140 -0.0922 -0.7882
 4493TIP3    H234971   6.525   1.330   4.548  0.8475 -0.7728 -0.4290
 4494TIP3   OH234972   6.150   0.939   5.602 -0.1185 -0.1223  0.4161
 4494TIP3    H134973   6.233   0.967   5.565 -0.8594 -0.5921 -1.7928
 4494TIP3    H234974   6.102   1.020   5.617 -0.2283  0.0666 -0.8347
 4495TIP3   OH234975   2.535   3.645  13.319 -0.0222  0.3772  0.0060
 4495TIP3    H134976   2.546   3.576  13.385 -1.8891  0.8945  0.9513
 4495TIP3    H234977   2.614   3.641  13.266  0.9039 -1.0174  1.4034
 4496TIP3   OH234978   6.513   3.284  16.350  0.3122 -0.2619 -0.4187
 4496TIP3    H134979   6.583   3.301  16.286  0.4135 -0.2418 -0.3020
 4496TIP3    H234980   6.440   3.338  16.321  0.5399  0.1601 -0.2083
 4497TIP3   OH234981   5.563   3.424  17.170 -0.0342 -0.5693  0.2319
 4497TIP3    H134982   5.513   3.461  17.097  1.1915 -1.5755 -1.1873
 4497TIP3    H234983   5.572   3.496  17.232  1.8304  1.4840 -2.2001
 4498TIP3   OH234984   1.875   1.859  16.111 -0.0741 -0.3850 -0.0455
 4498TIP3    H134985   1.898   1.827  16.199 -2.0203 -1.6776  0.0405
 4498TIP3    H234986   1.845   1.949  16.126 -1.8905 -1.1075  0.8894
 4499TIP3   OH234987   0.394   4.004   5.597 -0.3583  0.4184  0.4272
 4499TIP3    H134988   0.364   3.961   5.517 -2.2653  0.2577  1.1692
 4499TIP3    H234989   0.315   4.045   5.633  1.0354  2.9700  0.7375
 4500TIP3   OH234990   4.276   5.106  14.711 -0.0477 -0.0003  0.2498
 4500TIP3    H134991   4.292   5.120  14.804  1.4612  0.0554  0.0086
 4500TIP3    H234992   4.362   5.116  14.670 -0.3225 -1.8936 -0.9209
 4501TIP3   OH234993   6.024   1.120   3.424  0.1695  0.3699  0.3987
 4501TIP3    H134994   5.984   1.123   3.510  0.7193  1.7122  0.6325
 4501TIP3    H234995   5.963   1.166   3.367 -0.9468 -1.8120 -0.3170
 4502TIP3   OH234996   1.268   2.755   4.761 -0.5304 -0.4489  0.0349
 4502TIP3    H134997   1.248   2.809   4.684  0.0070 -0.1255  0.1181
 4502TIP3    H234998   1.188   2.756   4.812 -0.2981  0.9054  0.4129
 4503TIP3   OH234999   3.316   3.108  16.261 -0.2357 -0.5190  0.5067
 4503TIP3    H135000   3.272   3.072  16.183  1.5440 -0.6176 -0.5089
 4503TIP3    H235001   3.345   3.195  16.234 -0.9403  0.0724  1.6042
 4504TIP3   OH235002   0.558   1.029  13.582  0.4012  0.3954  0.3378
 4504TIP3    H135003   0.534   1.118  13.607 -0.2887  0.0962  0.7572
 4504TIP3    H235004   0.476   0.989  13.553  0.7669 -0.0082 -0.1589
 4505TIP3   OH235005   5.559   2.723  14.041  0.0179 -0.5660 -0.4400
 4505TIP3    H135006   5.565   2.692  14.131  0.8653 -2.0807 -0.9902
 4505TIP3    H235007   5.551   2.818  14.049  1.7566 -0.5018  1.1874
 4506TIP3   OH235008   0.620   1.041  11.635  0.1635  0.1860 -0.5246
 4506TIP3    H135009   0.627   0.970  11.698 -0.0517 -0.3343 -1.0700
 4506TIP3    H235010   0.707   1.080  11.632  0.5503 -0.6813 -0.9292
 4507TIP3   OH235011   2.726   3.356  15.373 -0.0850  0.3576 -0.6965
 4507TIP3    H135012   2.748   3.296  15.301  0.6518  0.2781 -0.4168
 4507TIP3    H235013   2.667   3.306  15.429 -0.5102  0.3533 -1.1438
 4508TIP3   OH235014   3.295   0.765  16.561 -0.0235  0.4034 -0.2761
 4508TIP3    H135015   3.324   0.772  16.470  0.2903  1.4924 -0.1024
 4508TIP3    H235016   3.364   0.809  16.611 -1.7962  2.8665  0.1891
 4509TIP3   OH235017   3.917   6.554  14.256  0.4371  0.0178  0.0884
 4509TIP3    H135018   3.880   6.641  14.242 -0.3798 -0.4397 -0.8065
 4509TIP3    H235019   3.999   6.554  14.207 -1.0952 -0.6828 -2.7276
 4510TIP3   OH235020   3.096   0.320   0.779  0.0427  0.0086  0.1712
 4510TIP3    H135021   3.186   0.319   0.810  0.5662 -3.3359 -1.0314
 4510TIP3    H235022   3.043   0.325   0.859  1.2077  1.9028  0.8954
 4511TIP3   OH235023   5.859   5.890   2.746  0.1008  0.3793 -0.0026
 4511TIP3    H135024   5.816   5.814   2.707  3.0866 -0.6826 -1.5945
 4511TIP3    H235025   5.887   5.943   2.672 -0.1215  2.0011  1.0180
 4512TIP3   OH235026   2.143   5.885   5.505 -0.1558 -0.0698 -0.1976
 4512TIP3    H135027   2.175   5.907   5.592 -0.6083 -1.6356  0.3883
 4512TIP3    H235028   2.068   5.827   5.520 -0.7063  0.2185 -1.6139
 4513TIP3   OH235029   4.625   0.555  10.496  0.5656  0.3655  0.1638
 4513TIP3    H135030   4.687   0.628  10.501  1.4938 -0.2550 -1.4356
 4513TIP3    H235031   4.659   0.491  10.559 -0.7557  1.6071  2.2370
 4514TIP3   OH235032   3.057   3.370   6.386  0.2525 -0.0170  0.0857
 4514TIP3    H135033   3.072   3.450   6.337 -0.1081 -0.6842 -1.1433
 4514TIP3    H235034   3.133   3.315   6.366 -0.9652 -1.1858 -1.6113
 4515TIP3   OH235035   6.463   0.012   2.711 -0.6785 -0.4826  0.3592
 4515TIP3    H135036   6.434  -0.034   2.790  0.3244 -1.8500 -0.0432
 4515TIP3    H235037   6.415  -0.030   2.640  0.1778 -0.8660 -0.0048
 4516TIP3   OH235038   5.010   1.310  14.578 -0.0525  0.4477 -0.7477
 4516TIP3    H135039   5.034   1.369  14.650 -1.1353  0.0180 -0.0037
 4516TIP3    H235040   5.092   1.265  14.556  0.3688  0.8271  0.0045
 4517TIP3   OH235041   4.150   4.160   1.711 -0.9940  0.0185 -0.4502
 4517TIP3    H135042   4.075   4.210   1.677 -0.2953  1.9493  0.7032
 4517TIP3    H235043   4.227   4.205   1.677 -0.3285  0.2946  1.3059
 4518TIP3   OH235044   3.584   1.663   5.613  0.3564 -0.0555 -0.3532
 4518TIP3    H135045   3.532   1.595   5.570  1.5681 -0.1080 -1.7938
 4518TIP3    H235046   3.600   1.628   5.701 -1.0053 -0.5548 -0.2707
 4519TIP3   OH235047   3.303   4.948   0.168  0.6413  0.1130 -0.3744
 4519TIP3    H135048   3.338   4.951   0.258  0.7854  0.1280 -0.4297
 4519TIP3    H235049   3.209   4.962   0.178  0.5049 -0.9431 -0.1412
 4520TIP3   OH235050   5.988   1.538   1.716  0.1551  0.3687 -0.2434
 4520TIP3    H135051   5.905   1.525   1.670 -0.6105  0.0302  1.1877
 4520TIP3    H235052   6.042   1.586   1.653 -0.5693 -0.7376 -1.7844
 4521TIP3   OH235053   6.290   0.532   1.033  0.5860 -0.6490  0.5687
 4521TIP3    H135054   6.303   0.592   0.960 -0.0008  1.4127  2.0699
 4521TIP3    H235055   6.313   0.584   1.111 -0.1316 -2.3198  1.9526
 4522TIP3   OH235056   6.286   0.837  15.705  0.2307  0.8229 -0.3647
 4522TIP3    H135057   6.283   0.932  15.708  2.8095  1.1018 -2.4005
 4522TIP3    H235058   6.253   0.815  15.618  1.1816  0.0246 -0.5430
 4523TIP3   OH235059   0.830   6.636  13.123 -0.0582 -0.2522 -0.4444
 4523TIP3    H135060   0.746   6.618  13.081  0.5934 -0.4972 -1.6934
 4523TIP3    H235061   0.808   6.689  13.200 -1.2641  0.6511 -1.3825
 4524TIP3   OH235062   1.141   0.856  14.395 -0.3821  0.2654  0.0608
 4524TIP3    H135063   1.166   0.769  14.425  0.7117  0.0104 -1.4615
 4524TIP3    H235064   1.090   0.840  14.315 -1.0348  0.9934  0.3180
 4525TIP3   OH235065   6.090   4.169   2.016 -0.3318 -0.3251  0.3148
 4525TIP3    H135066   6.118   4.078   2.025  2.8952  0.5367  0.3472
 4525TIP3    H235067   6.172   4.219   2.015 -1.8966  2.4609 -1.2637
 4526TIP3   OH235068   4.626   5.170   4.159  0.0327 -0.0951  0.0367
 4526TIP3    H135069   4.622   5.162   4.063  0.1447 -1.5685  0.1326
 4526TIP3    H235070   4.608   5.263   4.176 -2.8587 -0.3014 -1.2730
 4527TIP3   OH235071   0.441   2.850  13.875 -0.8209  0.2560  0.2584
 4527TIP3    H135072   0.441   2.939  13.911  1.0640  0.1842  0.5481
 4527TIP3    H235073   0.520   2.847  13.820 -1.4974 -0.8839 -0.6917
 4528TIP3   OH235074   1.755   5.228   3.725  0.1682  0.4808  0.0600
 4528TIP3    H135075   1.664   5.255   3.723  0.5638  2.3089  2.8209
 4528TIP3    H235076   1.787   5.245   3.636 -1.8541  0.8972 -0.6281
 4529TIP3   OH235077   5.979   2.135  16.704  0.1597  0.5570  0.2291
 4529TIP3    H135078   5.988   2.072  16.632 -0.6027 -0.0799  0.6685
 4529TIP3    H235079   6.067   2.167  16.719  0.7509 -1.1429  0.6387
 4530TIP3   OH235080   5.463   1.376  11.979 -0.4091 -0.0652  0.9281
 4530TIP3    H135081   5.392   1.438  11.960  0.1660  0.8295  1.6059
 4530TIP3    H235082   5.420   1.305  12.026 -1.3813 -1.0562 -1.3103
 4531TIP3   OH235083   1.891   0.311   4.549 -0.2387 -0.3534  0.5304
 4531TIP3    H135084   1.832   0.386   4.554  0.2139  0.0786 -0.2340
 4531TIP3    H235085   1.978   0.349   4.565  0.1579 -0.4424 -1.2317
 4532TIP3   OH235086   0.872   1.778   0.606 -0.5213  0.1134 -0.6390
 4532TIP3    H135087   0.962   1.807   0.595  0.3317 -1.9543  0.2319
 4532TIP3    H235088   0.824   1.856   0.633  0.8524  1.3936 -1.7241
 4533TIP3   OH235089   4.517   3.413   0.437 -0.3321 -0.0151  0.9559
 4533TIP3    H135090   4.496   3.505   0.418  1.7581  0.5448  1.0940
 4533TIP3    H235091   4.567   3.416   0.518  0.3689 -1.1934  0.5948
 4534TIP3   OH235092   1.641   3.442   2.180  0.6201 -0.1536 -0.1511
 4534TIP3    H135093   1.710   3.489   2.226  0.9581 -1.1755  0.4261
 4534TIP3    H235094   1.678   3.354   2.166  0.4877  0.0764 -2.2591
 4535TIP3   OH235095   3.037   5.037  10.563  0.2821 -0.2582 -0.0844
 4535TIP3    H135096   3.115   5.093  10.566  0.0522  0.2058 -1.7631
 4535TIP3    H235097   2.972   5.088  10.515 -1.1168 -0.6057  1.3496
 4536TIP3   OH235098   6.676   6.576  13.225 -0.2745  0.0235  0.3661
 4536TIP3    H135099   6.713   6.501  13.178  0.2535  0.7247 -0.3580
 4536TIP3    H235100   6.712   6.569  13.314 -1.2946 -1.3217  0.7115
 4537TIP3   OH235101   4.285   3.881   5.338  0.5084 -0.0734  0.3999
 4537TIP3    H135102   4.243   3.866   5.422 -0.8549 -1.7180 -0.5184
 4537TIP3    H235103   4.325   3.968   5.346 -3.1099  1.6756  1.3504
 4538TIP3   OH235104   5.539   3.541   1.758  0.0080  0.1400 -0.1632
 4538TIP3    H135105   5.630   3.542   1.728 -0.7908 -2.2891 -3.1874
 4538TIP3    H235106   5.488   3.575   1.685 -1.7521 -2.1305 -0.1405
 4539TIP3   OH235107   2.484   0.402   3.514 -0.4595  0.9002  0.1014
 4539TIP3    H135108   2.490   0.440   3.602  1.3870  1.0623 -0.0505
 4539TIP3    H235109   2.517   0.472   3.456  2.3009 -0.5397 -0.2606
 4540TIP3   OH235110   2.807   1.418   0.155  0.2154  0.4608 -0.8597
 4540TIP3    H135111   2.835   1.404   0.065  0.2026  2.0129 -1.1356
 4540TIP3    H235112   2.741   1.350   0.171  0.9128 -0.4268 -1.6832
 4541TIP3   OH235113   5.530   2.962   4.257  0.0415 -0.0143 -0.6019
 4541TIP3    H135114   5.510   2.900   4.186  2.6311 -1.2215 -0.3661
 4541TIP3    H235115   5.466   2.941   4.325 -0.7479 -0.6743 -1.5085
 4542TIP3   OH235116   0.267   0.788   3.224 -0.2839 -0.5126  0.5639
 4542TIP3    H135117   0.225   0.871   3.246  0.7911 -0.5263  2.8811
 4542TIP3    H235118   0.285   0.746   3.308  1.1945 -2.0957 -0.4673
 4543TIP3   OH235119   5.296   5.740   2.928  0.1816  0.4103  0.0311
 4543TIP3    H135120   5.279   5.725   3.021 -0.1500  0.2137 -0.0631
 4543TIP3    H235121   5.392   5.748   2.923  0.5476 -2.8247 -0.0794
 4544TIP3   OH235122   0.688   2.300  16.999  0.0757  0.0099 -0.0320
 4544TIP3    H135123   0.686   2.357  16.922  0.1808 -0.2617 -0.2375
 4544TIP3    H235124   0.647   2.352  17.069  0.4952  0.4729 -0.1231
 4545TIP3   OH235125   3.034   1.232   1.735 -0.2885 -0.1756  0.3992
 4545TIP3    H135126   2.985   1.278   1.667  0.1951 -2.4802 -1.6687
 4545TIP3    H235127   3.110   1.287   1.751 -1.8067  1.7967  1.2074
 4546TIP3   OH235128   2.304   0.950  12.003 -0.0972 -0.2674 -0.2760
 4546TIP3    H135129   2.230   0.902  11.966 -0.0926 -1.2074  0.8928
 4546TIP3    H235130   2.378   0.889  11.996  0.1750  0.0086  0.1507
 4547TIP3   OH235131   6.450   1.862   1.636  0.1715  0.1245  0.3119
 4547TIP3    H135132   6.408   1.902   1.560  1.3255  0.3540 -0.2306
 4547TIP3    H235133   6.525   1.814   1.599  0.9456  0.5139  1.3315
 4548TIP3   OH235134   1.155   3.285   6.351  0.7670 -0.7110  0.7260
 4548TIP3    H135135   1.186   3.298   6.440  0.3609 -0.2264  0.8013
 4548TIP3    H235136   1.137   3.373   6.317 -0.5322 -0.9519  0.7053
 4549TIP3   OH235137   3.709   3.867  11.863  0.6815 -0.3502  0.2256
 4549TIP3    H135138   3.661   3.868  11.779 -0.8270  0.6532  1.0399
 4549TIP3    H235139   3.768   3.793  11.856  0.2562 -0.5777 -1.5549
 4550TIP3   OH235140   3.184   5.662  15.109  0.3023 -0.1660 -0.2700
 4550TIP3    H135141   3.266   5.685  15.066 -0.0741 -0.0586 -0.9554
 4550TIP3    H235142   3.116   5.702  15.054 -0.1367  1.4522  1.3563
 4551TIP3   OH235143   3.878   4.643  15.602 -0.4036  0.0839 -0.4455
 4551TIP3    H135144   3.897   4.665  15.511 -2.4201 -0.2002 -0.9866
 4551TIP3    H235145   3.808   4.703  15.627 -1.0864 -1.0015  0.3335
 4552TIP3   OH235146   0.476   5.556  13.635  0.1928 -0.3703  0.2915
 4552TIP3    H135147   0.540   5.535  13.702 -0.2829  0.1695  0.9257
 4552TIP3    H235148   0.395   5.515  13.665  0.2897 -1.2706 -0.6356
 4553TIP3   OH235149   0.736   4.335   2.947  0.1350  0.1374 -0.6416
 4553TIP3    H135150   0.731   4.267   3.013  2.7089 -0.0187 -0.5117
 4553TIP3    H235151   0.723   4.417   2.995  0.8920 -0.0425 -0.1211
 4554TIP3   OH235152   5.646   4.181  15.542  0.9547 -0.4675 -0.4981
 4554TIP3    H135153   5.602   4.107  15.500  0.7878 -1.1284  0.7912
 4554TIP3    H235154   5.714   4.208  15.480  1.3934 -2.0650 -0.7471
 4555TIP3   OH235155   5.128   0.455  13.793 -0.3613 -0.3070 -0.0052
 4555TIP3    H135156   5.210   0.421  13.828  0.5040  1.3321 -0.3427
 4555TIP3    H235157   5.149   0.485  13.705 -1.3027  0.2122 -0.0703
 4556TIP3   OH235158   5.297   5.999   6.892  0.4772  0.0341  0.7502
 4556TIP3    H135159   5.248   6.029   6.968  0.2211  1.9599 -0.1206
 4556TIP3    H235160   5.372   6.059   6.886 -0.3951  0.9971 -1.4260
 4557TIP3   OH235161   1.840   2.466   1.449  0.5053  1.1482  0.1330
 4557TIP3    H135162   1.781   2.461   1.524  2.3764 -0.5282  1.6054
 4557TIP3    H235163   1.872   2.556   1.449 -1.1806  1.7787 -0.0518
 4558TIP3   OH235164   1.167   3.803  11.607 -0.3518 -0.3216  0.2542
 4558TIP3    H135165   1.150   3.838  11.519  2.0273  2.2450  0.6976
 4558TIP3    H235166   1.134   3.713  11.603 -0.1302 -0.3902 -3.3341
 4559TIP3   OH235167   3.202   2.593   3.106  0.8463  0.1895  0.1388
 4559TIP3    H135168   3.218   2.532   3.033 -2.6354  0.5107 -1.0684
 4559TIP3    H235169   3.261   2.666   3.089  2.4760 -1.1925 -0.4577
 4560TIP3   OH235170   5.676   3.624   1.996  0.2984  0.2332 -0.0294
 4560TIP3    H135171   5.633   3.576   1.926 -0.0605 -2.0189  1.6155
 4560TIP3    H235172   5.618   3.613   2.072  2.1301 -0.0825  1.4146
 4561TIP3   OH235173   2.111   1.194   3.456  0.6478 -0.6359  0.5710
 4561TIP3    H135174   2.103   1.139   3.379  1.2874  0.3444 -0.2279
 4561TIP3    H235175   2.147   1.276   3.423 -0.5854  0.4012  1.6538
 4562TIP3   OH235176   3.777   6.208   3.201 -0.2339  0.2329 -0.7283
 4562TIP3    H135177   3.726   6.233   3.124 -0.1280  0.3143 -0.7721
 4562TIP3    H235178   3.717   6.222   3.275 -0.2789  0.3172 -0.7806
 4563TIP3   OH235179   4.773   5.032   5.581 -0.6379  0.1671 -0.1806
 4563TIP3    H135180   4.857   5.054   5.542 -0.2876  1.1644  1.0787
 4563TIP3    H235181   4.740   4.959   5.528  0.5416  0.4215 -1.3035
 4564TIP3   OH235182   5.596   2.076  17.334 -0.2289  0.2225  0.0786
 4564TIP3    H135183   5.562   2.034  17.413 -0.8240  0.9072  0.2018
 4564TIP3    H235184   5.519   2.114  17.292  0.0750 -0.2057 -0.8821
 4565TIP3   OH235185   0.210   4.472  14.453  0.7548 -0.1998 -0.7414
 4565TIP3    H135186   0.207   4.405  14.521  0.5038 -0.6543 -1.1932
 4565TIP3    H235187   0.132   4.525  14.467  0.5204 -0.5030 -0.8798
 4566TIP3   OH235188   2.816   4.414  17.366  0.3246 -0.8168  0.3014
 4566TIP3    H135189   2.909   4.440  17.366  0.1065  0.0042  0.4650
 4566TIP3    H235190   2.816   4.326  17.328  1.1423 -0.7093  0.0187
 4567TIP3   OH235191   4.487   0.438  12.937  0.1170  0.1197  0.4177
 4567TIP3    H135192   4.530   0.517  12.969  0.8518 -0.4548  0.8523
 4567TIP3    H235193   4.417   0.422  13.000 -1.2656  1.4586 -0.6699
 4568TIP3   OH235194   1.939   6.398   3.330  0.4188  0.0706 -0.1952
 4568TIP3    H135195   1.926   6.326   3.391 -0.4321 -0.5359 -1.0531
 4568TIP3    H235196   2.032   6.393   3.306  0.2058 -1.2707 -0.8448
 4569TIP3   OH235197   1.526   4.813  17.450 -0.5494 -0.1019  0.2787
 4569TIP3    H135198   1.588   4.759  17.498  0.5892  0.7384 -0.1874
 4569TIP3    H235199   1.530   4.780  17.360 -0.6278  0.0734  0.2099
 4570TIP3   OH235200   0.445   2.673   4.771 -0.0057 -0.5709 -0.6439
 4570TIP3    H135201   0.514   2.616   4.738 -1.3024 -1.3394 -2.1483
 4570TIP3    H235202   0.470   2.760   4.740  0.8111 -0.6620 -0.2804
 4571TIP3   OH235203   5.088   1.077   6.831 -0.7453  0.3615  0.5636
 4571TIP3    H135204   5.091   0.983   6.812 -0.2474  0.3753  0.5545
 4571TIP3    H235205   5.082   1.119   6.745 -1.2404  0.3315  0.5807
 4572TIP3   OH235206   5.900   2.325   1.369  0.1800 -0.6256 -0.1250
 4572TIP3    H135207   5.845   2.264   1.319 -0.0653 -1.4427  1.0715
 4572TIP3    H235208   5.940   2.382   1.304 -0.6518 -1.2154 -1.1741
 4573TIP3   OH235209   2.424   3.487  11.671  0.3797 -0.0809  0.3239
 4573TIP3    H135210   2.444   3.500  11.764 -0.2947 -0.7101  0.5600
 4573TIP3    H235211   2.467   3.561  11.627 -0.4261  0.9781  1.2650
 4574TIP3   OH235212   0.468   5.935   4.708  0.1020 -0.2817  0.2583
 4574TIP3    H135213   0.460   5.902   4.798  1.1986 -0.8492  0.1641
 4574TIP3    H235214   0.557   5.912   4.682  0.6866  2.0868 -0.0986
 4575TIP3   OH235215   4.064   5.591  15.049 -0.5337 -0.3520 -0.4928
 4575TIP3    H135216   4.149   5.562  15.017  0.6329  2.2361 -0.0307
 4575TIP3    H235217   4.061   5.562  15.141  0.4820  0.7062 -0.1100
 4576TIP3   OH235218   6.623   4.208  15.262 -0.2910  0.4349 -0.3221
 4576TIP3    H135219   6.714   4.223  15.285  0.1784 -0.4222 -1.5323
 4576TIP3    H235220   6.602   4.276  15.198 -0.2524  0.1592 -0.6330
 4577TIP3   OH235221   5.488   5.243   6.517 -0.0507  0.8267  0.0414
 4577TIP3    H135222   5.582   5.229   6.515 -0.4934 -3.1226 -0.6736
 4577TIP3    H235223   5.469   5.264   6.609  1.1434 -3.5414  1.5399
 4578TIP3   OH235224   6.631   3.587  10.478 -0.3530 -0.3991  0.2002
 4578TIP3    H135225   6.621   3.584  10.574 -2.0318 -1.0128  0.0406
 4578TIP3    H235226   6.598   3.502  10.448  2.2492 -1.1545 -0.8114
 4579TIP3   OH235227   0.042   1.026   0.851 -0.0045 -0.0060  0.1630
 4579TIP3    H135228   0.066   0.938   0.880 -2.8327 -0.3345  1.8500
 4579TIP3    H235229   0.077   1.031   0.762  2.2638 -1.9027  0.8220
 4580TIP3   OH235230   0.373   0.069   0.161  0.2273 -0.2137 -0.1909
 4580TIP3    H135231   0.293   0.076   0.109 -0.7153 -0.0392  1.2154
 4580TIP3    H235232   0.405   0.159   0.169  0.1574 -0.1944 -0.1341
 4581TIP3   OH235233   4.598   4.668   6.753  0.6503  0.1489  0.1322
 4581TIP3    H135234   4.672   4.671   6.692 -0.3703  1.4322 -1.1207
 4581TIP3    H235235   4.610   4.746   6.808 -0.9029  1.6832 -1.5628
 4582TIP3   OH235236   3.016   6.320  12.095  0.6410 -0.4829 -0.3259
 4582TIP3    H135237   2.979   6.244  12.139  1.9685 -0.1756  1.4433
 4582TIP3    H235238   2.965   6.394  12.127  0.0844 -0.4892 -1.1695
 4583TIP3   OH235239   3.029   0.552  11.702  0.2347 -0.0297 -0.1559
 4583TIP3    H135240   3.121   0.526  11.704 -0.1861 -1.6760 -0.6999
 4583TIP3    H235241   2.986   0.492  11.762 -0.1146  2.6407  2.5065
 4584TIP3   OH235242   4.841   1.304   6.153  0.0602 -0.1334 -0.4855
 4584TIP3    H135243   4.784   1.290   6.228 -0.5835 -0.4113 -1.0138
 4584TIP3    H235244   4.831   1.397   6.132  0.4828  0.0153 -0.0394
 4585TIP3   OH235245   3.365   3.480   2.276  0.1628 -0.2968  0.0953
 4585TIP3    H135246   3.342   3.479   2.183  0.7291 -0.9533 -0.0448
 4585TIP3    H235247   3.287   3.447   2.320 -0.2094  0.2817 -0.1183
 4586TIP3   OH235248   6.314   3.775   3.984  0.4442 -0.1451  0.3339
 4586TIP3    H135249   6.329   3.710   3.916 -0.5645 -0.1264  0.0647
 4586TIP3    H235250   6.326   3.728   4.066 -0.3491 -0.7103  0.1451
 4587TIP3   OH235251   6.274   1.527  12.122  0.2419 -0.1172  0.0548
 4587TIP3    H135252   6.234   1.491  12.201 -1.2444  1.9790  0.3235
 4587TIP3    H235253   6.203   1.573  12.077  1.8922  2.1828 -0.3932
 4588TIP3   OH235254   5.515   4.512   6.710  0.2716 -0.3208 -0.7486
 4588TIP3    H135255   5.427   4.517   6.747  0.9642 -0.4758  1.0452
 4588TIP3    H235256   5.539   4.420   6.719  1.1787 -0.0045  0.2069
 4589TIP3   OH235257   3.791   3.433  13.122  0.2935  0.3017  0.0422
 4589TIP3    H135258   3.878   3.394  13.123  0.3855  0.4088 -1.5549
 4589TIP3    H235259   3.764   3.433  13.214  1.8316 -0.0311  0.5274
 4590TIP3   OH235260   3.432   0.960   5.775  0.3467  0.1059  0.4710
 4590TIP3    H135261   3.463   1.025   5.839 -0.7161 -0.0262  1.1356
 4590TIP3    H235262   3.395   0.890   5.829 -0.0470 -0.2746 -0.2882
 4591TIP3   OH235263   3.776   6.531   0.856 -0.1553  0.6490 -0.3600
 4591TIP3    H135264   3.860   6.519   0.813  0.0587  0.2675  0.1599
 4591TIP3    H235265   3.772   6.462   0.922 -0.1637  1.6481  0.7245
 4592TIP3   OH235266   3.733   0.374   2.028  0.2498  0.1536 -0.1507
 4592TIP3    H135267   3.820   0.348   2.060 -1.1906 -0.4767  3.7552
 4592TIP3    H235268   3.721   0.463   2.063  0.3628  1.5081 -3.2127
 4593TIP3   OH235269   5.639   5.971  16.343 -0.1601 -0.2292  0.1966
 4593TIP3    H135270   5.702   6.001  16.408  1.0578 -2.0122 -0.0923
 4593TIP3    H235271   5.648   6.034  16.271 -0.5880  0.9991  1.1716
 4594TIP3   OH235272   2.169   3.510   3.826  0.6392 -0.3163 -0.3706
 4594TIP3    H135273   2.158   3.569   3.752 -0.8276 -0.6521 -0.4536
 4594TIP3    H235274   2.246   3.457   3.803 -0.1240 -0.8175 -1.9577
 4595TIP3   OH235275   0.938   3.823   1.908 -0.1857 -0.0572  0.1745
 4595TIP3    H135276   0.951   3.810   2.002  2.0226 -1.4604 -0.2369
 4595TIP3    H235277   0.884   3.902   1.902  0.9232  1.0030  2.5854
 4596TIP3   OH235278   2.493   1.375   4.254 -0.7911  0.3676 -0.0336
 4596TIP3    H135279   2.524   1.421   4.332  0.8814 -0.7586 -0.0020
 4596TIP3    H235280   2.402   1.352   4.274 -0.1891 -0.5070  1.8758
 4597TIP3   OH235281   0.092   1.664   1.148 -0.6273  0.7959  0.5813
 4597TIP3    H135282   0.023   1.695   1.090 -2.2550 -2.7481  0.3628
 4597TIP3    H235283   0.047   1.610   1.213  1.8134 -0.8965  1.0286
 4598TIP3   OH235284   0.350   5.516   6.019  0.3444  0.5806  0.3149
 4598TIP3    H135285   0.368   5.464   6.097  0.1050 -0.7536 -0.4954
 4598TIP3    H235286   0.257   5.500   6.000  0.6791 -0.0610 -0.9001
 4599TIP3   OH235287   0.799   3.166  14.345 -0.2673 -0.0901  0.4103
 4599TIP3    H135288   0.831   3.169  14.255  0.3851 -0.7537  0.6083
 4599TIP3    H235289   0.845   3.238  14.389 -0.9897  0.5720  0.0950
 4600TIP3   OH235290   0.463   0.643  16.487 -0.0949 -0.0449  0.6248
 4600TIP3    H135291   0.492   0.594  16.410  0.8172 -0.2473  1.0833
 4600TIP3    H235292   0.376   0.608  16.507  0.0208 -0.5859  0.1969
 4601TIP3   OH235293   3.292   4.249   2.954 -0.2993  0.1454 -0.1436
 4601TIP3    H135294   3.217   4.240   2.895  0.3835  1.4586 -1.2473
 4601TIP3    H235295   3.338   4.326   2.923  1.1131 -0.2104  0.9817
 4602TIP3   OH235296   1.791   5.569  13.002  0.0281 -0.2376 -0.3387
 4602TIP3    H135297   1.871   5.609  13.035 -0.3847 -0.4972  1.0252
 4602TIP3    H235298   1.772   5.616  12.920  1.0817  0.4083 -0.2220
 4603TIP3   OH235299   4.839   0.446  12.961 -0.4839  0.2426 -0.2927
 4603TIP3    H135300   4.801   0.504  12.896 -1.9054  1.9356  1.8829
 4603TIP3    H235301   4.777   0.448  13.034  2.1320  0.4326  2.1255
 4604TIP3   OH235302   0.131   4.460  12.483  0.3923  0.0910  0.0532
 4604TIP3    H135303   0.191   4.508  12.542  1.1299 -1.6298  0.7597
 4604TIP3    H235304   0.179   4.381  12.459 -0.3641  0.1940 -1.9896
 4605TIP3   OH235305   2.663   5.748  11.613  0.1094 -0.0079  0.0854
 4605TIP3    H135306   2.712   5.767  11.533 -1.0823  2.2781 -0.1984
 4605TIP3    H235307   2.576   5.721  11.583 -0.4342  1.1311  0.5472
 4606TIP3   OH235308   3.294   5.226  12.794 -0.2008 -0.1039 -0.1920
 4606TIP3    H135309   3.330   5.146  12.755  0.7857 -0.4212  1.2788
 4606TIP3    H235310   3.350   5.243  12.870  0.3581  2.6607 -1.1163
 4607TIP3   OH235311   4.565   0.381   5.274 -0.0501  0.7056 -0.2567
 4607TIP3    H135312   4.529   0.448   5.332  0.8222  0.8004  0.1892
 4607TIP3    H235313   4.489   0.350   5.223 -0.8727  0.4622  1.0702
 4608TIP3   OH235314   0.537   4.716   5.892  0.5228 -0.2199 -0.2361
 4608TIP3    H135315   0.488   4.639   5.923 -0.1194 -0.0903 -0.9124
 4608TIP3    H235316   0.469   4.781   5.872  1.0444  0.4223  0.0253
 4609TIP3   OH235317   3.038   6.451   5.708  0.0379  0.4533 -0.5989
 4609TIP3    H135318   3.117   6.496   5.737  0.8650 -1.4815  0.3614
 4609TIP3    H235319   2.998   6.510   5.644  0.0753  3.3021  1.8259
 4610TIP3   OH235320   5.758   1.003   0.604  0.1411  0.3370  0.3039
 4610TIP3    H135321   5.846   0.966   0.611 -0.1332 -0.3739  0.0921
 4610TIP3    H235322   5.764   1.066   0.533  0.2132 -0.5448 -0.4974
 4611TIP3   OH235323   2.767   0.862   5.027 -1.1252 -0.6498 -0.1513
 4611TIP3    H135324   2.842   0.918   5.046 -1.1791 -0.4282 -0.5792
 4611TIP3    H235325   2.746   0.881   4.936 -2.2162 -0.1162  0.2077
 4612TIP3   OH235326   4.004   1.094   1.256  0.2814  0.2228 -0.3498
 4612TIP3    H135327   3.923   1.137   1.230  0.0654  0.8173  1.1813
 4612TIP3    H235328   4.054   1.163   1.301  1.9063  0.0329 -1.7372
 4613TIP3   OH235329   4.507   6.403   0.547  0.1517 -0.7579  0.1124
 4613TIP3    H135330   4.472   6.418   0.635 -2.1255 -0.9223 -0.6990
 4613TIP3    H235331   4.437   6.355   0.501  1.0775 -0.2582 -1.9374
 4614TIP3   OH235332   1.328   3.458   2.252  0.3985  0.2767  0.0967
 4614TIP3    H135333   1.381   3.395   2.204 -0.8972 -0.1433 -0.8484
 4614TIP3    H235334   1.247   3.411   2.272  0.8103  0.5055  2.5685
 4615TIP3   OH235335   3.060   1.047  17.433  0.2654  0.0660  0.3024
 4615TIP3    H135336   3.112   1.015  17.506  2.2284 -0.2342 -1.1485
 4615TIP3    H235337   3.085   1.139  17.423  0.8509 -0.1742 -0.6276
 4616TIP3   OH235338   1.131   4.136  16.852  0.2596 -0.0407 -0.2831
 4616TIP3    H135339   1.200   4.097  16.905 -0.4925  0.4022  1.0798
 4616TIP3    H235340   1.165   4.134  16.763  1.1389 -1.7736  0.0474
 4617TIP3   OH235341   1.910   2.134  12.798 -0.3311 -0.2263 -0.3732
 4617TIP3    H135342   1.932   2.208  12.741 -0.3146  0.5977  0.6770
 4617TIP3    H235343   1.836   2.092  12.754  1.5320 -1.4362 -2.5472
 4618TIP3   OH235344   0.211   2.994  13.720  0.1422  0.9437 -0.2287
 4618TIP3    H135345   0.206   2.924  13.654  0.2964  0.6296  0.0897
 4618TIP3    H235346   0.176   2.954  13.800 -0.1881  1.3707 -0.1561
 4619TIP3   OH235347   0.471   5.082  16.342 -0.2228  0.0394  0.0908
 4619TIP3    H135348   0.437   5.025  16.272 -1.0589  0.2659  0.3056
 4619TIP3    H235349   0.533   5.026  16.389 -1.3107 -0.8369  0.5307
 4620TIP3   OH235350   3.140   4.966   3.846  0.0044  0.2140 -0.6992
 4620TIP3    H135351   3.185   4.894   3.891  1.3790  1.1805 -0.4544
 4620TIP3    H235352   3.183   5.045   3.880 -0.4898  1.0709 -2.0211
 4621TIP3   OH235353   5.474   3.301  14.369 -0.0210 -0.7442  0.2326
 4621TIP3    H135354   5.505   3.316  14.458  0.9297 -0.7963 -0.0759
 4621TIP3    H235355   5.499   3.380  14.322 -1.6659 -0.1612  0.2877
 4622TIP3   OH235356   6.026   1.145  13.523 -0.2056  0.3763 -0.1288
 4622TIP3    H135357   6.090   1.117  13.458  0.8593  0.6746  0.7691
 4622TIP3    H235358   5.980   1.218  13.481 -1.2255 -0.9702 -1.4751
 4623TIP3   OH235359   4.433   3.590  14.344  0.3501  0.0907  0.0363
 4623TIP3    H135360   4.509   3.535  14.325  1.5138  1.8913 -0.8788
 4623TIP3    H235361   4.431   3.652  14.271 -2.0340  0.0976  0.0386
 4624TIP3   OH235362   5.974   3.971   5.272 -0.3040 -0.0660  0.2340
 4624TIP3    H135363   5.921   3.906   5.318  1.2364 -0.1331  2.0670
 4624TIP3    H235364   5.969   4.049   5.327  2.3065 -0.4167  1.1258
 4625TIP3   OH235365   2.055   5.546  12.070  0.2442  0.2130  0.0663
 4625TIP3    H135366   1.992   5.612  12.100  0.8781  0.7722  0.2006
 4625TIP3    H235367   2.139   5.592  12.070  0.6040 -0.4351 -0.4059
 4626TIP3   OH235368   4.827   5.362  11.380 -0.3546 -0.0456  0.1073
 4626TIP3    H135369   4.741   5.393  11.352 -0.1925  0.5619  0.2581
 4626TIP3    H235370   4.879   5.442  11.390  0.8818 -0.4922 -2.0641
 4627TIP3   OH235371   3.377   5.466   4.980  0.0882 -0.3392 -0.1714
 4627TIP3    H135372   3.374   5.514   4.897 -1.0931  0.4778  0.3157
 4627TIP3    H235373   3.358   5.375   4.956  0.3176 -0.2105 -0.8603
 4628TIP3   OH235374   5.718   5.826  17.114  0.4438 -0.1048  0.4045
 4628TIP3    H135375   5.791   5.848  17.171  0.1732  0.5719  0.4977
 4628TIP3    H235376   5.757   5.772  17.045  1.4470  1.8407 -0.6619
 4629TIP3   OH235377   4.527   0.076   2.856  0.1988  0.1519 -0.3045
 4629TIP3    H135378   4.481   0.138   2.800  3.0759  2.2209 -0.5725
 4629TIP3    H235379   4.522  -0.007   2.809 -0.9720  0.8937 -1.5587
 4630TIP3   OH235380   6.194   0.778  13.845 -0.1370  0.0655  0.3213
 4630TIP3    H135381   6.114   0.799  13.798 -0.2907 -0.5238  0.3171
 4630TIP3    H235382   6.259   0.839  13.810 -0.0631 -0.8417 -1.1932
 4631TIP3   OH235383   1.446   4.678  11.703  0.4970  0.1326 -0.2709
 4631TIP3    H135384   1.360   4.666  11.662  0.6076 -1.5868 -0.0683
 4631TIP3    H235385   1.499   4.607  11.667  0.8591 -0.9102  2.1196
 4632TIP3   OH235386   2.078   6.281   1.971 -0.3471 -0.6424  0.2041
 4632TIP3    H135387   2.099   6.372   1.989  0.6591 -0.9806  0.8392
 4632TIP3    H235388   2.013   6.257   2.037  0.5914 -0.8323  1.0747
 4633TIP3   OH235389   3.524   4.390   3.302  0.2230  0.0599  0.3712
 4633TIP3    H135390   3.543   4.470   3.352 -1.5542  1.2659 -0.7921
 4633TIP3    H235391   3.508   4.421   3.213 -2.3596 -1.3449  0.2793
 4634TIP3   OH235392   3.076   4.903  12.214 -0.2654 -0.5072  0.3039
 4634TIP3    H135393   3.084   4.922  12.307 -0.3294 -3.3479  0.9818
 4634TIP3    H235394   2.982   4.890  12.200 -0.3600  0.6753 -0.4003
 4635TIP3   OH235395   2.960   4.857  16.331  0.3881  0.6238 -0.2739
 4635TIP3    H135396   2.904   4.935  16.330  0.0293  0.3586 -0.9148
 4635TIP3    H235397   3.050   4.892  16.331  0.2869  1.0896  2.3195
 4636TIP3   OH235398   1.573   6.240   2.474  0.1581  0.4138  0.7531
 4636TIP3    H135399   1.656   6.267   2.433  0.1823  0.6531  0.9536
 4636TIP3    H235400   1.544   6.166   2.422 -0.8205  1.9191 -0.9678
 4637TIP3   OH235401   0.776   1.128   5.637 -0.2799 -0.2880  0.7626
 4637TIP3    H135402   0.706   1.189   5.613 -0.6993 -0.7625  0.7822
 4637TIP3    H235403   0.803   1.088   5.555 -0.2293 -0.3228  0.7959
 4638TIP3   OH235404   3.505   0.662  15.220 -0.1614 -0.1855 -0.3235
 4638TIP3    H135405   3.528   0.601  15.291  0.7452  0.9520  0.3974
 4638TIP3    H235406   3.518   0.611  15.140  2.3113 -0.4743  0.1605
 4639TIP3   OH235407   5.853   0.611  13.397  0.4706 -0.2982  0.2515
 4639TIP3    H135408   5.890   0.525  13.415  2.5789  0.5961  0.5637
 4639TIP3    H235409   5.914   0.672  13.438 -1.3109  1.3426  0.6194
 4640TIP3   OH235410   6.495   4.874   1.652 -0.1719  0.4243  0.3255
 4640TIP3    H135411   6.574   4.844   1.608 -0.9343 -0.6203 -0.3696
 4640TIP3    H235412   6.489   4.819   1.730 -0.5496  0.0692  0.0473
 4641TIP3   OH235413   1.544   5.283  11.690 -0.1708 -0.2647  0.0682
 4641TIP3    H135414   1.627   5.327  11.709 -1.1344  1.4042  0.6302
 4641TIP3    H235415   1.498   5.280  11.774 -1.7974  1.3763 -0.6748
 4642TIP3   OH235416   6.024   0.700   0.533 -0.5718 -0.4572 -0.7342
 4642TIP3    H135417   5.968   0.642   0.483 -1.7590  0.8986 -1.0320
 4642TIP3    H235418   6.102   0.647   0.553 -0.7128 -1.5045 -2.7092
 4643TIP3   OH235419   3.935   3.844  15.594  0.8803  0.1486 -0.0556
 4643TIP3    H135420   3.977   3.836  15.509  0.7954  3.9492 -0.5931
 4643TIP3    H235421   3.883   3.924  15.589 -0.8366 -0.5868  2.9194
 4644TIP3   OH235422   0.268   3.768  15.333 -0.7392  0.3243 -0.4690
 4644TIP3    H135423   0.266   3.716  15.253 -0.5240 -0.4655  0.0261
 4644TIP3    H235424   0.192   3.737  15.383  1.1876 -1.9471  1.2960
 4645TIP3   OH235425   0.395   6.316   1.829  0.4733  0.3719 -0.4774
 4645TIP3    H135426   0.317   6.323   1.883 -0.0496 -3.2413 -0.4709
 4645TIP3    H235427   0.453   6.386   1.859 -2.1822  2.2985  0.4426
 4646TIP3   OH235428   4.527   6.200   5.734 -0.2157 -0.0861  0.1694
 4646TIP3    H135429   4.484   6.167   5.656 -1.4188  2.1076 -0.1835
 4646TIP3    H235430   4.472   6.169   5.806 -0.6426  0.1239 -0.0604
 4647TIP3   OH235431   6.168   6.384   2.458 -0.3266 -0.0381 -0.1053
 4647TIP3    H135432   6.161   6.351   2.368  1.6423 -0.3369 -0.1842
 4647TIP3    H235433   6.216   6.466   2.450  0.7371 -0.5585  0.7528
 4648TIP3   OH235434   2.786   3.601  14.192 -0.1223 -0.5130  0.1633
 4648TIP3    H135435   2.743   3.524  14.228  2.4386 -1.9020  0.5013
 4648TIP3    H235436   2.821   3.647  14.269  0.3136 -0.2592 -0.1848
 4649TIP3   OH235437   3.380   5.737   4.373  0.4693 -0.2322  0.4585
 4649TIP3    H135438   3.457   5.684   4.395  2.1803  1.8057 -0.2473
 4649TIP3    H235439   3.342   5.760   4.457  0.2337 -1.7612  0.8018
 4650TIP3   OH235440   5.182   4.734  17.380  0.1331 -0.0618  0.4094
 4650TIP3    H135441   5.091   4.717  17.354  0.8898 -0.6403 -2.0207
 4650TIP3    H235442   5.205   4.816  17.335  0.4837  0.7684  2.0062
 4651TIP3   OH235443   1.641   5.368  12.522  0.1969  0.2458 -0.0723
 4651TIP3    H135444   1.673   5.454  12.549  3.4516 -0.2916 -1.6976
 4651TIP3    H235445   1.659   5.311  12.597  1.3780  0.3420 -0.2647
 4652TIP3   OH235446   0.779   4.790   2.134 -0.2051 -0.0777 -0.2756
 4652TIP3    H135447   0.870   4.762   2.141 -1.1350 -3.9066 -1.1930
 4652TIP3    H235448   0.761   4.791   2.040 -1.1878  0.3596 -0.0988
 4653TIP3   OH235449   4.659   3.811   4.658 -0.1866 -0.1739 -0.6300
 4653TIP3    H135450   4.603   3.801   4.581 -1.9584 -0.4259  0.6191
 4653TIP3    H235451   4.651   3.728   4.705  0.1308  0.2914  0.2713
 4654TIP3   OH235452   6.247   0.381  14.588  0.4641  0.7136  0.1231
 4654TIP3    H135453   6.209   0.358  14.673 -0.9019  0.6053 -0.4920
 4654TIP3    H235454   6.273   0.296  14.550  0.8583  0.7407  0.3293
 4655TIP3   OH235455   2.511   0.384   0.668 -0.0931 -0.3127 -0.3758
 4655TIP3    H135456   2.516   0.465   0.617 -0.2780 -1.2224 -1.9162
 4655TIP3    H235457   2.424   0.348   0.647 -0.2043 -0.6874  0.6518
 4656TIP3   OH235458   6.367   4.748  12.921  0.1353  0.2635 -0.1331
 4656TIP3    H135459   6.392   4.687  12.990  1.1012  0.4529 -0.2908
 4656TIP3    H235460   6.445   4.753  12.865 -0.5998  0.1845 -1.1822
 4657TIP3   OH235461   5.376   1.080   0.216 -0.3807 -0.0196 -0.0610
 4657TIP3    H135462   5.403   1.014   0.152  0.9002 -1.0874  1.4993
 4657TIP3    H235463   5.281   1.070   0.222 -0.6144  0.4552 -2.0972
 4658TIP3   OH235464   5.456   6.291   0.641 -0.0419 -0.9457 -0.1470
 4658TIP3    H135465   5.508   6.257   0.569  1.4023  0.5760  0.1249
 4658TIP3    H235466   5.476   6.233   0.715 -1.7551 -2.6875 -0.9727
 4659TIP3   OH235467   4.040   4.403  13.795  0.2487  0.2914  0.1271
 4659TIP3    H135468   4.045   4.346  13.718 -0.6169  0.6397 -0.1897
 4659TIP3    H235469   4.017   4.343  13.867 -0.9874  0.2773 -0.2655
 4660TIP3   OH235470   2.908   3.081  15.509  0.0933  0.2102  0.7420
 4660TIP3    H135471   2.978   3.083  15.574  0.4509  2.5986  0.3809
 4660TIP3    H235472   2.834   3.125  15.552  0.3423  1.8478 -0.3819
 4661TIP3   OH235473   0.779   4.310  11.944 -0.2147  0.3789  0.2721
 4661TIP3    H135474   0.783   4.232  11.888  1.6682  1.4194 -1.1913
 4661TIP3    H235475   0.829   4.286  12.022 -0.0296 -0.0397  0.0320
 4662TIP3   OH235476   1.003   4.508  13.445 -0.3086  0.1864 -0.4994
 4662TIP3    H135477   1.056   4.439  13.484  1.7142  0.1517 -3.0388
 4662TIP3    H235478   0.942   4.462  13.388  0.5718  0.4080 -1.6586
 4663TIP3   OH235479   0.964   6.559  14.380 -0.0616 -0.8924  0.5938
 4663TIP3    H135480   1.052   6.590  14.359  0.0998 -1.4221  0.4781
 4663TIP3    H235481   0.913   6.639  14.391  0.7199 -0.5546  1.9683
 4664TIP3   OH235482   5.933   0.487   3.471 -0.5729  0.1716 -0.3477
 4664TIP3    H135483   5.978   0.432   3.535 -1.6653 -0.9053 -0.4651
 4664TIP3    H235484   5.973   0.573   3.481  2.7543 -1.0559 -1.6967
 4665TIP3   OH235485   4.488   2.749  12.087  0.0571 -0.2981 -0.1152
 4665TIP3    H135486   4.523   2.661  12.099  3.0682  0.6517 -1.1343
 4665TIP3    H235487   4.516   2.773  11.999 -1.8266  1.2464 -0.3468
 4666TIP3   OH235488   5.853   6.067   5.558 -0.6170 -0.2497  0.1352
 4666TIP3    H135489   5.892   6.153   5.574 -2.4614  0.4260  1.2509
 4666TIP3    H235490   5.768   6.070   5.601 -0.2174 -3.0979  1.3551
 4667TIP3   OH235491   0.149   4.441   2.769 -0.0226  0.0284  0.0006
 4667TIP3    H135492   0.197   4.359   2.782  1.6621  0.7412 -1.3498
 4667TIP3    H235493   0.066   4.428   2.815  1.4049 -1.2997  2.4088
 4668TIP3   OH235494   0.986   0.144   3.850 -0.4539  0.0051  0.0873
 4668TIP3    H135495   0.943   0.095   3.921 -0.2203  0.4817  0.5596
 4668TIP3    H235496   1.062   0.091   3.827  1.2450  1.3098  2.3061
 4669TIP3   OH235497   4.393   4.243  17.109  0.6349 -0.0721 -0.1544
 4669TIP3    H135498   4.451   4.315  17.135 -0.3769  0.3212  1.1678
 4669TIP3    H235499   4.429   4.166  17.153  0.2544  0.1462  0.5564
 4670TIP3   OH235500   3.355   5.262  13.672 -0.7153  0.1509  0.0535
 4670TIP3    H135501   3.432   5.293  13.719 -0.4369 -1.0207  0.4051
 4670TIP3    H235502   3.285   5.262  13.738 -0.6957 -0.0334  0.0745
 4671TIP3   OH235503   3.100   3.699   4.908  0.5325  0.0309  0.0694
 4671TIP3    H135504   3.184   3.692   4.953  1.0636  1.6782 -0.5709
 4671TIP3    H235505   3.118   3.756   4.833 -0.5583 -1.6844 -1.6271
 4672TIP3   OH235506   0.019   1.556  16.988 -0.1699  0.1359 -0.8244
 4672TIP3    H135507  -0.071   1.575  17.015  0.1845  1.3197 -0.4069
 4672TIP3    H235508   0.048   1.636  16.942  0.3895 -0.5480 -1.6949
 4673TIP3   OH235509   4.725   1.906   4.973 -0.2563 -0.3511 -0.4418
 4673TIP3    H135510   4.677   1.983   4.941 -0.2066 -0.8707 -1.8390
 4673TIP3    H235511   4.808   1.908   4.925  0.2777 -0.6060  0.4382
 4674TIP3   OH235512   1.271   0.257  17.166  0.1465  0.4016  0.5023
 4674TIP3    H135513   1.193   0.204  17.180  1.0610 -0.8370  1.0352
 4674TIP3    H235514   1.321   0.210  17.099  0.5335  1.0921  0.2916
 4675TIP3   OH235515   0.678   5.204   1.375 -0.1014 -0.0621  0.9327
 4675TIP3    H135516   0.655   5.191   1.282  1.0137 -3.0522  0.9448
 4675TIP3    H235517   0.756   5.259   1.373 -0.1956  0.0627  0.1091
 4676TIP3   OH235518   1.077   2.070   1.238 -0.2904 -1.0503 -0.5647
 4676TIP3    H135519   0.998   2.059   1.291  0.1671 -0.0247  0.3690
 4676TIP3    H235520   1.045   2.091   1.150 -1.1068  1.3959  0.2373
 4677TIP3   OH235521   3.587   3.490   5.189 -0.7729 -0.2406  0.6262
 4677TIP3    H135522   3.557   3.537   5.267 -1.5523  1.5963 -0.6891
 4677TIP3    H235523   3.572   3.552   5.117  0.9243 -1.4490 -0.8552
 4678TIP3   OH235524   5.519   1.446   0.448 -0.0067 -0.1023  0.3230
 4678TIP3    H135525   5.571   1.417   0.373  0.6227  2.6988 -0.4096
 4678TIP3    H235526   5.438   1.396   0.441  1.1596 -1.9983 -0.5262
 4679TIP3   OH235527   4.541   3.576  13.184  0.3093  0.6441  0.1957
 4679TIP3    H135528   4.570   3.550  13.097  0.6219  3.7678 -0.7769
 4679TIP3    H235529   4.445   3.571  13.180  0.3027 -4.0413  1.4719
 4680TIP3   OH235530   0.093   5.719  15.913 -0.5909  0.1299 -0.2412
 4680TIP3    H135531   0.151   5.724  15.837  0.2413 -1.1058  0.2675
 4680TIP3    H235532   0.144   5.755  15.985 -1.4650  1.5193 -0.2879
 4681TIP3   OH235533   2.485   6.239  10.841  0.0508 -0.0123 -0.2108
 4681TIP3    H135534   2.439   6.255  10.924 -2.1382 -1.4470 -1.0566
 4681TIP3    H235535   2.418   6.250  10.774  0.6067 -3.1687 -1.4633
 4682TIP3   OH235536   5.947   6.192   4.986 -0.1783  0.3851  0.4381
 4682TIP3    H135537   5.910   6.261   4.931 -0.2876  0.1144  0.1643
 4682TIP3    H235538   5.894   6.193   5.065 -1.6582 -0.8632 -0.4788
 4683TIP3   OH235539   4.107   0.662   4.557  0.1712 -0.3572 -0.5703
 4683TIP3    H135540   4.188   0.635   4.514  1.3760  1.7503  0.2480
 4683TIP3    H235541   4.135   0.716   4.631 -1.9784  0.7807 -0.4917
 4684TIP3   OH235542   3.355   1.680   3.119 -0.1484  0.1945  0.9934
 4684TIP3    H135543   3.289   1.749   3.120 -1.7365 -1.2208  0.4384
 4684TIP3    H235544   3.376   1.669   3.026  0.4216  0.2223  1.1174
 4685TIP3   OH235545   2.388   1.573   4.095  0.1522  0.6390  0.6582
 4685TIP3    H135546   2.418   1.657   4.129  0.4201  0.3721  1.0940
 4685TIP3    H235547   2.448   1.509   4.133 -0.9716  0.0907  1.5742
 4686TIP3   OH235548   4.355   1.530   1.149  0.2116 -0.9353  0.0022
 4686TIP3    H135549   4.301   1.590   1.200  0.7342  0.0820 -0.6040
 4686TIP3    H235550   4.293   1.467   1.112 -0.8662  1.2166 -2.1162
 4687TIP3   OH235551   4.330   3.119  17.379 -0.3024  0.5200 -0.3988
 4687TIP3    H135552   4.323   3.082  17.467  1.3613  0.6314 -0.1774
 4687TIP3    H235553   4.248   3.096  17.337 -1.0275  0.2276  1.0942
 4688TIP3   OH235554   3.557   4.328  12.812 -0.0309  0.6195 -0.3526
 4688TIP3    H135555   3.640   4.335  12.858 -0.5308  0.7674  0.5559
 4688TIP3    H235556   3.505   4.401  12.846 -0.7687  0.1227 -0.3932
 4689TIP3   OH235557   4.952   1.528  16.903 -0.2149  0.6124 -0.3129
 4689TIP3    H135558   4.878   1.468  16.909  0.7526 -0.7153 -1.1001
 4689TIP3    H235559   4.971   1.534  16.809  1.0735  0.4101 -0.0791
 4690TIP3   OH235560   6.453   5.148   6.030  0.2538  0.4267  0.3557
 4690TIP3    H135561   6.377   5.158   5.973 -0.9179 -1.6351  1.4395
 4690TIP3    H235562   6.525   5.126   5.970 -0.8605 -1.2996 -0.4462
 4691TIP3   OH235563   6.628   0.986   1.081  0.9751  0.0337  0.5929
 4691TIP3    H135564   6.681   1.025   1.011  1.4778 -0.8771  0.4477
 4691TIP3    H235565   6.677   1.004   1.161  1.3943 -0.5996  0.4851
 4692TIP3   OH235566   4.851   2.458  13.864  0.1984 -0.5371 -0.4864
 4692TIP3    H135567   4.825   2.441  13.773 -1.2101  0.9046 -0.3944
 4692TIP3    H235568   4.799   2.396  13.916 -0.4783 -0.0361 -0.5502
 4693TIP3   OH235569   5.800   6.269   4.446 -0.1654 -0.4183  0.3709
 4693TIP3    H135570   5.876   6.279   4.503 -0.0820 -0.4066  0.2575
 4693TIP3    H235571   5.765   6.183   4.467  1.2259 -1.4283 -1.2069
 4694TIP3   OH235572   0.200   5.338  15.279  0.1552 -0.2876 -0.4190
 4694TIP3    H135573   0.153   5.294  15.349 -0.5452 -1.1492 -1.4056
 4694TIP3    H235574   0.131   5.378  15.225  0.5765 -0.7863 -1.3653
 4695TIP3   OH235575   4.651   6.506  14.838 -0.0502 -0.1542  0.2210
 4695TIP3    H135576   4.726   6.551  14.799  1.6275 -2.4872  0.5743
 4695TIP3    H235577   4.688   6.453  14.908 -2.2236 -0.5117  1.1774
 4696TIP3   OH235578   1.222   2.920  17.188 -0.5019 -0.3618 -0.0428
 4696TIP3    H135579   1.197   3.012  17.181 -0.3430 -0.3046  0.1261
 4696TIP3    H235580   1.317   2.921  17.182 -0.4676 -0.4667  0.4230
 4697TIP3   OH235581   3.786   1.584  12.536  0.2666 -0.9792  0.4488
 4697TIP3    H135582   3.732   1.510  12.566  0.3176 -0.8685  0.8129
 4697TIP3    H235583   3.801   1.566  12.443 -1.0921 -0.5914  0.1355
 4698TIP3   OH235584   4.074   0.394   4.170  0.2308 -0.1825  0.5194
 4698TIP3    H135585   4.165   0.365   4.177 -0.2624 -1.3810  3.6105
 4698TIP3    H235586   4.023   0.314   4.185 -1.2727  1.0538  2.3742
 4699TIP3   OH235587   0.328   2.587  14.872 -0.5649 -0.3849 -0.4989
 4699TIP3    H135588   0.337   2.511  14.930  0.0316 -0.9111 -1.2649
 4699TIP3    H235589   0.313   2.549  14.785  0.1078  0.3675 -0.9493
 4700TIP3   OH235590   0.778   1.661   4.924  0.0340 -0.8272  0.3295
 4700TIP3    H135591   0.832   1.739   4.928  0.4990 -1.1254  0.0372
 4700TIP3    H235592   0.701   1.681   4.979  0.9766 -0.8207  1.6930
 4701TIP3   OH235593   0.785   4.885   4.525 -0.4911  0.2270 -0.0814
 4701TIP3    H135594   0.825   4.799   4.531  0.4277  0.4914 -1.6845
 4701TIP3    H235595   0.805   4.928   4.608 -0.1447 -0.7549  0.3494
 4702TIP3   OH235596   6.701   4.767   1.500 -0.1082  0.1252 -0.3138
 4702TIP3    H135597   6.650   4.698   1.458 -0.0277 -1.2096  1.7015
 4702TIP3    H235598   6.777   4.723   1.536  0.4075  1.4251  0.2607
 4703TIP3   OH235599   1.369   0.588   5.551 -0.7258  0.3187  0.0521
 4703TIP3    H135600   1.351   0.616   5.640  2.1431  1.2766  0.4622
 4703TIP3    H235601   1.443   0.643   5.523 -1.2755 -0.2038 -2.7825
 4704TIP3   OH235602   0.556   1.171   5.843  0.4148 -0.3181  0.0794
 4704TIP3    H135603   0.540   1.139   5.754 -0.8199  1.1774 -0.2777
 4704TIP3    H235604   0.531   1.263   5.840 -0.2942 -0.3985  2.1537
 4705TIP3   OH235605   4.381   3.788   0.770 -0.1459  0.3757  0.1016
 4705TIP3    H135606   4.345   3.745   0.693 -0.0192 -1.1825  0.8590
 4705TIP3    H235607   4.338   3.744   0.844  1.4393  0.1855  0.9649
 4706TIP3   OH235608   6.402   0.506   2.533 -0.4549  0.0423 -0.4026
 4706TIP3    H135609   6.464   0.441   2.564  1.8224  1.9455 -0.7071
 4706TIP3    H235610   6.316   0.466   2.546  0.8087 -2.7098  0.0110
 4707TIP3   OH235611   0.257   3.863   4.502 -0.1156  0.2854 -0.1466
 4707TIP3    H135612   0.332   3.906   4.542  0.0613 -0.9922  0.9715
 4707TIP3    H235613   0.239   3.788   4.559 -3.2479  1.3882  0.5429
 4708TIP3   OH235614   0.156   6.596   6.173 -1.0522  0.0056 -0.0641
 4708TIP3    H135615   0.210   6.518   6.164  1.5670  1.4618  1.8616
 4708TIP3    H235616   0.218   6.669   6.169 -3.1569  1.9118  0.2058
 4709TIP3   OH235617   3.221   3.213   4.617  0.0079 -0.1876  0.1239
 4709TIP3    H135618   3.160   3.276   4.654  0.6563  0.6766 -0.2268
 4709TIP3    H235619   3.202   3.131   4.662 -1.7546 -0.0799 -0.3650
 4710TIP3   OH235620   2.557   6.016   2.192  0.0380 -0.9208  0.8730
 4710TIP3    H135621   2.469   6.044   2.166  0.9441 -0.9734 -2.8284
 4710TIP3    H235622   2.554   6.015   2.287 -3.7553 -0.2953  0.9422
 4711TIP3   OH235623   3.663   0.665  16.924  0.2117 -0.2870 -0.3754
 4711TIP3    H135624   3.662   0.632  17.014 -2.2026  1.7560  0.4370
 4711TIP3    H235625   3.582   0.632  16.885  1.2120 -1.1160 -1.8454
 4712TIP3   OH235626   3.879   1.616   3.681  0.5940 -0.0253  1.1412
 4712TIP3    H135627   3.933   1.693   3.699  2.1945 -1.6929  4.5761
 4712TIP3    H235628   3.882   1.566   3.763 -2.6134 -2.4275 -0.0089
 4713TIP3   OH235629   3.788   4.396   5.244  0.1533  0.7625  0.2985
 4713TIP3    H135630   3.756   4.310   5.216  0.7213  0.7692 -0.3987
 4713TIP3    H235631   3.732   4.419   5.318 -1.4300  0.7458 -0.8259
 4714TIP3   OH235632   0.437   5.894   3.533 -0.3366  0.3943 -0.3098
 4714TIP3    H135633   0.478   5.823   3.582 -1.0639  0.4643  0.4111
 4714TIP3    H235634   0.381   5.938   3.597 -1.8497  0.0545 -1.3449
 4715TIP3   OH235635   0.304   0.923   4.892  0.3582 -0.1240  0.1561
 4715TIP3    H135636   0.275   0.855   4.831  2.4615  0.6879 -1.9251
 4715TIP3    H235637   0.380   0.885   4.935  0.1789  0.1078  0.6812
 4716TIP3   OH235638   4.223   6.692   3.470 -0.1584  0.3682 -0.0353
 4716TIP3    H135639   4.270   6.771   3.496  0.5932  0.2323 -0.9190
 4716TIP3    H235640   4.253   6.675   3.381 -0.4627 -0.7992  0.0711
 4717TIP3   OH235641   4.226   6.211  11.670 -0.7215 -0.2184 -1.1467
 4717TIP3    H135642   4.288   6.138  11.669 -0.4309 -0.0021 -0.1445
 4717TIP3    H235643   4.167   6.192  11.742  1.5122  2.2118  1.6016
 4718TIP3   OH235644   6.580   6.444   6.350 -0.4316 -0.1166  0.8918
 4718TIP3    H135645   6.516   6.465   6.417 -1.9705 -0.5205 -0.3800
 4718TIP3    H235646   6.586   6.524   6.296 -1.1968 -0.6318  0.0083
 4719TIP3   OH235647   6.355   3.212  13.030  0.3003  0.3002 -0.0714
 4719TIP3    H135648   6.403   3.286  13.068 -0.1197  0.5586 -0.0293
 4719TIP3    H235649   6.314   3.169  13.105  3.1115 -1.9275  0.3349
 4720TIP3   OH235650   5.459   2.951  10.997 -0.2312 -0.2307 -0.0598
 4720TIP3    H135651   5.486   3.007  10.924 -1.9647  0.0637 -0.5252
 4720TIP3    H235652   5.523   2.969  11.065 -0.7823  2.4982 -0.1314
 4721TIP3   OH235653   0.735   4.923  15.024 -0.5778 -0.7649 -0.2579
 4721TIP3    H135654   0.796   4.849  15.030  1.7458  0.9505 -1.1653
 4721TIP3    H235655   0.719   4.948  15.115 -0.0131 -1.3047 -0.0009
 4722TIP3   OH235656   1.911   3.007   1.600  0.0841 -0.4026  0.6424
 4722TIP3    H135657   1.978   3.067   1.634  0.9383 -1.5389  1.0253
 4722TIP3    H235658   1.829   3.043   1.634  0.5902  0.4299  1.0450
 4723TIP3   OH235659   1.657   3.040  11.364  0.1271 -0.4768  0.6704
 4723TIP3    H135660   1.656   3.117  11.308  2.0089  0.3521  1.6775
 4723TIP3    H235661   1.565   3.023  11.385 -0.3274  1.4869  0.4046
 4724TIP3   OH235662   5.864   6.680   1.385 -0.3666  0.0452  0.1013
 4724TIP3    H135663   5.851   6.756   1.442  0.7283  0.3488 -0.0312
 4724TIP3    H235664   5.826   6.607   1.433 -0.2211  0.4435  0.8383
 4725TIP3   OH235665   6.497   6.023   5.634 -0.2846 -0.0518 -0.0736
 4725TIP3    H135666   6.423   5.964   5.629 -1.5904  1.5877 -1.1353
 4725TIP3    H235667   6.474   6.085   5.703  0.8538 -0.4899  0.7199
 4726TIP3   OH235668   5.027   1.812  16.275 -0.0730 -0.6449 -0.0361
 4726TIP3    H135669   4.934   1.813  16.254 -0.0052  0.9975 -0.4399
 4726TIP3    H235670   5.054   1.721  16.265 -1.3619 -0.9232 -1.1659
 4727TIP3   OH235671   2.090   0.369  12.806  0.5146 -0.0070  0.2916
 4727TIP3    H135672   2.073   0.277  12.829 -0.2718  0.4549  1.7220
 4727TIP3    H235673   2.180   0.385  12.834  0.6375 -0.3263  0.0807
 4728TIP3   OH235674   5.159   0.360  11.514 -0.3160  0.2381  0.0802
 4728TIP3    H135675   5.214   0.316  11.449 -1.7217 -0.5712 -0.6132
 4728TIP3    H235676   5.104   0.419  11.463  0.6589  1.9121  0.8789
 4729TIP3   OH235677   4.137   5.564   0.107  0.2046 -0.7092  0.8315
 4729TIP3    H135678   4.230   5.583   0.097 -0.3480  0.9387 -2.6373
 4729TIP3    H235679   4.115   5.508   0.033 -1.2746 -2.7533  2.6770
 4730TIP3   OH235680   6.394   2.011   6.762 -0.3550  0.2644 -0.5812
 4730TIP3    H135681   6.480   2.001   6.804 -0.2990 -1.2325 -0.9990
 4730TIP3    H235682   6.402   2.091   6.711  0.9421 -0.0732 -0.9432
 4731TIP3   OH235683   1.137   3.079  11.065 -0.1251 -0.8344 -0.2043
 4731TIP3    H135684   1.048   3.110  11.053 -0.2295 -0.6861  0.8169
 4731TIP3    H235685   1.184   3.105  10.986 -0.9708 -0.8539 -0.7129
 4732TIP3   OH235686   5.883   3.718  14.725 -0.0732  0.7172 -1.0032
 4732TIP3    H135687   5.969   3.760  14.723  0.3404 -0.1424 -2.2999
 4732TIP3    H235688   5.902   3.624  14.724 -0.9910  0.4396  1.2233
 4733TIP3   OH235689   3.113   5.879  11.916  0.3626 -0.9232 -0.1758
 4733TIP3    H135690   3.021   5.882  11.941  0.4102  1.1311 -0.0526
 4733TIP3    H235691   3.151   5.958  11.955  2.1228 -1.5848 -0.4527
 4734TIP3   OH235692   5.018   1.182  15.219 -0.0273 -0.2335  0.0110
 4734TIP3    H135693   5.090   1.158  15.277  0.2922  0.9874  0.1480
 4734TIP3    H235694   4.943   1.135  15.254  0.4285 -0.4949  0.6570
 4735TIP3   OH235695   5.514   0.839  17.213  0.0287  0.1106 -0.2406
 4735TIP3    H135696   5.555   0.922  17.235 -0.1448  0.2097 -0.2884
 4735TIP3    H235697   5.587   0.782  17.189  0.2630 -0.1410  1.0256
 4736TIP3   OH235698   2.278   5.694   5.705  0.2047 -0.0195  0.2058
 4736TIP3    H135699   2.339   5.760   5.671  1.8854 -1.6678 -0.1597
 4736TIP3    H235700   2.330   5.645   5.769 -1.2255 -0.5355  1.0142
 4737TIP3   OH235701   0.389   1.114  17.067 -0.2225  0.2641  0.2556
 4737TIP3    H135702   0.415   1.070  17.148  0.5282  2.7387  1.4717
 4737TIP3    H235703   0.409   1.051  16.998  0.3286 -1.4448  1.8757
 4738TIP3   OH235704   4.513   1.331  14.754 -0.8600 -0.3864 -0.1312
 4738TIP3    H135705   4.514   1.349  14.848  1.2966  1.8715 -0.4880
 4738TIP3    H235706   4.584   1.268  14.740 -1.5037 -1.1058 -0.2025
 4739TIP3   OH235707   0.034   4.143   4.746  0.0867 -0.3937 -0.4424
 4739TIP3    H135708  -0.042   4.086   4.736 -0.8092  0.7803 -0.5170
 4739TIP3    H235709   0.050   4.177   4.658 -0.9900  1.4311  0.0151
 4740TIP3   OH235710   1.941   3.328  12.254 -0.3676 -0.8694 -0.1643
 4740TIP3    H135711   1.868   3.378  12.219 -0.1747 -1.6827 -1.8002
 4740TIP3    H235712   1.902   3.247  12.287 -0.0702 -2.1518 -2.7376
 4741TIP3   OH235713   2.535   5.719   6.148  0.2850 -0.3564  0.2209
 4741TIP3    H135714   2.552   5.805   6.111  0.3242 -0.8352 -0.9040
 4741TIP3    H235715   2.561   5.727   6.240 -0.5933  1.0867  0.3745
 4742TIP3   OH235716   6.689   5.404  15.977 -0.1763  0.1166  0.7301
 4742TIP3    H135717   6.669   5.477  15.920 -2.1601 -0.7262  0.2656
 4742TIP3    H235718   6.647   5.426  16.060  0.5488  0.1833  1.0938
 4743TIP3   OH235719   1.549   4.075   4.419 -0.6612  0.6666 -0.0613
 4743TIP3    H135720   1.474   4.044   4.369  0.2265 -0.2706 -0.8500
 4743TIP3    H235721   1.623   4.024   4.385 -0.0669 -0.2830  2.4177
 4744TIP3   OH235722   4.186   0.583   2.604 -0.3080 -0.5190 -0.0079
 4744TIP3    H135723   4.119   0.537   2.654 -0.5127 -0.9941 -0.7081
 4744TIP3    H235724   4.166   0.676   2.616 -0.5448 -0.6355  0.5199
 4745TIP3   OH235725   2.989   1.858   5.197  0.0746  0.1131  0.3302
 4745TIP3    H135726   3.059   1.858   5.132  1.4742  1.6831  1.7356
 4745TIP3    H235727   2.912   1.890   5.150  0.8334  0.4133 -0.7559
 4746TIP3   OH235728   2.903   4.749   4.408 -0.0476  0.2909  0.4763
 4746TIP3    H135729   2.918   4.681   4.474  1.0138  1.3609  1.3959
 4746TIP3    H235730   2.971   4.815   4.426  0.2775  0.6154 -1.7058
 4747TIP3   OH235731   4.431   0.134   1.301  0.4931  0.8619  0.0526
 4747TIP3    H135732   4.493   0.208   1.299  2.5098 -0.7266 -0.7584
 4747TIP3    H235733   4.388   0.138   1.215 -0.7438  2.0970  0.6973
 4748TIP3   OH235734   5.409   2.242   5.051  0.7063  0.0719  0.7674
 4748TIP3    H135735   5.366   2.194   4.980  0.2711 -0.5385  1.4366
 4748TIP3    H235736   5.341   2.254   5.117  1.3440 -0.1886  1.4902
 4749TIP3   OH235737   0.559   2.479  17.391 -0.1025 -1.0604 -0.1983
 4749TIP3    H135738   0.611   2.535  17.333  1.6779 -0.8366  1.4958
 4749TIP3    H235739   0.619   2.408  17.415 -0.2950 -0.4128  2.4094
 4750TIP3   OH235740   4.824   4.503  13.741 -0.0920 -0.2930  0.2524
 4750TIP3    H135741   4.843   4.564  13.671  2.1741  0.4727  1.4517
 4750TIP3    H235742   4.791   4.425  13.696 -0.0604  0.6636 -1.5225
 4751TIP3   OH235743   2.106   2.796  11.635  1.1256 -0.4187  0.5252
 4751TIP3    H135744   2.043   2.741  11.681 -0.1180 -1.6389 -2.4377
 4751TIP3    H235745   2.054   2.849  11.575  2.7185  0.5866 -0.0450
 4752TIP3   OH235746   6.060   6.437  15.377  0.1674  0.1878  0.1646
 4752TIP3    H135747   6.077   6.413  15.468 -1.4131 -1.3084  0.1168
 4752TIP3    H235748   6.002   6.513  15.383  1.5087  1.2408  0.3495
 4753TIP3   OH235749   0.562   4.632   2.694  0.0101  0.6377  0.1709
 4753TIP3    H135750   0.628   4.700   2.711  0.2675  0.2089  0.9190
 4753TIP3    H235751   0.594   4.555   2.740 -1.9739  0.9447  2.2149
 4754TIP3   OH235752   4.698   5.653   4.967 -0.1408  0.0332 -0.0866
 4754TIP3    H135753   4.754   5.670   4.891 -0.7035 -1.8797 -0.9761
 4754TIP3    H235754   4.753   5.601   5.025 -0.2264  0.1810  0.1271
 4755TIP3   OH235755   3.572   2.429   1.259 -0.1414  0.0958 -0.0291
 4755TIP3    H135756   3.593   2.518   1.230  1.3536 -0.1498  0.2221
 4755TIP3    H235757   3.571   2.433   1.354  1.7043 -0.5021  0.0434
 4756TIP3   OH235758   6.169   1.536  16.657  0.4125  0.0328  0.6812
 4756TIP3    H135759   6.150   1.447  16.685  0.6959 -0.1169  0.4078
 4756TIP3    H235760   6.171   1.587  16.738  1.5693 -0.4568  0.9927
 4757TIP3   OH235761   4.350   0.849  12.963 -0.1233  0.2339  0.3730
 4757TIP3    H135762   4.419   0.831  13.027  0.3718 -2.7013 -0.7927
 4757TIP3    H235763   4.273   0.805  12.999 -0.9823  2.0245  0.8265
 4758TIP3   OH235764   2.526   0.790   5.138 -0.6125 -0.4297  0.0884
 4758TIP3    H135765   2.548   0.719   5.198  0.1002 -2.0754 -1.9870
 4758TIP3    H235766   2.610   0.830   5.115 -0.7815 -0.3766 -0.4543
 4759TIP3   OH235767   4.027   4.085  14.533 -0.3998 -0.5572  0.0548
 4759TIP3    H135768   4.082   4.016  14.497  1.3792  0.3797  0.8745
 4759TIP3    H235769   4.077   4.121  14.606 -0.1739  3.0154 -1.6092
 4760TIP3   OH235770   0.692   6.014   1.051 -0.1761  0.1449  0.0254
 4760TIP3    H135771   0.700   5.922   1.026 -1.4321 -0.2944  1.0761
 4760TIP3    H235772   0.782   6.045   1.059  0.2611 -0.5172 -1.9126
 4761TIP3   OH235773   4.388   2.139   2.691 -0.0508 -0.0824  0.0951
 4761TIP3    H135774   4.427   2.066   2.740  3.3931  0.9694 -0.7631
 4761TIP3    H235775   4.421   2.128   2.602 -1.9259  0.9035 -0.7660
 4762TIP3   OH235776   2.286   3.695   0.816  0.7114 -0.2356 -0.0694
 4762TIP3    H135777   2.347   3.636   0.861 -0.2682 -0.7190  0.6590
 4762TIP3    H235778   2.227   3.636   0.768  1.5897  0.2638 -1.8290
 4763TIP3   OH235779   0.940   6.011  16.103  0.1229  0.2764  0.8547
 4763TIP3    H135780   0.909   6.008  16.012  1.2818 -0.4837  0.4718
 4763TIP3    H235781   0.891   6.084  16.142 -3.1744 -1.6496  0.7005
 4764TIP3   OH235782   0.740   4.943   2.368  0.1496  0.3305  0.2092
 4764TIP3    H135783   0.741   4.890   2.289 -0.4525 -0.0085  0.4185
 4764TIP3    H235784   0.809   5.008   2.355  0.1104  0.2260 -0.5498
 4765TIP3   OH235785   4.184   2.454   6.198  0.3233 -0.3077  0.0067
 4765TIP3    H135786   4.156   2.536   6.238  0.1328  0.0374 -0.8030
 4765TIP3    H235787   4.166   2.466   6.105 -0.0737 -1.4231 -0.0684
 4766TIP3   OH235788   0.565   2.802  13.439  0.2075 -0.9453 -0.1598
 4766TIP3    H135789   0.480   2.760  13.453  0.2296 -1.8328 -2.2599
 4766TIP3    H235790   0.545   2.879  13.385  0.6732 -0.7478 -0.0541
 4767TIP3   OH235791   2.830   0.711   3.011 -0.7553  0.3356 -0.1163
 4767TIP3    H135792   2.852   0.680   2.924 -0.3902  0.4980 -0.0818
 4767TIP3    H235793   2.877   0.794   3.020  0.6240 -0.5147  0.8860
 4768TIP3   OH235794   3.079   6.505   4.478  0.6012 -0.1509  0.1935
 4768TIP3    H135795   3.059   6.514   4.385  1.4825  1.1361  0.1144
 4768TIP3    H235796   3.031   6.426   4.505  1.6180 -1.4949 -1.7082
 4769TIP3   OH235797   4.290   5.103   4.974 -0.5140  0.0416  0.5254
 4769TIP3    H135798   4.372   5.062   4.945  0.0049  1.0704  0.4942
 4769TIP3    H235799   4.317   5.164   5.042 -0.8225  2.6563 -1.5591
 4770TIP3   OH235800   1.521   3.601   1.423 -0.2498  0.5435 -0.0351
 4770TIP3    H135801   1.456   3.659   1.462 -1.5151 -0.1939 -0.9629
 4770TIP3    H235802   1.502   3.603   1.329  1.4091  0.6932 -0.3988
 4771TIP3   OH235803   5.216   6.139  13.245  1.1097 -0.2556 -0.3880
 4771TIP3    H135804   5.269   6.199  13.297  2.4691  0.7754 -2.8078
 4771TIP3    H235805   5.207   6.182  13.160 -2.5485 -0.9991 -0.5492
 4772TIP3   OH235806   2.175   2.199   2.772 -0.3976 -0.1719  0.2784
 4772TIP3    H135807   2.120   2.261   2.819 -1.2429 -0.5068 -0.2495
 4772TIP3    H235808   2.253   2.190   2.826 -1.0408 -0.0116  1.2491
 4773TIP3   OH235809   1.187   3.212  16.811 -0.0044 -0.2833  0.2545
 4773TIP3    H135810   1.163   3.263  16.888  1.2654  0.2281  0.3225
 4773TIP3    H235811   1.105   3.207  16.760 -0.2737  1.4750  0.4420
 4774TIP3   OH235812   5.698   4.891  11.541 -0.3366  0.0456  0.3032
 4774TIP3    H135813   5.684   4.831  11.614  0.5432 -0.6737 -0.1080
 4774TIP3    H235814   5.680   4.839  11.463 -0.5411  0.5991 -0.0247
 4775TIP3   OH235815   3.499   5.005  15.456 -0.7500 -0.0183 -0.0089
 4775TIP3    H135816   3.435   4.953  15.505  0.3316 -1.9015 -0.5040
 4775TIP3    H235817   3.485   4.980  15.364  1.8982 -1.9980  0.0094
 4776TIP3   OH235818   2.470   5.721  12.807  0.3233  0.3350  0.1632
 4776TIP3    H135819   2.560   5.744  12.832  0.3427  0.4505 -0.0152
 4776TIP3    H235820   2.428   5.805  12.788 -1.0301  0.7852  4.1611
 4777TIP3   OH235821   2.513   1.046   3.866 -0.2715  0.3533  0.6092
 4777TIP3    H135822   2.513   1.057   3.961 -1.1469  0.6377  0.5818
 4777TIP3    H235823   2.539   1.131   3.831  0.4986  0.1245  0.5911
 4778TIP3   OH235824   4.242   1.482   0.545 -0.3146 -0.3092 -0.2328
 4778TIP3    H135825   4.323   1.532   0.546  0.8185 -2.0310  1.3972
 4778TIP3    H235826   4.173   1.547   0.556  1.0273  0.9831  0.9943
 4779TIP3   OH235827   1.556   1.166   4.457  1.2402  0.4155  0.3815
 4779TIP3    H135828   1.605   1.249   4.463  1.4517  0.2235  1.4499
 4779TIP3    H235829   1.470   1.186   4.493  0.6094  0.6666 -1.1970
 4780TIP3   OH235830   3.434   1.662   6.208 -0.3393  0.2457 -0.7071
 4780TIP3    H135831   3.503   1.596   6.218  0.4562  1.2980  1.5770
 4780TIP3    H235832   3.388   1.661   6.292 -1.5114  1.3070 -1.3028
 4781TIP3   OH235833   5.115   0.255   4.918  0.3168 -0.7163  0.1629
 4781TIP3    H135834   5.092   0.182   4.976  0.5539  0.2340  1.4965
 4781TIP3    H235835   5.097   0.334   4.969 -0.6278  0.2236 -1.4991
 4782TIP3   OH235836   5.451   3.581   0.917  0.4948 -0.3046 -0.0940
 4782TIP3    H135837   5.378   3.615   0.865 -0.3305 -0.2414  1.0496
 4782TIP3    H235838   5.492   3.658   0.955  1.6621 -0.2854 -1.3384
 4783TIP3   OH235839   1.057   1.972   3.808 -0.0059 -0.4694 -0.3973
 4783TIP3    H135840   1.077   2.031   3.735 -0.2284 -0.0010 -0.0828
 4783TIP3    H235841   1.057   2.028   3.885 -3.0309 -0.2639 -0.4055
 4784TIP3   OH235842   6.548   4.126   5.167  0.1805  0.5747  0.5666
 4784TIP3    H135843   6.625   4.092   5.121 -0.2258 -0.7570  0.8166
 4784TIP3    H235844   6.583   4.176   5.240  0.8384 -1.0292  1.3911
 4785TIP3   OH235845   4.427   5.387  16.716 -0.4177 -0.3297  0.4169
 4785TIP3    H135846   4.345   5.417  16.677 -1.8194 -0.0996  3.2635
 4785TIP3    H235847   4.411   5.295  16.737  0.7605 -0.7972 -0.5507
 4786TIP3   OH235848   5.744   5.820   1.704 -0.0077  0.0376 -0.6395
 4786TIP3    H135849   5.708   5.742   1.747 -0.3877  0.2180 -0.6322
 4786TIP3    H235850   5.702   5.820   1.617 -2.4141  1.9226  0.4101
 4787TIP3   OH235851   3.535   1.379  16.810  0.1101  0.9498 -0.4720
 4787TIP3    H135852   3.560   1.323  16.884 -1.0578 -0.3560 -1.0235
 4787TIP3    H235853   3.592   1.455  16.818  1.6510 -0.2306  0.3963
 4788TIP3   OH235854   5.994   1.112   0.197  0.6895  0.8921  0.0107
 4788TIP3    H135855   6.069   1.093   0.140  1.8033 -0.9347  1.9253
 4788TIP3    H235856   5.934   1.039   0.182 -0.4614  1.9820 -0.9848
 4789TIP3   OH235857   6.170   6.115   2.527 -0.5321 -0.9115  0.2216
 4789TIP3    H135858   6.154   6.123   2.621  1.7610 -0.9085  0.6670
 4789TIP3    H235859   6.195   6.203   2.499  3.2690 -1.6924  0.6399
 4790TIP3   OH235860   0.895   3.321   2.782 -0.0256  0.1362 -0.2789
 4790TIP3    H135861   0.900   3.302   2.876  0.6638  1.0849 -0.1119
 4790TIP3    H235862   0.820   3.379   2.773  0.2469  0.4962 -0.2348
 4791TIP3   OH235863   6.180   2.944  15.554 -0.3818 -0.5825 -0.2421
 4791TIP3    H135864   6.185   2.849  15.557 -0.1552 -0.6020 -1.1551
 4791TIP3    H235865   6.210   2.968  15.466  2.4851  0.5121  0.8920
 4792TIP3   OH235866   4.798   3.457   0.777 -0.2163  0.2749  0.3816
 4792TIP3    H135867   4.821   3.411   0.858 -1.9254  0.7328  1.1637
 4792TIP3    H235868   4.882   3.488   0.742  0.6891 -1.1475  1.2177
 4793TIP3   OH235869   4.640   1.746   5.713  0.7966  0.3647  0.9639
 4793TIP3    H135870   4.663   1.655   5.732  0.6001 -0.0883 -0.7314
 4793TIP3    H235871   4.549   1.754   5.742  0.7355 -0.0691  0.9020
 4794TIP3   OH235872   0.721   5.815  10.802 -0.5156  0.1969 -0.2810
 4794TIP3    H135873   0.719   5.848  10.712 -0.7953  0.4224 -0.1925
 4794TIP3    H235874   0.631   5.786  10.819 -0.0873 -1.5178 -0.6838
 4795TIP3   OH235875   4.264   5.177  14.026 -0.0270 -0.6549 -0.1265
 4795TIP3    H135876   4.301   5.130  13.952  1.0849 -0.2801  0.1671
 4795TIP3    H235877   4.275   5.270  14.004 -2.5248 -0.4698 -0.8693
 4796TIP3   OH235878   3.351   3.752   2.511  0.1839  0.4527  0.3485
 4796TIP3    H135879   3.446   3.758   2.513  0.2071  0.3294  3.2895
 4796TIP3    H235880   3.330   3.684   2.575 -1.9045  0.2210 -0.4940
 4797TIP3   OH235881   1.422   3.023   3.172  0.5310  0.0925  0.3094
 4797TIP3    H135882   1.414   2.964   3.247  0.0981  0.1730  0.3288
 4797TIP3    H235883   1.516   3.024   3.152  0.6389  0.0200  0.8076
 4798TIP3   OH235884   1.873   3.359   0.221 -0.0827 -0.2446 -0.2212
 4798TIP3    H135885   1.801   3.299   0.202 -2.4086  1.5934  2.0282
 4798TIP3    H235886   1.872   3.368   0.317  0.5850  2.8051 -0.3896
 4799TIP3   OH235887   1.192   4.757  11.858  0.4023 -0.2186  0.0003
 4799TIP3    H135888   1.151   4.821  11.798  2.3524  0.7018 -0.4363
 4799TIP3    H235889   1.243   4.700  11.800  1.5906  0.1266  0.6743
 4800TIP3   OH235890   0.907   6.095  10.080 -0.1189  0.1788  0.5023
 4800TIP3    H135891   0.831   6.138  10.118  1.1516  0.9433  2.2935
 4800TIP3    H235892   0.933   6.029  10.144  1.7063  1.0609  0.7219
 4801TIP3   OH235893   5.535   5.271   4.642 -0.1681  0.0807  0.0281
 4801TIP3    H135894   5.617   5.224   4.659  0.0689  0.1013 -1.0159
 4801TIP3    H235895   5.554   5.327   4.567 -1.2531 -0.2160 -0.4923
 4802TIP3   OH235896   5.540   4.658   3.384  0.0872  0.0368 -0.3627
 4802TIP3    H135897   5.508   4.578   3.428  0.6449 -0.8134 -1.4519
 4802TIP3    H235898   5.531   4.726   3.450  0.4302 -1.1013  0.9189
 4803TIP3   OH235899   5.048   4.218   2.630 -0.2730  0.0540 -0.6670
 4803TIP3    H135900   5.025   4.125   2.638 -2.6061  0.6815  1.4646
 4803TIP3    H235901   5.133   4.226   2.674 -0.4031 -0.9755 -0.2044
 4804TIP3   OH235902   0.788   2.196  12.925 -0.5308  0.5620 -0.0187
 4804TIP3    H135903   0.745   2.117  12.894  0.0449  0.2827 -0.1219
 4804TIP3    H235904   0.798   2.183  13.020  0.2267  0.1788 -0.1439
 4805TIP3   OH235905   3.171   0.278   5.028 -0.1590  0.2246  0.4327
 4805TIP3    H135906   3.193   0.260   5.120  0.5656 -1.5282 -0.0538
 4805TIP3    H235907   3.096   0.221   5.010 -0.4202  0.7043 -0.0387
 4806TIP3   OH235908   4.864   4.261   4.938 -0.2372 -0.2055  0.4670
 4806TIP3    H135909   4.924   4.207   4.887 -0.0586  0.2433  0.1993
 4806TIP3    H235910   4.919   4.329   4.976 -0.7132  0.8022 -0.5871
 4807TIP3   OH235911   1.345   6.480   3.766 -0.1819  0.4453 -0.0037
 4807TIP3    H135912   1.254   6.491   3.792 -0.0499  0.7126  0.3563
 4807TIP3    H235913   1.379   6.570   3.759  0.1040  0.3444  0.0632
 4808TIP3   OH235914   1.907   2.187   3.239  0.5322 -0.2365 -0.1888
 4808TIP3    H135915   1.924   2.097   3.209 -0.5785  0.0936 -1.9375
 4808TIP3    H235916   1.816   2.186   3.267  0.5608  0.3117 -0.0719
 4809TIP3   OH235917   0.744   3.410  15.376 -0.2263 -0.2009  0.4915
 4809TIP3    H135918   0.832   3.420  15.339  0.0835  1.8305  1.6204
 4809TIP3    H235919   0.725   3.316  15.369  2.1376 -0.7326  0.4619
 4810TIP3   OH235920   4.819   0.237  17.314  0.3439 -0.4163 -0.1384
 4810TIP3    H135921   4.745   0.180  17.332  1.3609 -1.3777  1.2269
 4810TIP3    H235922   4.784   0.326  17.322 -0.8917 -0.8263 -0.6948
 4811TIP3   OH235923   0.072   4.325   5.560  0.1126 -0.4063 -0.6527
 4811TIP3    H135924   0.137   4.277   5.508  0.8556  0.2378 -0.3463
 4811TIP3    H235925  -0.003   4.334   5.502  0.9225  0.2827 -1.6326
 4812TIP3   OH235926   2.669   0.073  16.121 -0.2064  0.0326 -0.1192
 4812TIP3    H135927   2.729   0.006  16.091  2.3607  1.8160  0.6942
 4812TIP3    H235928   2.713   0.113  16.196 -1.6289  2.5281 -0.4993
 4813TIP3   OH235929   3.200   2.272   5.434  0.1745 -0.6696  0.8403
 4813TIP3    H135930   3.144   2.210   5.480 -2.0335  0.4874 -0.1462
 4813TIP3    H235931   3.287   2.231   5.436 -0.3329 -1.8541  3.7050
 4814TIP3   OH235932   1.389   4.620   6.378 -0.4475 -0.1989  0.0096
 4814TIP3    H135933   1.356   4.669   6.454 -2.0319 -1.5376  0.2569
 4814TIP3    H235934   1.429   4.686   6.322 -1.2144  1.1543  0.9933
 4815TIP3   OH235935   4.313   3.286   6.008 -0.1295  0.0894 -0.4422
 4815TIP3    H135936   4.226   3.294   5.969  0.4842 -0.4020 -1.9731
 4815TIP3    H235937   4.347   3.203   5.975  0.9442  0.2896  0.1013
 4816TIP3   OH235938   5.730   1.146   5.586 -1.2991  0.1208  0.0805
 4816TIP3    H135939   5.729   1.148   5.682  0.6820 -0.6081  0.1765
 4816TIP3    H235940   5.678   1.069   5.563  1.4812 -2.2236  0.8696
 4817TIP3   OH235941   2.200   4.164   1.309  1.1646  0.3521 -0.2685
 4817TIP3    H135942   2.288   4.194   1.330  1.0406 -1.3395  3.1764
 4817TIP3    H235943   2.201   4.070   1.326 -0.6610 -0.2465 -2.8079
 4818TIP3   OH235944   3.708   1.656   4.943  0.3422 -0.0955  0.4391
 4818TIP3    H135945   3.744   1.645   5.030 -0.0439 -1.7592  0.4342
 4818TIP3    H235946   3.770   1.613   4.885 -1.3486 -2.7326  0.4013
 4819TIP3   OH235947   2.656   5.486  11.227  0.1132 -0.7354  0.3508
 4819TIP3    H135948   2.574   5.440  11.243  2.2664 -4.1558  3.3195
 4819TIP3    H235949   2.699   5.436  11.158  0.4031 -0.0263  0.0100
 4820TIP3   OH235950   1.118   4.188  13.746 -0.6847  0.2758  0.3216
 4820TIP3    H135951   1.128   4.281  13.763  0.6012 -0.1807  2.3984
 4820TIP3    H235952   1.063   4.156  13.818  1.5086 -1.0595  1.4893
 4821TIP3   OH235953   1.555   1.058   6.218  0.5565 -0.1496 -0.1366
 4821TIP3    H135954   1.639   1.025   6.185  1.1893  0.9935  0.2686
 4821TIP3    H235955   1.492   1.038   6.149  1.4764  0.4207 -1.1701
 4822TIP3   OH235956   5.769   3.694   4.231  0.1276  0.5200  0.4671
 4822TIP3    H135957   5.843   3.640   4.205 -1.3379 -0.9306 -0.9089
 4822TIP3    H235958   5.799   3.784   4.218  1.6460 -0.0324 -0.0113
 4823TIP3   OH235959   6.306   0.702   2.358 -0.3854  0.2108 -0.5161
 4823TIP3    H135960   6.340   0.622   2.396  1.5425  0.5251 -1.4385
 4823TIP3    H235961   6.233   0.727   2.414 -1.4872 -2.5228 -0.6112
 4824TIP3   OH235962   3.376   6.670   1.336  0.3299 -0.0747 -0.4365
 4824TIP3    H135963   3.381   6.687   1.242  0.1412  0.9892 -0.2601
 4824TIP3    H235964   3.466   6.683   1.368  0.8185 -2.2780 -0.7420
 4825TIP3   OH235965   3.874   4.905   4.799 -0.0609 -0.3167  0.1156
 4825TIP3    H135966   3.905   4.897   4.709  1.2162  2.1112  0.2852
 4825TIP3    H235967   3.953   4.903   4.853 -0.6534  0.1995  1.0398
 4826TIP3   OH235968   5.419   2.953  15.632  0.1360  0.1179 -0.0417
 4826TIP3    H135969   5.382   2.873  15.593  0.6684  0.0056 -0.3284
 4826TIP3    H235970   5.371   3.024  15.590  0.7164 -0.0010 -0.9255
 4827TIP3   OH235971   3.592   1.564   5.906  0.0957  0.1559  0.7311
 4827TIP3    H135972   3.550   1.481   5.882  0.8485 -0.1683  0.5037
 4827TIP3    H235973   3.598   1.561   6.001 -0.3969  0.2050  0.7643
 4828TIP3   OH235974   2.477   2.432  12.530  1.0082  0.2892 -0.3772
 4828TIP3    H135975   2.554   2.465  12.578  2.2726 -0.3355 -1.9081
 4828TIP3    H235976   2.457   2.348  12.572  1.2937  0.3446 -0.1268
 4829TIP3   OH235977   3.546   4.040  15.652 -0.2268  0.6806 -0.2448
 4829TIP3    H135978   3.508   4.127  15.654  0.8295  1.1388  0.2746
 4829TIP3    H235979   3.511   3.996  15.730  0.8519  1.3542  0.6498
 4830TIP3   OH235980   5.028   1.640  12.177 -0.0285  0.0834  0.3559
 4830TIP3    H135981   5.103   1.688  12.214  1.3418 -1.3233 -0.4642
 4830TIP3    H235982   5.045   1.638  12.083 -0.6695 -0.9592  0.2476
 4831TIP3   OH235983   0.513   3.778   6.200  0.0043  0.0132 -0.2179
 4831TIP3    H135984   0.420   3.771   6.223  0.2158 -2.1588  0.2247
 4831TIP3    H235985   0.557   3.715   6.257  1.6291  0.3011 -1.0734
 4832TIP3   OH235986   4.884   6.052   3.623  0.8876 -0.7323 -0.3005
 4832TIP3    H135987   4.974   6.021   3.637  0.8302 -0.5357  0.5464
 4832TIP3    H235988   4.829   5.974   3.638  0.9168 -0.8782 -0.9224
 4833TIP3   OH235989   0.095   3.713  16.785  0.5666 -0.0041  0.2061
 4833TIP3    H135990   0.088   3.646  16.716  0.1614  1.9968 -1.8328
 4833TIP3    H235991   0.005   3.740  16.800  0.8796  1.6190 -0.6590
 4834TIP3   OH235992   2.163   2.461  15.004 -0.5666 -0.1065 -0.1974
 4834TIP3    H135993   2.249   2.421  14.991 -0.4198  0.1055  0.0929
 4834TIP3    H235994   2.105   2.412  14.947 -0.5528 -1.2573  0.7264
 4835TIP3   OH235995   1.670   5.911  14.096  0.1185 -0.0842  0.2371
 4835TIP3    H135996   1.742   5.854  14.068  0.8195  1.2164 -0.7628
 4835TIP3    H235997   1.621   5.928  14.015 -0.9615 -0.4556  0.7991
 4836TIP3   OH235998   6.303   4.250  15.625  0.2820  0.3583 -0.1673
 4836TIP3    H135999   6.295   4.183  15.557  0.6175 -0.4993  0.6076
 4836TIP3    H236000   6.244   4.320  15.598 -1.2226 -0.9076 -0.2527
 4837TIP3   OH236001   6.361   2.791  12.463 -0.2556  0.3794  0.4552
 4837TIP3    H136002   6.285   2.849  12.470 -1.6693 -1.3974  0.7994
 4837TIP3    H236003   6.323   2.704  12.450  1.7887 -0.3288 -1.3701
 4838TIP3   OH236004   2.438   3.512  15.923 -0.5281  0.8700  0.2735
 4838TIP3    H136005   2.344   3.513  15.943 -0.8273  0.2916 -0.9937
 4838TIP3    H236006   2.466   3.603  15.935 -1.1156  0.9441  1.1973
 4839TIP3   OH236007   2.126   0.883  13.165 -0.3300 -0.5535 -0.5614
 4839TIP3    H136008   2.115   0.789  13.149  1.6839 -1.1942  1.2636
 4839TIP3    H236009   2.214   0.891  13.202 -1.6832  1.5275  2.7452
 4840TIP3   OH236010   0.915   5.607   5.369 -0.1350 -0.0288 -0.1493
 4840TIP3    H136011   1.009   5.620   5.381 -0.4153  2.9383 -0.3585
 4840TIP3    H236012   0.899   5.637   5.279 -1.2886 -0.5872 -0.1398
 4841TIP3   OH236013   4.022   5.093  16.505  0.1306 -0.3252  0.0492
 4841TIP3    H136014   4.080   5.091  16.581  1.6401 -1.7350 -1.0604
 4841TIP3    H236015   4.010   5.001  16.481  0.5426  0.1093 -1.9930
 4842TIP3   OH236016   6.497   0.892   3.478  0.0463 -0.4243 -0.0732
 4842TIP3    H136017   6.430   0.904   3.411 -0.4946 -1.1515  0.3165
 4842TIP3    H236018   6.450   0.901   3.561  0.4516 -0.7822  0.2023
 4843TIP3   OH236019   5.062   3.978   4.153  0.1783 -0.3801  0.3237
 4843TIP3    H136020   5.135   4.040   4.149 -2.4548  3.0191 -0.1000
 4843TIP3    H236021   5.052   3.947   4.062  1.9774 -2.1955  0.6723
 4844TIP3   OH236022   6.006   2.564  12.354 -0.5523  0.1671 -0.2453
 4844TIP3    H136023   6.019   2.475  12.386  0.0962  0.5002  0.4643
 4844TIP3    H236024   6.087   2.609  12.378  0.1780  0.3292 -2.7829
 4845TIP3   OH236025   5.234   3.167  13.074  0.2043 -0.1190  0.0793
 4845TIP3    H136026   5.181   3.247  13.069 -1.2672 -1.0389  0.5488
 4845TIP3    H236027   5.309   3.192  13.129  0.7620  1.4413 -1.2861
 4846TIP3   OH236028   0.229   3.592   5.886  0.8259  0.0037  0.3783
 4846TIP3    H136029   0.314   3.632   5.868 -0.1957  2.2388  0.2253
 4846TIP3    H236030   0.168   3.638   5.829 -0.3788 -2.2794 -0.2816
 4847TIP3   OH236031   4.322   0.803   3.029  0.2542 -0.0401 -0.3040
 4847TIP3    H136032   4.354   0.778   2.942  1.3710 -1.1764  0.4007
 4847TIP3    H236033   4.361   0.888   3.045  0.5032 -0.0774 -0.6808
 4848TIP3   OH236034   2.457   3.473   4.848  0.4910 -0.4292 -0.3671
 4848TIP3    H136035   2.367   3.457   4.817 -0.1861 -0.8178  1.6450
 4848TIP3    H236036   2.480   3.557   4.810 -1.6373  0.8009  0.8390
 4849TIP3   OH236037   0.359   6.459   2.695  0.7361  0.5534 -0.0314
 4849TIP3    H136038   0.273   6.443   2.734 -0.0660 -0.0846 -1.9093
 4849TIP3    H236039   0.421   6.412   2.750 -0.2137  0.3524  0.8920
 4850TIP3   OH236040   0.934   2.699   5.847 -0.6237  0.2065 -0.2169
 4850TIP3    H136041   0.907   2.790   5.858 -0.1444  0.3431 -0.1530
 4850TIP3    H236042   0.907   2.676   5.758  0.4758  0.8396 -0.7349
 4851TIP3   OH236043   2.112   3.746  15.270 -0.1846 -0.0481  0.3479
 4851TIP3    H136044   2.105   3.805  15.344 -0.3673 -0.3227  0.5514
 4851TIP3    H236045   2.050   3.780  15.206 -1.5113 -0.9516  1.1067
 4852TIP3   OH236046   2.139   5.602  11.651  0.0984 -0.0498  0.6141
 4852TIP3    H136047   2.198   5.540  11.693  1.2468 -0.7481 -1.8503
 4852TIP3    H236048   2.076   5.547  11.604 -0.6137  0.6772  0.6946
 4853TIP3   OH236049   6.720   3.209  16.612 -0.6665  0.7065  0.7012
 4853TIP3    H136050   6.752   3.119  16.610 -0.4916  0.7470 -1.7778
 4853TIP3    H236051   6.624   3.199  16.613 -0.6476  0.5147  0.8463
 4854TIP3   OH236052   2.684   2.802   5.956  0.8158  0.0287 -0.4287
 4854TIP3    H136053   2.653   2.737   6.021 -1.0348  0.2079 -1.0648
 4854TIP3    H236054   2.765   2.764   5.922 -0.6259 -2.4540 -1.4079
 4855TIP3   OH236055   5.303   5.327   0.433 -0.3296  0.3947  0.3909
 4855TIP3    H136056   5.254   5.408   0.447 -0.9491  0.0068  0.4848
 4855TIP3    H236057   5.303   5.314   0.339  0.3314  0.8407  0.3196
 4856TIP3   OH236058   2.095   0.021   2.644  0.1445  0.6322 -0.2995
 4856TIP3    H136059   2.129  -0.067   2.629  1.1185  0.8598  0.4877
 4856TIP3    H236060   2.164   0.080   2.613 -0.7211  1.1384 -1.3231
 4857TIP3   OH236061   3.690   5.271  16.669 -0.3412 -0.0572 -0.2182
 4857TIP3    H136062   3.631   5.210  16.712 -3.1867  2.5295 -0.0784
 4857TIP3    H236063   3.705   5.234  16.583  0.6890 -2.4302  0.8861
 4858TIP3   OH236064   5.944   1.927  16.489  0.0093 -0.4236 -0.3364
 4858TIP3    H136065   5.950   1.860  16.557 -0.6888 -0.5759 -0.4186
 4858TIP3    H236066   5.850   1.936  16.473 -0.0047  1.4118  0.5155
 4859TIP3   OH236067   1.654   5.315   0.470 -0.1261  1.0200 -0.4259
 4859TIP3    H136068   1.571   5.267   0.460  0.0379  0.6040  0.1215
 4859TIP3    H236069   1.692   5.316   0.383  1.9036 -3.5897  0.0800
 4860TIP3   OH236070   1.385   5.519  16.167  0.1243  0.3315 -0.1215
 4860TIP3    H136071   1.305   5.526  16.115  0.9919  0.1113 -1.5192
 4860TIP3    H236072   1.456   5.530  16.104  1.2145  1.9111  1.2917
 4861TIP3   OH236073   0.620   3.022   3.311  0.2997  0.4148  0.1939
 4861TIP3    H136074   0.671   2.973   3.376 -1.3904  0.1903  1.4080
 4861TIP3    H236075   0.617   3.111   3.346  0.3546  0.5696 -0.1900
 4862TIP3   OH236076   0.134   2.786   4.754  0.2380  0.0033 -0.2673
 4862TIP3    H136077   0.145   2.833   4.837 -1.6209  1.2060 -0.6357
 4862TIP3    H236078   0.219   2.792   4.711  0.5351  1.5371  0.4757
 4863TIP3   OH236079   4.021   1.591  15.942  0.1439  0.0645 -0.1536
 4863TIP3    H136080   3.954   1.522  15.943  1.4122 -1.2835 -1.9498
 4863TIP3    H236081   4.015   1.632  16.028 -2.1094 -0.8542  0.1924
 4864TIP3   OH236082   4.482   0.040  14.000  0.6739 -0.7327 -0.8631
 4864TIP3    H136083   4.545   0.100  13.961 -0.3661  0.2602 -1.0690
 4864TIP3    H236084   4.438  -0.000  13.925 -0.6774  0.4805 -0.7592
 4865TIP3   OH236085   1.526   1.692  16.318 -0.2317 -0.8327  0.2176
 4865TIP3    H136086   1.494   1.637  16.390 -2.1393 -0.5024 -0.3078
 4865TIP3    H236087   1.615   1.716  16.343 -0.8179 -0.7860  2.4408
 4866TIP3   OH236088   2.148   5.348  16.602 -0.6010  0.0273 -0.0954
 4866TIP3    H136089   2.237   5.372  16.628 -0.4959  0.0866 -0.4947
 4866TIP3    H236090   2.155   5.330  16.508 -1.1206  0.5556 -0.2433
 4867TIP3   OH236091   2.707   6.130  14.559 -0.2614 -0.0482 -0.0356
 4867TIP3    H136092   2.705   6.167  14.647 -0.2212  0.1040 -0.0976
 4867TIP3    H236093   2.685   6.038  14.570  1.0659 -0.3434  0.2996
 4868TIP3   OH236094   4.844   4.210   0.722 -0.5300 -0.4179  0.1590
 4868TIP3    H136095   4.810   4.187   0.808  0.5470  0.8720  0.9641
 4868TIP3    H236096   4.892   4.291   0.736  2.7567 -2.0075 -0.8994
 4869TIP3   OH236097   3.046   6.268   3.728 -0.5206  0.1453 -0.4599
 4869TIP3    H136098   3.060   6.264   3.633 -1.4248  0.4488 -0.6171
 4869TIP3    H236099   3.074   6.356   3.753 -1.6567  0.5970 -0.7025
 4870TIP3   OH236100   4.854   0.189  14.019  0.2470 -0.0330  0.1212
 4870TIP3    H136101   4.896   0.123  13.964 -1.6098 -0.3226 -1.0337
 4870TIP3    H236102   4.860   0.270  13.968 -1.1514 -0.2213 -0.3745
 4871TIP3   OH236103   6.005   2.891   3.862  0.4403  0.0843 -0.5221
 4871TIP3    H136104   5.983   2.932   3.945 -2.7569 -0.9486 -0.6975
 4871TIP3    H236105   5.993   2.797   3.878  0.4154 -0.1873 -1.9750
 4872TIP3   OH236106   2.679   5.029  15.083 -0.3987  0.4277 -0.2797
 4872TIP3    H136107   2.668   4.963  15.152 -0.3720  0.4946 -0.2115
 4872TIP3    H236108   2.613   5.095  15.101 -0.2158  0.5806 -0.1585
 4873TIP3   OH236109   4.883   2.107  13.746 -0.1190 -1.1562  0.2040
 4873TIP3    H136110   4.827   2.168  13.698  0.5428 -0.3654  0.4292
 4873TIP3    H236111   4.971   2.145  13.741  0.4115 -2.3557 -0.1027
 4874TIP3   OH236112   1.403   0.696  11.867  0.2761  0.7033 -0.0472
 4874TIP3    H136113   1.418   0.776  11.816  1.3884  1.3026  1.1532
 4874TIP3    H236114   1.465   0.703  11.940 -1.1365 -0.1875  1.2859
 4875TIP3   OH236115   0.493   5.155  13.905 -0.1200 -0.3019  0.3395
 4875TIP3    H136116   0.403   5.128  13.921 -0.5450  0.2480 -1.0325
 4875TIP3    H236117   0.525   5.093  13.839  0.6098 -0.6504  0.9919
 4876TIP3   OH236118   5.559   4.660   7.041  0.2610 -0.0675  0.1317
 4876TIP3    H136119   5.625   4.601   7.005  0.4377  0.0964  0.1892
 4876TIP3    H236120   5.572   4.743   6.994 -0.0685 -0.1095 -0.0395
 4877TIP3   OH236121   4.536   3.113   0.961 -0.0004 -0.5535 -0.1661
 4877TIP3    H136122   4.550   3.073   0.875  0.6551  3.4738 -2.1765
 4877TIP3    H236123   4.474   3.184   0.945 -0.2079  0.0773  2.8135
 4878TIP3   OH236124   4.152   2.034   5.941 -0.2048 -0.2192  0.0102
 4878TIP3    H136125   4.170   1.944   5.912 -0.0334 -0.0112 -0.5326
 4878TIP3    H236126   4.225   2.085   5.906  0.1148  0.0081  0.9766
 4879TIP3   OH236127   3.692   1.903   6.285  0.2303  0.3732  0.3005
 4879TIP3    H136128   3.647   1.961   6.347  0.2963 -0.2631  0.9658
 4879TIP3    H236129   3.634   1.898   6.210 -0.7228 -0.2625  1.0585
 4880TIP3   OH236130   0.216   5.392  17.103 -0.5962 -0.5153  0.2204
 4880TIP3    H136131   0.191   5.438  17.184 -1.4371  0.7594 -0.7138
 4880TIP3    H236132   0.140   5.336  17.084 -0.2089 -1.1614  0.5363
 4881TIP3   OH236133   1.569   1.349   5.996  0.1767 -0.3774  0.5129
 4881TIP3    H136134   1.581   1.408   6.071 -0.4225  0.8327 -0.3053
 4881TIP3    H236135   1.493   1.295   6.020 -1.7116  1.7728 -0.2193
 4882TIP3   OH236136   5.227   5.799   4.367 -0.2705  0.1737  0.4419
 4882TIP3    H136137   5.247   5.772   4.278  1.5640  0.8895  0.5921
 4882TIP3    H236138   5.273   5.736   4.422  0.2170  0.8828  0.8498
 4883TIP3   OH236139   6.066   4.063   2.800  0.0468  0.3356  0.2101
 4883TIP3    H136140   6.145   4.059   2.854  0.6177 -0.3396 -0.6479
 4883TIP3    H236141   5.994   4.049   2.862  0.6491  0.0634  0.8652
 4884TIP3   OH236142   2.753   4.251  15.676 -0.2318 -0.2203  0.0266
 4884TIP3    H136143   2.842   4.277  15.698 -0.6296  0.5161  0.8446
 4884TIP3    H236144   2.750   4.252  15.581 -0.0216  2.1513 -0.0059
 4885TIP3   OH236145   1.930   2.763   1.925 -0.0706 -0.0735  0.5663
 4885TIP3    H136146   1.889   2.797   2.005  0.0770  1.6722 -0.0572
 4885TIP3    H236147   1.985   2.835   1.894  1.7923 -1.5791  0.1827
 4886TIP3   OH236148   2.033   1.775   5.319  0.5685  0.1574 -0.1274
 4886TIP3    H136149   2.087   1.696   5.326 -0.9843 -0.8756  0.5572
 4886TIP3    H236150   2.035   1.797   5.225  1.1535 -0.5908 -0.3007
 4887TIP3   OH236151   6.171   2.794   1.613  0.2500 -0.9624 -0.0326
 4887TIP3    H136152   6.079   2.792   1.640 -0.0454 -1.1420 -1.0132
 4887TIP3    H236153   6.215   2.735   1.675 -0.2803 -0.8487  0.4673
 4888TIP3   OH236154   0.151   1.332  17.092 -0.0030 -0.1899  0.0365
 4888TIP3    H136155   0.119   1.413  17.051  0.1267 -0.6249 -0.9695
 4888TIP3    H236156   0.154   1.269  17.020 -1.3292 -1.4729  1.0480
 4889TIP3   OH236157   6.128   3.110   2.817 -0.1049  0.6594 -0.2532
 4889TIP3    H136158   6.167   3.171   2.755 -1.7828  0.3488 -1.7119
 4889TIP3    H236159   6.035   3.131   2.815 -0.5443 -1.1212  0.1483
 4890TIP3   OH236160   1.631   4.009  14.315  0.5244 -0.0703 -0.6060
 4890TIP3    H136161   1.600   3.937  14.261  1.6694 -0.9031 -0.1987
 4890TIP3    H236162   1.559   4.027  14.375  0.0262 -0.5262 -1.0577
 4891TIP3   OH236163   3.354   0.602  16.895 -0.1836  0.5599  0.5356
 4891TIP3    H136164   3.358   0.518  16.940 -0.4023  0.5270  0.4905
 4891TIP3    H236165   3.268   0.604  16.854  0.7079 -0.2244 -1.4727
 4892TIP3   OH236166   2.598   6.412   1.345  1.0313 -0.2430  0.5140
 4892TIP3    H136167   2.692   6.427   1.350  1.0112  0.0949 -0.0137
 4892TIP3    H236168   2.574   6.438   1.256  0.2751  0.6332  0.9558
 4893TIP3   OH236169   0.076   3.886  14.267  0.0198  0.8668  0.5287
 4893TIP3    H136170   0.152   3.837  14.234 -2.3228 -2.9128  0.1325
 4893TIP3    H236171   0.029   3.913  14.188 -0.8585 -0.0733  0.7024
 4894TIP3   OH236172   1.519   2.865   5.744  0.6792 -0.4788 -0.0571
 4894TIP3    H136173   1.542   2.932   5.808 -0.2020  0.2331 -0.4540
 4894TIP3    H236174   1.424   2.873   5.734  0.7422 -0.8563 -1.1311
 4895TIP3   OH236175   6.698   5.888   0.096 -0.5517 -0.0218  0.6778
 4895TIP3    H136176   6.742   5.885   0.180 -0.4552  0.2580  0.6375
 4895TIP3    H236177   6.613   5.928   0.115  0.4647  2.5287  0.2206
 4896TIP3   OH236178   5.609   2.454   4.455 -0.3194  0.2101 -0.2353
 4896TIP3    H136179   5.595   2.503   4.536  1.3329  0.4338 -0.0484
 4896TIP3    H236180   5.557   2.374   4.465 -1.6325  1.0984  0.2175
 4897TIP3   OH236181   2.936   1.056  15.120 -0.1657 -0.0544 -0.1501
 4897TIP3    H136182   2.871   1.119  15.089  1.7204  1.3941 -1.4400
 4897TIP3    H236183   2.898   0.971  15.100 -1.6226  0.7375 -0.9493
 4898TIP3   OH236184   2.428   4.536  11.478  0.6519  0.1057  0.0127
 4898TIP3    H136185   2.523   4.550  11.482  0.9331 -1.4068 -0.8416
 4898TIP3    H236186   2.407   4.494  11.562  0.8082  0.0408  0.0205
 4899TIP3   OH236187   6.165   1.208   4.965 -0.4034  0.2200  0.1954
 4899TIP3    H136188   6.259   1.210   4.979 -0.1307  1.3238 -1.5706
 4899TIP3    H236189   6.153   1.159   4.884 -1.3340  0.4134  0.2022
 4900TIP3   OH236190   2.200   2.637   4.410  0.2923 -0.4916 -0.0043
 4900TIP3    H136191   2.243   2.645   4.496  2.6931  0.6310 -1.1901
 4900TIP3    H236192   2.234   2.556   4.373 -0.5586 -0.8546 -0.0157
 4901TIP3   OH236193   3.591   1.835  15.967  0.3388  0.4953 -0.3976
 4901TIP3    H136194   3.561   1.919  16.001  1.6563 -0.1514  2.8044
 4901TIP3    H236195   3.511   1.791  15.939 -0.5263  2.2787 -0.8830
 4902TIP3   OH236196   0.951   2.900   1.741 -0.2895  0.1386 -0.0318
 4902TIP3    H136197   1.013   2.973   1.745 -0.0935 -0.0160 -0.2396
 4902TIP3    H236198   0.869   2.941   1.714  0.2954  0.0102 -2.1698
 4903TIP3   OH236199   1.800   2.282   3.569  0.5244 -0.3268 -0.0079
 4903TIP3    H136200   1.750   2.228   3.508  3.0135 -0.8451 -1.7799
 4903TIP3    H236201   1.765   2.370   3.556 -0.6055 -0.8169 -0.4053
 4904TIP3   OH236202   4.315   3.175   5.565 -0.2398 -0.4706 -0.4132
 4904TIP3    H136203   4.405   3.155   5.591 -0.0339 -1.4602 -1.7493
 4904TIP3    H236204   4.297   3.260   5.604  0.6906 -0.9981  1.2462
 4905TIP3   OH236205   4.833   2.010   1.975  0.3916 -0.0171 -0.7243
 4905TIP3    H136206   4.740   1.990   1.964  0.9228 -2.7927 -0.9488
 4905TIP3    H236207   4.852   1.984   2.065  1.2002 -0.8350 -1.1127
 4906TIP3   OH236208   2.080   3.915   4.256 -0.3500 -0.2588 -0.1925
 4906TIP3    H136209   2.150   3.942   4.197 -0.7626 -1.2559 -1.1528
 4906TIP3    H236210   1.999   3.943   4.213 -0.6314 -0.4877  0.1742
 4907TIP3   OH236211   5.958   0.536   2.548  0.2318 -0.3110  0.5983
 4907TIP3    H136212   6.035   0.519   2.602 -0.0735 -1.9968  0.5551
 4907TIP3    H236213   5.991   0.535   2.458  0.4766  0.9437  0.6631
 4908TIP3   OH236214   0.114   5.672   2.329  0.7472 -0.0117 -0.0041
 4908TIP3    H136215   0.175   5.743   2.351  0.8217  0.0068 -0.2616
 4908TIP3    H236216   0.168   5.609   2.280  0.5772 -0.0338 -0.1632
 4909TIP3   OH236217   5.538   4.132   4.801 -0.0656  0.3698 -0.2760
 4909TIP3    H136218   5.509   4.209   4.753 -1.3916  0.4965  0.6512
 4909TIP3    H236219   5.613   4.098   4.752  0.5261  2.2209 -0.7072
 4910TIP3   OH236220   2.754   6.218   3.876 -0.4413  0.1267  0.1906
 4910TIP3    H136221   2.692   6.193   3.808 -1.2637 -0.1937  1.0339
 4910TIP3    H236222   2.840   6.196   3.840 -0.9115 -0.7015 -0.4655
 4911TIP3   OH236223   0.619   3.792   4.250  0.3558 -0.1285  0.3733
 4911TIP3    H136224   0.526   3.785   4.269  0.2682 -0.4624 -0.1809
 4911TIP3    H236225   0.639   3.716   4.197  0.8340  0.2239  0.0387
 4912TIP3   OH236226   5.538   1.567  10.857  0.0648  0.2792 -0.0538
 4912TIP3    H136227   5.479   1.497  10.886  1.1329 -0.9092 -0.6599
 4912TIP3    H236228   5.518   1.641  10.915 -2.0410 -0.0614 -0.2946
 4913TIP3   OH236229   2.837   4.086  12.043 -0.0394 -0.1707  0.2440
 4913TIP3    H136230   2.891   4.141  12.099 -0.1656  0.4151 -0.2049
 4913TIP3    H236231   2.753   4.131  12.039 -0.3065 -0.6546  0.2730
 4914TIP3   OH236232   2.150   5.058   4.042 -0.1409 -0.4688  0.3365
 4914TIP3    H136233   2.093   5.037   3.968 -1.2672 -0.8100  1.2717
 4914TIP3    H236234   2.182   5.146   4.023 -0.3622 -0.5728 -0.5740
 4915TIP3   OH236235   1.526   0.197  11.865 -0.5838  0.0928  0.2523
 4915TIP3    H136236   1.433   0.178  11.873 -0.6092  0.3366  0.5268
 4915TIP3    H236237   1.563   0.119  11.823 -0.6822 -0.5764  1.3853
 4916TIP3   OH236238   5.102   6.750   2.456 -0.6742  0.5816 -0.6066
 4916TIP3    H136239   5.139   6.778   2.373  0.5666  1.7946  0.3060
 4916TIP3    H236240   5.134   6.661   2.468 -0.8209  0.4186 -1.3981
 4917TIP3   OH236241   3.657   2.887  11.857  0.4641 -0.7206 -0.0325
 4917TIP3    H136242   3.575   2.911  11.901  0.9453 -1.7719  1.4902
 4917TIP3    H236243   3.704   2.834  11.920  1.4492 -1.8384 -1.6356
 4918TIP3   OH236244   1.504   2.571  12.229  0.4776  0.1531 -0.2061
 4918TIP3    H136245   1.534   2.549  12.317 -0.4700  2.2439  0.7168
 4918TIP3    H236246   1.439   2.640  12.242  0.5180  0.7368 -2.5647
 4919TIP3   OH236247   3.615   2.092   0.047 -0.4843 -0.3615  0.8416
 4919TIP3    H136248   3.666   2.168   0.076 -0.9088 -0.2547  1.3071
 4919TIP3    H236249   3.671   2.017   0.068  0.3972 -0.1407 -0.5697
 4920TIP3   OH236250   5.727   2.560  16.029 -0.2663  0.2379  0.8891
 4920TIP3    H136251   5.677   2.539  16.108 -1.8442  0.3889 -0.0274
 4920TIP3    H236252   5.779   2.637  16.054  0.6169 -0.7428  2.2747
 4921TIP3   OH236253   5.324   1.343  15.713  0.3153  0.0798  1.1868
 4921TIP3    H136254   5.370   1.273  15.666  1.1323  1.6243 -0.4556
 4921TIP3    H236255   5.245   1.359  15.661  1.3098  1.9200  0.1056
 4922TIP3   OH236256   6.079   6.728   5.451 -0.0915 -0.2455  0.7454
 4922TIP3    H136257   6.011   6.673   5.413 -0.4625 -0.2851  1.4505
 4922TIP3    H236258   6.117   6.774   5.376 -1.4028  0.3499  0.4131
 4923TIP3   OH236259   3.697   5.128  16.434 -0.4127  0.1425 -0.2409
 4923TIP3    H136260   3.779   5.086  16.458 -0.7383  0.4093  1.5574
 4923TIP3    H236261   3.690   5.117  16.340  1.3646 -0.4396 -0.3383
 4924TIP3   OH236262   3.177   0.246  12.144 -0.8014 -0.4952 -0.1964
 4924TIP3    H136263   3.252   0.187  12.147 -0.1749  0.2954  2.0793
 4924TIP3    H236264   3.176   0.280  12.054  1.0013 -1.2272 -0.5326
 4925TIP3   OH236265   6.460   1.878   5.106  0.6994 -0.6846  0.2271
 4925TIP3    H136266   6.528   1.826   5.064  1.0847 -0.4530  0.5646
 4925TIP3    H236267   6.434   1.825   5.182 -0.1265 -1.1916 -0.3815
 4926TIP3   OH236268   4.005   4.834   0.178 -0.2391  0.0800 -0.0040
 4926TIP3    H136269   3.944   4.875   0.240  0.9611  0.1103  1.1795
 4926TIP3    H236270   4.087   4.881   0.190 -0.0105  0.2080 -1.7738
 4927TIP3   OH236271   0.033   5.162  13.203  0.1137  0.6152 -0.0330
 4927TIP3    H136272   0.090   5.236  13.221  0.1652  0.6713 -0.4292
 4927TIP3    H236273   0.051   5.138  13.112 -1.0415  1.1354 -0.4300
 4928TIP3   OH236274   2.693   5.852  14.464 -0.2405 -0.0850 -0.3887
 4928TIP3    H136275   2.601   5.856  14.438 -0.6114  0.4454  0.9097
 4928TIP3    H236276   2.694   5.798  14.543  0.5410  0.0077 -0.3189
 4929TIP3   OH236277   4.552   2.924   2.885  0.3722  0.0753 -0.3143
 4929TIP3    H136278   4.541   2.970   2.802 -1.0595 -1.1469 -0.8572
 4929TIP3    H236279   4.465   2.927   2.926  0.1185 -2.3032 -0.5207
 4930TIP3   OH236280   4.963   2.163   3.638  0.9757  0.5331  0.5322
 4930TIP3    H136281   4.929   2.077   3.614  1.2027  0.9807 -1.5443
 4930TIP3    H236282   4.886   2.220   3.638  0.7537  0.2983  2.3306
 4931TIP3   OH236283   0.525   6.690   0.878  0.2618 -0.4719  0.4252
 4931TIP3    H136284   0.607   6.702   0.831 -0.8810 -1.4660 -1.9494
 4931TIP3    H236285   0.551   6.649   0.961  2.2380  0.3670  0.2726
 4932TIP3   OH236286   5.024   2.025   5.312 -0.2046  0.2684  0.2457
 4932TIP3    H136287   4.977   2.052   5.391  0.2130  1.6681  0.0409
 4932TIP3    H236288   5.015   1.930   5.311 -1.1261  0.3105  1.4009
 4933TIP3   OH236289   6.630   2.185  16.478 -0.0623 -0.0550 -0.5333
 4933TIP3    H136290   6.608   2.098  16.446 -2.8989  0.1596  0.5983
 4933TIP3    H236291   6.584   2.193  16.562 -0.1524  2.6515 -0.7476
 4934TIP3   OH236292   2.938   2.805  17.107  0.1376  0.5565 -0.4421
 4934TIP3    H136293   2.866   2.863  17.085 -1.2502 -0.3915  1.3943
 4934TIP3    H236294   2.926   2.729  17.050  1.2935  1.4890 -2.0236
 4935TIP3   OH236295   1.298   0.098   5.728 -0.4728 -0.6745 -0.4738
 4935TIP3    H136296   1.360   0.171   5.721 -0.6934 -0.4293  0.0903
 4935TIP3    H236297   1.253   0.098   5.643  0.4484 -1.0044 -0.9827
 4936TIP3   OH236298   4.887   0.265  11.744  0.1074  0.2510  0.3781
 4936TIP3    H136299   4.929   0.339  11.701  0.4103 -0.6847 -0.9790
 4936TIP3    H236300   4.903   0.191  11.686  1.1198 -1.2185  2.4115
 4937TIP3   OH236301   6.365   5.467   6.757  0.1131  0.1244 -0.5501
 4937TIP3    H136302   6.279   5.502   6.735 -0.1812 -0.0165  0.3255
 4937TIP3    H236303   6.349   5.412   6.834  1.0010  0.1770 -0.3195
 4938TIP3   OH236304   4.000   1.625   0.426  0.7900 -0.3719 -0.0717
 4938TIP3    H136305   4.025   1.535   0.404  0.9089 -0.9371  2.1433
 4938TIP3    H236306   3.934   1.616   0.495  0.4527  1.2481 -0.1361
 4939TIP3   OH236307   1.686   0.766   4.326 -0.2029 -0.3262 -0.0103
 4939TIP3    H136308   1.601   0.792   4.361 -1.1929 -1.8643 -1.1434
 4939TIP3    H236309   1.667   0.736   4.237  1.6809  0.1722 -0.6102
 4940TIP3   OH236310   1.466   3.629  11.774  0.0202 -0.4971 -0.1100
 4940TIP3    H136311   1.447   3.580  11.694  0.0009  1.9248 -1.7107
 4940TIP3    H236312   1.391   3.613  11.831 -0.0203 -2.1806 -0.6086
 4941TIP3   OH236313   0.175   4.988   2.729 -0.9178 -0.1857  0.2065
 4941TIP3    H136314   0.182   4.912   2.787 -2.4282 -0.6265 -0.1645
 4941TIP3    H236315   0.099   4.970   2.674  0.1805  0.4430 -1.6176
 4942TIP3   OH236316   5.889   5.671   4.102  0.7259 -0.7374  0.3746
 4942TIP3    H136317   5.966   5.625   4.070 -0.3768 -2.1634 -0.3297
 4942TIP3    H236318   5.822   5.654   4.037 -0.5333 -0.5753  1.5863
 4943TIP3   OH236319   0.386   5.404   0.784  0.1296  0.7093 -0.2417
 4943TIP3    H136320   0.406   5.458   0.708 -0.9284  2.6738  0.7942
 4943TIP3    H236321   0.420   5.317   0.762 -1.6218  0.7586 -3.6335
 4944TIP3   OH236322   4.664   0.625  15.807  0.3021  0.3591  0.2553
 4944TIP3    H136323   4.700   0.711  15.830  0.2229  0.6087 -0.5302
 4944TIP3    H236324   4.733   0.583  15.756  0.1658  0.1275  0.2619
 4945TIP3   OH236325   0.268   5.293  14.657  0.2498  0.5496  0.1973
 4945TIP3    H136326   0.225   5.349  14.721  1.7432  0.2761  1.5109
 4945TIP3    H236327   0.362   5.312  14.668  0.5512  2.5856 -3.8539
 4946TIP3   OH236328   3.387   2.652  17.440  0.0827 -0.1463 -0.6582
 4946TIP3    H136329   3.377   2.592  17.366 -1.4337 -0.5583 -0.1486
 4946TIP3    H236330   3.316   2.714  17.430 -0.4158 -0.4685  0.6938
 4947TIP3   OH236331   0.234   6.247   3.981 -0.3106 -0.1580 -0.3840
 4947TIP3    H136332   0.265   6.321   4.032 -0.5204  2.0763 -3.2523
 4947TIP3    H236333   0.163   6.209   4.033  1.8934 -0.4938  2.6434
 4948TIP3   OH236334   3.988   3.031  12.343  0.0089 -0.2719 -0.3063
 4948TIP3    H136335   4.081   3.012  12.337 -0.2524 -1.9531  0.3408
 4948TIP3    H236336   3.949   2.951  12.377 -1.7312  0.2580 -0.9024
 4949TIP3   OH236337   0.049   1.032  11.446  0.2179 -0.1572  0.1952
 4949TIP3    H136338   0.007   0.972  11.509 -1.3328  1.1315  0.4461
 4949TIP3    H236339  -0.000   1.019  11.365 -0.1379  0.7666  0.2543
 4950TIP3   OH236340   2.347   5.217   3.070  0.2927 -0.7287  0.4026
 4950TIP3    H136341   2.295   5.193   2.993 -0.1328  0.4904  0.2924
 4950TIP3    H236342   2.355   5.135   3.120  0.7339 -1.5784 -1.0138
 4951TIP3   OH236343   1.525   1.688  15.718 -0.0107 -0.0934  0.1405
 4951TIP3    H136344   1.581   1.684  15.795 -0.7248 -1.7079  0.6053
 4951TIP3    H236345   1.459   1.620  15.732 -0.0025 -0.6204 -2.0226
 4952TIP3   OH236346   3.420   0.164  14.891 -0.2321  0.1823  0.1774
 4952TIP3    H136347   3.426   0.104  14.817  2.8054  1.5986 -0.8960
 4952TIP3    H236348   3.360   0.233  14.862 -0.6108 -0.2840 -0.1610
 4953TIP3   OH236349   2.465   3.378   5.399  0.0708  0.8576  0.2034
 4953TIP3    H136350   2.556   3.364   5.423  0.8942  2.4544 -1.7261
 4953TIP3    H236351   2.444   3.306   5.340 -0.2711 -0.0539  1.3943
 4954TIP3   OH236352   0.500   2.533   2.582  0.0313  0.0445 -0.0413
 4954TIP3    H136353   0.539   2.450   2.608 -0.5266 -0.1690  0.1288
 4954TIP3    H236354   0.571   2.579   2.536 -0.0338 -1.0958 -1.3657
 4955TIP3   OH236355   1.185   1.632   6.431 -0.4372  0.6881 -0.3915
 4955TIP3    H136356   1.162   1.650   6.339  1.2052  0.3189 -0.9209
 4955TIP3    H236357   1.127   1.561   6.457  0.7337 -0.9817 -2.0170
 4956TIP3   OH236358   1.258   0.183  11.836 -0.6741  0.5374 -0.6891
 4956TIP3    H136359   1.244   0.134  11.755  0.8163 -2.6449  0.8289
 4956TIP3    H236360   1.211   0.134  11.903 -1.0195  2.5233  0.6193
 4957TIP3   OH236361   1.810   0.592   2.317 -0.2009  0.0327  0.0744
 4957TIP3    H136362   1.754   0.631   2.251  1.2303  0.3031 -1.0341
 4957TIP3    H236363   1.779   0.629   2.400 -1.7257  0.0430 -0.4766
 4958TIP3   OH236364   2.858   5.287  12.116  0.7989  0.0833 -0.3011
 4958TIP3    H136365   2.835   5.370  12.075  0.7257 -0.0763 -0.5875
 4958TIP3    H236366   2.861   5.225  12.043 -2.3528 -0.8903  0.2100
 4959TIP3   OH236367   0.381   2.687  14.288  0.0117  0.4737 -0.4439
 4959TIP3    H136368   0.362   2.734  14.369  0.6917  3.0905 -1.6836
 4959TIP3    H236369   0.324   2.728  14.223  2.1621  1.1508 -2.0169
 4960TIP3   OH236370   4.425   0.595   2.416  0.0065  0.1841 -0.0836
 4960TIP3    H136371   4.353   0.580   2.477  0.9538 -1.1683  0.7674
 4960TIP3    H236372   4.396   0.555   2.334  0.2521 -1.5651  0.6235
 4961TIP3   OH236373   0.124   6.280  11.371  0.3734  0.4493  0.1543
 4961TIP3    H136374   0.159   6.195  11.396  0.9269  0.2502 -1.2004
 4961TIP3    H236375   0.038   6.261  11.332  1.8445  0.0254 -3.2395
 4962TIP3   OH236376   0.633   1.467   2.224  0.2872  0.6623 -0.1227
 4962TIP3    H136377   0.545   1.504   2.237  0.2868  1.0336 -1.1517
 4962TIP3    H236378   0.617   1.374   2.206  0.1423  0.6400  0.1023
 4963TIP3   OH236379   5.409   0.653   6.588  0.3344  0.3429 -0.0592
 4963TIP3    H136380   5.377   0.607   6.666  0.6038  0.5560  0.1771
 4963TIP3    H236381   5.502   0.632   6.583  0.2186 -0.0696 -0.6078
 4964TIP3   OH236382   0.818   2.894  12.088  0.7058 -0.2737  0.3077
 4964TIP3    H136383   0.740   2.947  12.103  0.3952 -0.9513  1.1565
 4964TIP3    H236384   0.785   2.811  12.055  0.9575 -1.0005  1.8134
 4965TIP3   OH236385   2.253   2.809  16.696  0.0325 -0.2951  0.1739
 4965TIP3    H136386   2.224   2.750  16.765 -0.1698 -1.9115 -1.2066
 4965TIP3    H236387   2.323   2.861  16.736 -0.5500 -0.6872  1.7706
 4966TIP3   OH236388   2.602   3.643   4.019 -0.1261 -0.1031  0.1430
 4966TIP3    H136389   2.630   3.662   3.929 -0.1246  0.4306  0.2553
 4966TIP3    H236390   2.508   3.662   4.019 -0.7025 -2.5648 -0.4248
 4967TIP3   OH236391   6.451   3.933  14.588 -0.0082 -0.7281 -0.6132
 4967TIP3    H136392   6.403   4.011  14.560 -0.5104 -0.5677  0.6046
 4967TIP3    H236393   6.516   3.967  14.649  1.1659 -1.0421 -1.6684
 4968TIP3   OH236394   4.917   4.675  13.137  0.1479  0.2628  0.1574
 4968TIP3    H136395   4.893   4.589  13.100  1.2168  0.5559 -1.3107
 4968TIP3    H236396   4.941   4.727  13.061  0.9905  1.3940  1.1691
 4969TIP3   OH236397   2.390   5.723   2.337 -0.2488  0.8520 -0.0364
 4969TIP3    H136398   2.425   5.784   2.401  1.5569 -0.1563 -0.0113
 4969TIP3    H236399   2.467   5.683   2.296 -1.3591 -0.7331 -0.6936
 4970TIP3   OH236400   6.317   0.557  12.144  0.6500  0.2413  0.5359
 4970TIP3    H136401   6.411   0.550  12.162  0.2324 -1.9803  2.4521
 4970TIP3    H236402   6.275   0.531  12.227 -1.6293 -0.9472 -0.8690
 4971TIP3   OH236403   6.762   4.354   4.103  0.1005 -0.5963  0.0302
 4971TIP3    H136404   6.738   4.293   4.033  1.7413 -0.2144 -0.9178
 4971TIP3    H236405   6.858   4.353   4.103  0.1403  0.9750  0.8992
 4972TIP3   OH236406   2.130   2.644  15.848 -0.1019  0.7960 -0.6864
 4972TIP3    H136407   2.036   2.647  15.829 -0.5381  2.5759  1.3846
 4972TIP3    H236408   2.151   2.732  15.878  2.1746  0.3185 -0.7035
 4973TIP3   OH236409   2.293   5.126   0.081 -0.4791  0.5078 -0.3725
 4973TIP3    H136410   2.325   5.072   0.008 -2.0473 -0.9420 -0.0631
 4973TIP3    H236411   2.309   5.073   0.159 -1.6898  0.6347 -0.0155
 4974TIP3   OH236412   2.502   3.391   3.115 -0.4012 -0.1022  0.1159
 4974TIP3    H136413   2.582   3.384   3.063 -1.4867 -1.2043 -1.5156
 4974TIP3    H236414   2.485   3.301   3.144 -0.8890  0.1783  0.7176
 4975TIP3   OH236415   3.654   5.939   3.544  0.4320  0.0716 -0.2463
 4975TIP3    H136416   3.696   6.020   3.518 -0.7169  0.6877 -0.2462
 4975TIP3    H236417   3.698   5.913   3.625  2.0399 -0.2984 -1.2038
 4976TIP3   OH236418   6.029   6.426   3.652 -0.1124 -0.0350 -0.1859
 4976TIP3    H136419   6.097   6.376   3.697  2.1743  1.1382 -2.1297
 4976TIP3    H236420   6.028   6.392   3.563 -0.0319  1.8455 -0.9543
 4977TIP3   OH236421   1.308   5.705  13.742  0.5943 -0.3512 -0.4089
 4977TIP3    H136422   1.385   5.663  13.782 -1.7992 -2.6445  2.2125
 4977TIP3    H236423   1.296   5.785  13.792 -0.2669 -1.4187  1.1961
 4978TIP3   OH236424   4.054   4.640  14.340  0.4215  0.3097 -0.5128
 4978TIP3    H136425   4.137   4.676  14.372  1.4304 -0.5363 -2.0258
 4978TIP3    H236426   4.023   4.705  14.277  0.5756  0.0740 -0.8380
 4979TIP3   OH236427   0.804   2.159  13.245 -0.4063 -0.9753  0.4533
 4979TIP3    H136428   0.897   2.136  13.252 -0.1514 -0.5894 -1.2175
 4979TIP3    H236429   0.779   2.184  13.333  1.4333  0.2187  0.6887
 4980TIP3   OH236430   0.767   0.534  10.496  0.3975  0.3556  0.4552
 4980TIP3    H136431   0.817   0.516  10.416  0.6415  0.4044  0.5950
 4980TIP3    H236432   0.698   0.467  10.497 -0.3306  1.0657 -0.3960
 4981TIP3   OH236433   2.721   5.196  15.334  0.1980 -0.8375 -0.5659
 4981TIP3    H136434   2.665   5.194  15.412  0.7295 -1.6551 -0.1926
 4981TIP3    H236435   2.810   5.200  15.368  0.4067 -0.4261 -1.1477
 4982TIP3   OH236436   0.571   3.418   0.747  0.2871  0.1300  0.1740
 4982TIP3    H136437   0.488   3.464   0.761 -0.5251 -1.2870  0.3313
 4982TIP3    H236438   0.590   3.430   0.654  0.3942  1.2123  0.3230
 4983TIP3   OH236439   1.267   1.190   0.589  0.0282  0.4891 -0.2361
 4983TIP3    H136440   1.253   1.222   0.500 -2.0333  2.1565  0.5874
 4983TIP3    H236441   1.229   1.258   0.645  1.2680 -0.5040  1.9258
 4984TIP3   OH236442   6.023   2.218  13.875 -0.1507  0.3457 -0.5908
 4984TIP3    H136443   6.035   2.124  13.864  1.5636 -0.0541  3.0118
 4984TIP3    H236444   5.930   2.228  13.897 -0.3726 -0.4642 -1.1051
 4985TIP3   OH236445   4.569   5.861   5.569  0.0280 -0.7096 -0.2923
 4985TIP3    H136446   4.607   5.894   5.487 -2.8660  0.6231 -1.2067
 4985TIP3    H236447   4.608   5.916   5.637  3.4841 -2.6740 -0.4529
 4986TIP3   OH236448   0.648   1.109   4.966  0.3168 -0.5385  0.3790
 4986TIP3    H136449   0.709   1.177   4.940  1.4286 -1.8132 -0.4725
 4986TIP3    H236450   0.640   1.119   5.061  0.4684  0.7451  0.2713
 4987TIP3   OH236451   5.173   3.132   2.691 -0.8925 -0.0386 -0.1842
 4987TIP3    H136452   5.211   3.200   2.746 -0.4541  0.5513 -1.1876
 4987TIP3    H236453   5.216   3.143   2.606 -0.8966 -1.4917 -0.4036
 4988TIP3   OH236454   1.220   2.455  12.379  0.7858 -0.5224  0.0930
 4988TIP3    H136455   1.220   2.445  12.474  2.7257 -1.8813  0.0262
 4988TIP3    H236456   1.192   2.370  12.346  4.3797 -1.6352 -0.4951
 4989TIP3   OH236457   6.759   6.359  12.616  0.3592  0.0439  0.1985
 4989TIP3    H136458   6.751   6.356  12.521  1.0607 -1.1264  0.1608
 4989TIP3    H236459   6.853   6.352  12.632  0.2494  0.2843  0.9811
 4990TIP3   OH236460   5.219   1.902   0.902 -0.1647  0.0091 -0.0576
 4990TIP3    H136461   5.146   1.947   0.944 -1.0572 -1.9407  0.6139
 4990TIP3    H236462   5.261   1.852   0.972  1.8138  1.0275 -0.4501
 4991TIP3   OH236463   2.141   3.820   3.824  0.8904  0.3681  0.0880
 4991TIP3    H136464   2.163   3.772   3.744  0.0034  0.8237 -0.4436
 4991TIP3    H236465   2.048   3.843   3.814 -0.1038 -2.0008  2.4868
 4992TIP3   OH236466   3.936   5.495  17.403  0.5042  0.2804 -0.3347
 4992TIP3    H136467   3.865   5.433  17.418  1.9316 -1.0933  1.0802
 4992TIP3    H236468   3.911   5.572  17.455 -0.1567  0.0077 -0.2296
 4993TIP3   OH236469   1.188   1.798  13.253 -0.5421  0.1348 -0.5393
 4993TIP3    H136470   1.151   1.750  13.179  0.4762 -0.5185 -0.6575
 4993TIP3    H236471   1.141   1.881  13.255 -2.8654 -1.1063  0.0821
 4994TIP3   OH236472   2.401   4.359   2.372  0.2203 -0.0671 -0.2064
 4994TIP3    H136473   2.365   4.272   2.386  0.2064 -0.0066  0.1389
 4994TIP3    H236474   2.358   4.414   2.437 -1.3134  0.6333 -1.7217
 4995TIP3   OH236475   6.608   5.637   2.319 -0.3446 -0.4855  0.2345
 4995TIP3    H136476   6.703   5.642   2.326 -0.3574  1.7648 -0.5277
 4995TIP3    H236477   6.588   5.544   2.333  1.7867 -0.7636  2.0318
 4996TIP3   OH236478   2.636   1.749  14.090  0.5128 -0.2832  0.0714
 4996TIP3    H136479   2.715   1.729  14.139  0.6114 -0.2423 -0.0712
 4996TIP3    H236480   2.607   1.834  14.124  1.8135  0.8500 -1.4758
 4997TIP3   OH236481   4.116   2.874  13.329 -0.6464 -0.1125 -0.1486
 4997TIP3    H136482   4.127   2.782  13.350  0.4214  0.5386  2.5700
 4997TIP3    H236483   4.191   2.896  13.275 -2.6754 -1.4954 -3.9061
 4998TIP3   OH236484   5.553   5.682   2.908 -0.1469 -0.3503  0.6588
 4998TIP3    H136485   5.619   5.684   2.839 -0.5019 -1.2961  0.2660
 4998TIP3    H236486   5.602   5.667   2.988  0.2352  0.3863  0.5690
 4999TIP3   OH236487   4.811   4.855   3.109 -0.0825 -0.5831 -0.4898
 4999TIP3    H136488   4.763   4.915   3.052  0.9034  2.1556  1.3288
 4999TIP3    H236489   4.899   4.852   3.073  0.6263  1.3877  0.8415
 5000TIP3   OH236490   3.303   5.533  15.368  0.7341 -0.2643  0.2691
 5000TIP3    H136491   3.391   5.540  15.332  0.5156  0.4240 -0.1516
 5000TIP3    H236492   3.245   5.557  15.296  0.3135  2.0134  1.2804
 5001TIP3   OH236493   5.428   0.877  13.283  1.0572 -0.1718 -0.3212
 5001TIP3    H136494   5.504   0.935  13.282  3.4826 -3.0986  0.6621
 5001TIP3    H236495   5.436   0.826  13.202  0.3427 -0.7560 -0.0338
 5002TIP3   OH236496   5.415   1.716  13.973 -0.2666 -0.2601 -0.1277
 5002TIP3    H136497   5.459   1.737  14.056 -0.9204  3.3019 -0.5376
 5002TIP3    H236498   5.436   1.790  13.916 -2.0954 -1.2884 -2.2496
 5003TIP3   OH236499   1.448   5.653  13.315 -0.2639 -0.2070  0.0602
 5003TIP3    H136500   1.502   5.681  13.389 -0.0808 -0.5660  0.0639
 5003TIP3    H236501   1.365   5.627  13.355 -0.5031  0.4920  0.0395
 5004TIP3   OH236502   6.087   1.644  11.933 -0.0110 -0.3401  0.2326
 5004TIP3    H136503   6.019   1.649  11.866  0.3936  2.8797 -0.0850
 5004TIP3    H236504   6.169   1.638  11.885  0.1521 -0.2346  0.4925
 5005TIP3   OH236505   5.305   2.828   3.731 -0.2094 -1.0573  0.2447
 5005TIP3    H136506   5.320   2.799   3.641  1.7778  1.2159 -0.2480
 5005TIP3    H236507   5.320   2.750   3.784 -2.8018 -2.8397 -1.3595
 5006TIP3   OH236508   5.337   2.576  12.706  0.1282 -0.7643  0.4124
 5006TIP3    H136509   5.315   2.607  12.793 -0.3237  0.8271 -0.2264
 5006TIP3    H236510   5.433   2.571  12.705  0.1301 -0.8323  1.0019
 5007TIP3   OH236511   4.388   5.075   1.178 -0.4167  0.6662 -0.4233
 5007TIP3    H136512   4.323   5.020   1.134  0.8741 -1.3998  0.1054
 5007TIP3    H236513   4.451   5.098   1.109  2.5899 -4.0356  0.3237
 5008TIP3   OH236514   3.218   1.428   3.073  0.1341 -0.3303 -0.3390
 5008TIP3    H136515   3.219   1.524   3.084 -0.5473 -0.3258 -0.2664
 5008TIP3    H236516   3.169   1.396   3.149  3.2170 -1.0316  1.5116
 5009TIP3   OH236517   1.261   1.862   6.171 -0.1458 -0.5422  0.3536
 5009TIP3    H136518   1.337   1.809   6.146 -0.8586 -1.1993 -0.4902
 5009TIP3    H236519   1.185   1.807   6.149 -1.0228  1.5470 -2.5392
 5010TIP3   OH236520   5.739   3.373  15.953  0.2470  0.8513 -0.4877
 5010TIP3    H136521   5.826   3.339  15.976 -0.9606 -1.9275  0.2598
 5010TIP3    H236522   5.706   3.311  15.888 -2.0187  0.6256  0.8127
 5011TIP3   OH236523   2.416   4.602  14.682 -0.2178  0.2823 -0.5192
 5011TIP3    H136524   2.338   4.617  14.629  0.5448  1.6984 -1.2913
 5011TIP3    H236525   2.439   4.689  14.716  1.1758 -0.0502 -0.5368
 5012TIP3   OH236526   4.670   5.698   0.245 -0.5197  0.2958  1.0242
 5012TIP3    H136527   4.655   5.657   0.330  2.7452 -1.0054  1.0998
 5012TIP3    H236528   4.704   5.785   0.266  1.8109 -0.5853  1.2182
 5013TIP3   OH236529   0.147   3.741  12.250 -0.2228  0.2230  0.1457
 5013TIP3    H136530   0.052   3.729  12.247 -0.0487 -1.1927 -0.4796
 5013TIP3    H236531   0.169   3.734  12.343 -0.5657 -0.9465  0.1485
 5014TIP3   OH236532   5.768   5.305   4.943  0.0085  0.2816 -0.3739
 5014TIP3    H136533   5.716   5.381   4.916 -1.5955 -1.0905 -1.4096
 5014TIP3    H236534   5.798   5.327   5.031 -3.0013  0.9132  0.6281
 5015TIP3   OH236535   5.541   3.079   0.655  0.4409 -0.8305 -0.1791
 5015TIP3    H136536   5.614   3.020   0.672  0.9081 -0.1515  0.2131
 5015TIP3    H236537   5.534   3.082   0.559  0.7694 -1.0829 -0.2119
 5016TIP3   OH236538   0.368   3.720   2.795  0.2064 -0.5464 -0.5773
 5016TIP3    H136539   0.275   3.715   2.773 -0.6311 -0.4832  2.5030
 5016TIP3    H236540   0.392   3.630   2.818  0.3059 -0.2292  0.6233
 5017TIP3   OH236541   2.745   3.276  11.867 -0.9193 -0.3534 -0.0375
 5017TIP3    H136542   2.739   3.357  11.816 -0.8700 -0.6968 -0.6048
 5017TIP3    H236543   2.729   3.302  11.957  2.9082  0.9937  0.4487
 5018TIP3   OH236544   4.916   1.159  12.460  0.3800 -0.0732 -0.5895
 5018TIP3    H136545   4.916   1.113  12.376 -0.9393  1.0904 -1.2566
 5018TIP3    H236546   4.824   1.165  12.485  0.6114  1.1607  0.0551
 5019TIP3   OH236547   0.132   2.910   0.241  0.1706  0.4435  0.0308
 5019TIP3    H136548   0.131   2.816   0.226  0.4621  0.3631  0.5093
 5019TIP3    H236549   0.063   2.924   0.307 -1.6485  0.8912 -1.8669
 5020TIP3   OH236550   2.294   5.568   1.979 -0.0457 -0.1751 -0.3226
 5020TIP3    H136551   2.246   5.501   1.932  0.6463 -0.7816 -0.1826
 5020TIP3    H236552   2.386   5.545   1.966  0.1729  0.1652  0.5771
 5021TIP3   OH236553   2.141   5.205  11.635 -0.5788  0.2093  0.3242
 5021TIP3    H136554   2.089   5.285  11.630  0.0741  0.6388  0.3683
 5021TIP3    H236555   2.116   5.166  11.719 -1.8318 -0.2976 -0.2497
 5022TIP3   OH236556   2.220   3.934   3.136 -0.4481 -0.5656  0.3441
 5022TIP3    H136557   2.223   4.029   3.131 -2.9874 -0.4523 -0.4974
 5022TIP3    H236558   2.199   3.916   3.228 -1.0403 -0.2441  0.2776
 5023TIP3   OH236559   3.810   4.637   0.301  0.7224  0.6591  0.3248
 5023TIP3    H136560   3.720   4.654   0.272  0.7332  1.1102  0.5493
 5023TIP3    H236561   3.814   4.675   0.389  1.2069  0.8517  0.2200
 5024TIP3   OH236562   3.857   4.978   1.380 -0.0354  0.5227  0.1189
 5024TIP3    H136563   3.844   4.886   1.358 -1.1478  0.8577 -0.7148
 5024TIP3    H236564   3.798   4.993   1.455 -0.0320  0.6146  0.1031
 5025TIP3   OH236565   5.527   3.795  13.400  0.0052  0.6077  0.0947
 5025TIP3    H136566   5.615   3.819  13.369 -0.1527 -1.1574 -1.9675
 5025TIP3    H236567   5.540   3.763  13.489  1.6655 -0.6806 -0.5602
 5026TIP3   OH236568   0.650   3.320  13.368 -0.4895 -0.2836  0.4093
 5026TIP3    H136569   0.735   3.327  13.411  0.2006  0.7466 -1.0492
 5026TIP3    H236570   0.640   3.403  13.322 -1.8975 -0.7429 -0.1591
 5027TIP3   OH236571   6.601   4.244  17.047 -0.5799 -0.3310  0.3838
 5027TIP3    H136572   6.694   4.255  17.026 -0.5812 -0.3701  0.3600
 5027TIP3    H236573   6.598   4.163  17.097 -0.6014 -0.3282  0.3869
 5028TIP3   OH236574   0.637   5.200  14.988 -0.1114  0.5031 -0.1815
 5028TIP3    H136575   0.589   5.232  15.064 -0.1454  1.9954 -0.7904
 5028TIP3    H236576   0.657   5.109  15.008 -0.6489  0.6986  1.3434
 5029TIP3   OH236577   1.102   3.828   2.613 -0.1270 -0.3125  0.7797
 5029TIP3    H136578   1.015   3.792   2.626 -0.8336 -0.7856 -3.6275
 5029TIP3    H236579   1.160   3.769   2.662 -2.0896 -0.9101  2.5130
 5030TIP3   OH236580   2.874   5.665   0.647 -0.7880  0.3511 -0.1431
 5030TIP3    H136581   2.919   5.708   0.719 -1.1593  1.2636 -0.4373
 5030TIP3    H236582   2.794   5.630   0.686  0.0951 -1.2273  0.3689
 5031TIP3   OH236583   1.845   0.167   1.256 -0.1799  0.0686  0.0654
 5031TIP3    H136584   1.850   0.258   1.286  0.9261  0.7871 -2.1021
 5031TIP3    H236585   1.878   0.116   1.330 -1.5714  1.3078  1.6333
 5032TIP3   OH236586   0.078   5.130   0.365  0.5605  0.7277 -0.1358
 5032TIP3    H136587   0.078   5.217   0.406  1.0202  0.8180 -0.3197
 5032TIP3    H236588   0.165   5.122   0.327  0.5120  0.1924 -0.1392
 5033TIP3   OH236589   6.050   4.426  11.871 -0.5769 -0.3730 -0.2393
 5033TIP3    H136590   6.057   4.392  11.782 -1.0232  1.1433 -0.9072
 5033TIP3    H236591   6.102   4.507  11.870 -0.5364 -0.3678  0.8960
 5034TIP3   OH236592   1.666   1.967   4.445 -0.1162 -0.0571 -0.1219
 5034TIP3    H136593   1.700   1.931   4.527  2.7475 -0.8347 -1.5002
 5034TIP3    H236594   1.644   1.890   4.392 -0.2267  0.3695 -0.7154
 5035TIP3   OH236595   0.697   0.171  11.408 -0.2392  0.1137 -0.2274
 5035TIP3    H136596   0.691   0.120  11.328 -0.6331 -1.4123  0.7187
 5035TIP3    H236597   0.726   0.257  11.380  1.6224 -0.9340 -1.7921
 5036TIP3   OH236598   0.108   4.288  11.788 -1.1039 -0.0827 -0.5497
 5036TIP3    H136599   0.077   4.298  11.878 -1.3702  0.3022 -0.6801
 5036TIP3    H236600   0.203   4.301  11.794 -1.1006 -0.2078 -0.3035
 5037TIP3   OH236601   3.824   5.751  16.911 -0.3264 -0.0173 -0.2931
 5037TIP3    H136602   3.873   5.669  16.914 -2.3970 -1.3122  0.1704
 5037TIP3    H236603   3.822   5.782  17.002 -1.0740 -0.4218 -0.1669
 5038TIP3   OH236604   3.473   5.514   2.850 -0.0100  0.0471 -0.3077
 5038TIP3    H136605   3.446   5.603   2.872 -0.4060  0.1916 -1.3169
 5038TIP3    H236606   3.483   5.515   2.755  0.6071 -0.8208 -0.2597
 5039TIP3   OH236607   2.893   2.714   2.405 -0.2542  0.5191  0.3583
 5039TIP3    H136608   2.931   2.748   2.323 -0.7437  0.2470  0.0165
 5039TIP3    H236609   2.840   2.787   2.438 -0.8639  0.2947 -0.0939
 5040TIP3   OH236610   1.506   1.169  15.506  0.2299 -0.1627  0.2211
 5040TIP3    H136611   1.533   1.200  15.592  2.1841 -1.3928  0.1080
 5040TIP3    H236612   1.474   1.248  15.462  1.1353  0.8874  1.3629
 5041TIP3   OH236613   6.209   1.328  17.348  0.1300  0.0485  0.2244
 5041TIP3    H136614   6.272   1.285  17.291 -1.1907 -0.5556 -0.8203
 5041TIP3    H236615   6.247   1.320  17.436  2.1382  0.8782 -0.4879
 5042TIP3   OH236616   4.557   6.709  13.702 -0.7300 -0.3089 -0.5370
 5042TIP3    H136617   4.629   6.760  13.666 -0.5970 -0.6067 -0.6993
 5042TIP3    H236618   4.598   6.628  13.734 -0.9673 -0.4168 -0.5004
 5043TIP3   OH236619   0.381   1.454   0.318 -0.1620  0.0210 -0.0309
 5043TIP3    H136620   0.473   1.444   0.343 -0.4960 -0.0041  1.2946
 5043TIP3    H236621   0.334   1.455   0.402 -1.4153 -0.4295 -0.7036
 5044TIP3   OH236622   5.535   2.753  14.338 -0.2898 -0.2078 -0.7508
 5044TIP3    H136623   5.626   2.771  14.361 -1.1593  1.0134  2.1443
 5044TIP3    H236624   5.500   2.838  14.308 -1.1448  0.0221  0.8059
 5045TIP3   OH236625   2.838   3.243  15.759  0.2239  0.8926 -0.0044
 5045TIP3    H136626   2.774   3.314  15.755 -1.5178 -0.6733 -1.5417
 5045TIP3    H236627   2.806   3.186  15.829  0.4794  0.5755 -0.1427
 5046TIP3   OH236628   0.030   0.771   5.100  0.2258 -0.0595 -0.3244
 5046TIP3    H136629   0.046   0.753   5.007 -0.6845 -0.4969 -0.4072
 5046TIP3    H236630   0.115   0.761   5.141  0.4476 -0.8853 -0.9614
 5047TIP3   OH236631   3.729   0.782   1.190 -0.0893 -0.0547  0.1567
 5047TIP3    H136632   3.698   0.796   1.280 -1.8361 -1.4937 -0.1788
 5047TIP3    H236633   3.702   0.862   1.144 -0.0907  0.2547  0.6790
 5048TIP3   OH236634   1.946   6.150  12.475 -0.1255 -0.2970 -0.1774
 5048TIP3    H136635   1.922   6.160  12.568 -1.3378  3.0264 -0.7156
 5048TIP3    H236636   1.867   6.115  12.434  0.2106 -1.1841 -0.0973
 5049TIP3   OH236637   2.205   1.701   3.793  0.0427 -0.7199  0.1464
 5049TIP3    H136638   2.196   1.779   3.848 -0.1442 -2.1079  2.2342
 5049TIP3    H236639   2.115   1.674   3.775  0.0962 -0.7996 -0.0014
 5050TIP3   OH236640   5.683   6.052  14.153  0.1967  0.3579  0.1144
 5050TIP3    H136641   5.683   6.091  14.241  0.1412  0.2167  0.1773
 5050TIP3    H236642   5.745   6.105  14.103  0.7632  0.0113  0.4291
 5051TIP3   OH236643   1.637   2.211  13.285 -0.6755 -0.1201 -0.3316
 5051TIP3    H136644   1.675   2.123  13.277 -0.8569 -0.1038 -1.4324
 5051TIP3    H236645   1.711   2.267  13.306 -0.4103 -0.4011 -0.5107
 5052TIP3   OH236646   5.693   1.097   3.421 -0.0906 -0.1282  0.5118
 5052TIP3    H136647   5.688   1.062   3.511 -3.4464 -1.7777 -0.1558
 5052TIP3    H236648   5.656   1.185   3.428  0.6889  0.1844  0.8786
 5053TIP3   OH236649   6.193   1.732  12.747 -0.3200 -0.1655 -0.8239
 5053TIP3    H136650   6.267   1.780  12.709 -1.4292  0.9258 -1.6789
 5053TIP3    H236651   6.234   1.668  12.806  1.3252  0.0106 -1.7072
 5054TIP3   OH236652   1.194   1.232  12.926 -0.1870  0.4380 -0.0008
 5054TIP3    H136653   1.148   1.211  12.845  2.8834  1.3979 -2.2180
 5054TIP3    H236654   1.220   1.147  12.962 -0.4467  0.0318 -0.7694
 5055TIP3   OH236655   5.168   4.348   5.350 -0.3267 -0.8368 -0.0016
 5055TIP3    H136656   5.175   4.260   5.388  0.8307 -0.5036  0.6026
 5055TIP3    H236657   5.207   4.338   5.263  1.6606 -0.5200  0.8019
 5056TIP3   OH236658   2.428   3.392  11.222  0.3989  0.4254  0.1539
 5056TIP3    H136659   2.482   3.348  11.287 -1.1927 -0.5435  0.8734
 5056TIP3    H236660   2.426   3.331  11.148  0.1542  0.3862  0.1932
 5057TIP3   OH236661   2.230   2.909  11.861  0.3712  0.3854  0.3614
 5057TIP3    H136662   2.170   2.880  11.793  1.2688  0.7943 -0.6409
 5057TIP3    H236663   2.301   2.845  11.859  1.2104  1.2950 -0.2509
 5058TIP3   OH236664   0.432   4.379   0.991 -0.6363 -0.3442 -0.0157
 5058TIP3    H136665   0.407   4.462   1.031  0.6084 -0.0067  0.0860
 5058TIP3    H236666   0.454   4.322   1.065  0.9001  0.0314 -0.1560
 5059TIP3   OH236667   5.231   1.356   5.208  0.1914  0.0543  0.4652
 5059TIP3    H136668   5.320   1.323   5.223 -0.0586 -0.9592 -0.1620
 5059TIP3    H236669   5.178   1.314   5.275  0.0504  0.0169  0.3315
 5060TIP3   OH236670   2.046   6.691  13.095 -0.3547 -0.0127 -0.1242
 5060TIP3    H136671   2.131   6.646  13.101 -0.3756 -0.1050 -0.5050
 5060TIP3    H236672   2.037   6.736  13.179  0.2215  0.2558 -0.2016
 5061TIP3   OH236673   3.541   0.630  12.002  1.1410 -0.1266 -0.6275
 5061TIP3    H136674   3.587   0.661  11.924  1.1383  0.4217 -0.4090
 5061TIP3    H236675   3.451   0.660  11.991  1.6868  2.2571  0.8175
 5062TIP3   OH236676   5.696   1.999  13.740  0.2410  0.3841  0.3148
 5062TIP3    H136677   5.771   1.949  13.771 -0.4907  0.2177  1.8702
 5062TIP3    H236678   5.708   2.003  13.645  2.0121  0.0467  0.4865
 5063TIP3   OH236679   0.634   1.493  13.410  0.4008 -0.6470  0.3205
 5063TIP3    H136680   0.571   1.531  13.349  0.1920  3.3721  2.6441
 5063TIP3    H236681   0.584   1.428  13.459 -0.7756 -0.4615 -0.5885
 5064TIP3   OH236682   5.498   4.016   0.231 -0.3997  0.4385  0.3198
 5064TIP3    H136683   5.477   3.993   0.322 -0.7002 -0.9273 -0.0651
 5064TIP3    H236684   5.510   3.932   0.187 -1.1470  1.0357 -1.1128
 5065TIP3   OH236685   2.212   6.138  15.040  0.6666 -0.6368  0.1588
 5065TIP3    H136686   2.199   6.177  14.954  0.9259  2.7337  1.4997
 5065TIP3    H236687   2.287   6.185  15.077 -0.0646 -1.2688  2.6179
 5066TIP3   OH236688   4.606   1.494  15.665 -0.3212  0.2403 -0.2222
 5066TIP3    H136689   4.572   1.422  15.612 -1.2163 -1.2349  2.1877
 5066TIP3    H236690   4.529   1.527  15.713  0.5720  0.9407  0.7880
 5067TIP3   OH236691   2.411   2.639   2.984 -0.0844 -0.6482 -0.3291
 5067TIP3    H136692   2.454   2.708   3.034  2.3180 -3.7102  2.2112
 5067TIP3    H236693   2.339   2.610   3.040 -0.2688 -1.0577 -0.7688
 5068TIP3   OH236694   3.580   3.780   3.700 -0.7781  0.0545  0.6946
 5068TIP3    H136695   3.601   3.707   3.759  0.4325  0.1254  0.3616
 5068TIP3    H236696   3.661   3.796   3.651 -1.4039  0.8024 -0.1270
 5069TIP3   OH236697   1.000   6.665  14.008 -0.0171 -0.5449 -0.5182
 5069TIP3    H136698   1.095   6.652  14.004  0.1282 -0.1091  0.9814
 5069TIP3    H236699   0.972   6.667  13.916  1.4927 -0.1220 -0.9904
 5070TIP3   OH236700   2.497   3.775  12.221 -0.2074 -0.0663  0.6132
 5070TIP3    H136701   2.537   3.771  12.134 -1.4176 -0.5103  0.0464
 5070TIP3    H236702   2.521   3.693  12.263  3.4430  1.6096  2.1744
 5071TIP3   OH236703   2.254   2.220  14.661 -0.6922  0.0034 -0.3989
 5071TIP3    H136704   2.340   2.252  14.634 -0.2405  0.4258  1.4056
 5071TIP3    H236705   2.193   2.256  14.596  0.4783 -0.4156 -1.7806
 5072TIP3   OH236706   2.854   0.957  14.016  0.0157  0.6256 -0.1757
 5072TIP3    H136707   2.888   0.882  13.968 -1.5354 -1.2594  1.4694
 5072TIP3    H236708   2.931   0.995  14.058  0.9029  0.2853 -1.4242
 5073TIP3   OH236709   5.981   2.956   5.092 -0.1397  0.0154  0.1059
 5073TIP3    H136710   6.068   2.992   5.073 -1.2774  1.2813 -3.8968
 5073TIP3    H236711   5.956   2.995   5.175  2.2699  1.3373  0.2955
 5074TIP3   OH236712   1.333   1.177   4.590 -0.0305 -0.4184  0.2783
 5074TIP3    H136713   1.246   1.190   4.553 -0.1483 -0.6571  0.4710
 5074TIP3    H236714   1.321   1.109   4.656  0.1874 -0.0135  0.7391
 5075TIP3   OH236715   3.611   4.076  12.253  0.4093 -0.1065 -0.7337
 5075TIP3    H136716   3.673   4.095  12.323  0.4009  2.4969 -1.3372
 5075TIP3    H236717   3.666   4.051  12.178  0.6897  0.8528 -0.8651
 5076TIP3   OH236718   0.319   5.922   5.574  0.0367  0.2286  0.2445
 5076TIP3    H136719   0.404   5.965   5.587  0.3425 -0.4005  0.3790
 5076TIP3    H236720   0.259   5.967   5.633  0.4690  0.1380  0.7562
 5077TIP3   OH236721   4.492   4.459  15.434 -0.0116 -0.0715 -0.1531
 5077TIP3    H136722   4.463   4.536  15.483  2.8164  0.5678  0.7389
 5077TIP3    H236723   4.542   4.408  15.498  0.5851 -1.1647 -1.4538
 5078TIP3   OH236724   3.986   5.562   6.116  0.2252 -0.5514 -0.0549
 5078TIP3    H136725   4.068   5.526   6.148  0.9769  0.5807 -0.6116
 5078TIP3    H236726   3.965   5.632   6.177  0.1099 -0.3069 -0.3700
 5079TIP3   OH236727   1.083   4.615   2.460 -0.1865 -0.5732  0.0561
 5079TIP3    H136728   0.999   4.661   2.462  0.8244  1.3253  0.8360
 5079TIP3    H236729   1.071   4.540   2.518 -1.2179 -0.0965  0.4811
 5080TIP3   OH236730   5.841   1.391   3.434  0.4954 -0.3912  0.4559
 5080TIP3    H136731   5.924   1.397   3.481  0.1326 -0.5659  1.1357
 5080TIP3    H236732   5.790   1.466   3.467 -0.3545 -1.4101  1.5464
 5081TIP3   OH236733   5.949   0.066   5.060 -0.0289  0.5749  0.0243
 5081TIP3    H136734   5.929   0.105   5.146 -1.1472  1.1293 -0.4620
 5081TIP3    H236735   6.044   0.067   5.054  0.0552  0.6841  1.1909
 5082TIP3   OH236736   2.655   1.695   0.442  0.5404  0.2019  0.3671
 5082TIP3    H136737   2.595   1.769   0.431  1.0034  0.4593 -0.5384
 5082TIP3    H236738   2.698   1.712   0.526 -1.1221 -0.3480  1.3628
 5083TIP3   OH236739   6.625   3.811  14.829 -0.3637 -0.4144 -0.8562
 5083TIP3    H136740   6.563   3.877  14.862  1.9872  1.2715  0.5758
 5083TIP3    H236741   6.698   3.863  14.795  0.4841 -2.3177 -2.0778
 5084TIP3   OH236742   3.576   5.748  16.800 -0.2530 -0.2377 -0.3333
 5084TIP3    H136743   3.671   5.748  16.790 -0.1745 -0.8692  0.3089
 5084TIP3    H236744   3.551   5.655  16.799 -0.5040 -0.2841  2.3908
 5085TIP3   OH236745   1.429   0.140  13.557  0.7344  0.2230 -0.0823
 5085TIP3    H136746   1.397   0.126  13.646  0.3010  2.2190  0.1297
 5085TIP3    H236747   1.515   0.098  13.555  0.8802  0.4193  1.3671
 5086TIP3   OH236748   3.334   0.581   2.116 -0.2383 -0.0511 -0.3106
 5086TIP3    H136749   3.360   0.506   2.062 -2.6046 -0.2435 -1.3273
 5086TIP3    H236750   3.306   0.542   2.199 -1.0496 -0.2878 -0.6815
 5087TIP3   OH236751   2.880   1.213  11.458 -0.1756  0.5596 -0.0983
 5087TIP3    H136752   2.904   1.271  11.385 -1.6444  1.5746  0.1781
 5087TIP3    H236753   2.905   1.126  11.428  2.7979  1.3268 -0.2419
 5088TIP3   OH236754   6.721   5.192   1.872  0.4416  0.2591  0.0210
 5088TIP3    H136755   6.790   5.163   1.812 -1.0816 -0.6625 -1.3603
 5088TIP3    H236756   6.688   5.273   1.833 -0.7788 -0.5181 -0.6338
 5089TIP3   OH236757   2.092   5.752  12.797  0.1578 -0.5916  0.4564
 5089TIP3    H136758   2.037   5.797  12.733  1.8155  0.9902  0.0928
 5089TIP3    H236759   2.153   5.701  12.745  1.5398  0.7319  0.7092
 5090TIP3   OH236760   1.746   5.714   3.149  0.1923 -0.0889  0.2963
 5090TIP3    H136761   1.822   5.725   3.206  1.4282  0.3396 -1.3409
 5090TIP3    H236762   1.708   5.801   3.141 -0.0987 -0.1842  0.5892
 5091TIP3   OH236763   3.162   4.731   3.990 -0.0571 -0.0594 -0.1543
 5091TIP3    H136764   3.132   4.680   3.915  1.2013  1.5461 -1.8342
 5091TIP3    H236765   3.257   4.719   3.991 -0.0916 -0.3775  1.4608
 5092TIP3   OH236766   0.918   0.843  16.255 -0.3864 -0.4189 -0.4049
 5092TIP3    H136767   0.918   0.922  16.310  1.5194 -0.4959 -0.2160
 5092TIP3    H236768   0.969   0.869  16.178  0.3791 -1.4802 -0.2795
 5093TIP3   OH236769   3.493   1.226   3.597  0.1587  0.0339  0.2236
 5093TIP3    H136770   3.553   1.215   3.671  0.8371  1.1757 -0.1165
 5093TIP3    H236771   3.410   1.191   3.628  0.5284  0.1286  1.3892
 5094TIP3   OH236772   3.917   2.226   4.586  0.1899 -0.3411  0.5548
 5094TIP3    H136773   3.993   2.168   4.575 -0.0965 -0.3815 -1.9658
 5094TIP3    H236774   3.950   2.313   4.566 -0.5898 -0.5282 -2.0155
 5095TIP3   OH236775   3.877   2.327  14.527  0.2485  0.5047  0.2762
 5095TIP3    H136776   3.930   2.266  14.578 -0.2742 -0.3174 -0.1574
 5095TIP3    H236777   3.829   2.377  14.592  2.6844  2.3776  0.7866
 5096TIP3   OH236778   4.190   6.677  11.545 -0.4240 -0.1657 -0.0683
 5096TIP3    H136779   4.259   6.638  11.491 -2.3696 -0.6266 -2.4287
 5096TIP3    H236780   4.109   6.637  11.513 -2.1313  2.7486  0.2170
 5097TIP3   OH236781   2.617   0.388   2.478  0.4903 -0.1966  0.0451
 5097TIP3    H136782   2.636   0.372   2.570  0.1706 -1.0149 -0.0272
 5097TIP3    H236783   2.543   0.449   2.479 -0.9290 -1.8640  0.3549
 5098TIP3   OH236784   1.276   2.529   0.279  0.0134 -0.0422  0.1288
 5098TIP3    H136785   1.280   2.623   0.263  0.3909 -0.2558 -1.0956
 5098TIP3    H236786   1.339   2.491   0.218 -1.1046 -1.2154 -0.3314
 5099TIP3   OH236787   4.078   5.101   6.025  0.4487 -0.4078 -0.0421
 5099TIP3    H136788   4.059   5.019   5.980 -1.6780 -0.3763  0.7145
 5099TIP3    H236789   4.174   5.109   6.020  0.5067 -1.7495 -2.1245
 5100TIP3   OH236790   0.738   5.841   5.584 -0.0685  0.2053 -0.2215
 5100TIP3    H136791   0.804   5.828   5.516 -0.9498  1.6650 -1.4376
 5100TIP3    H236792   0.709   5.753   5.607 -0.4900 -0.3241 -2.5307
 5101TIP3   OH236793   6.054   6.122  11.581  0.7117  0.3150  0.1062
 5101TIP3    H136794   6.116   6.049  11.580  1.8781  1.2612 -1.9554
 5101TIP3    H236795   6.106   6.199  11.559 -0.7210  1.6102  0.9901
 5102TIP3   OH236796   2.729   3.301   2.979  0.2516 -0.6454 -0.2826
 5102TIP3    H136797   2.771   3.374   2.934 -0.7719 -0.6347 -1.2349
 5102TIP3    H236798   2.781   3.290   3.059  0.4311  1.0941 -0.1333
 5103TIP3   OH236799   1.322   3.674   2.643  0.0859 -0.1333 -0.5758
 5103TIP3    H136800   1.302   3.584   2.669 -1.9822  0.2865 -0.5703
 5103TIP3    H236801   1.289   3.681   2.554  2.9085 -0.1801 -1.7158
 5104TIP3   OH236802   6.176   3.801   0.941  0.4696  0.6099  0.4869
 5104TIP3    H136803   6.085   3.827   0.954 -0.5934 -2.4207 -0.0200
 5104TIP3    H236804   6.188   3.802   0.846  0.7440  0.3349  0.5169
 5105TIP3   OH236805   3.747   0.660   2.086  0.0292 -0.2734 -0.5038
 5105TIP3    H136806   3.841   0.676   2.099 -0.0431 -0.6419  0.5565
 5105TIP3    H236807   3.705   0.740   2.118 -0.0112  0.0316 -1.2977
 5106TIP3   OH236808   0.212   1.915   0.933 -0.2702  0.3616  0.1437
 5106TIP3    H136809   0.290   1.960   0.965 -0.5583  0.8460  0.1675
 5106TIP3    H236810   0.140   1.955   0.981 -0.4956 -0.4069  0.4696
 5107TIP3   OH236811   4.356   0.096   6.210 -0.2151  0.4083 -0.3010
 5107TIP3    H136812   4.272   0.110   6.167  0.1737  2.1324 -0.5457
 5107TIP3    H236813   4.404   0.177   6.197  0.4411  0.5098  2.2271
 5108TIP3   OH236814   4.447   1.033  15.155  0.3588  0.0132  0.0630
 5108TIP3    H136815   4.421   0.991  15.237 -1.6839 -1.6313 -1.3384
 5108TIP3    H236816   4.365   1.062  15.116  1.3485  1.3158 -1.1457
 5109TIP3   OH236817   3.445   5.966   1.155  0.1048  0.5027 -0.2312
 5109TIP3    H136818   3.409   5.882   1.183  1.1263  0.5763  1.4481
 5109TIP3    H236819   3.539   5.953   1.155  0.2157  1.1096 -1.8738
 5110TIP3   OH236820   2.221   0.790   0.518 -0.0707 -0.1811  0.6008
 5110TIP3    H136821   2.210   0.711   0.571 -1.0985 -0.2382  0.3300
 5110TIP3    H236822   2.255   0.759   0.434 -0.0151 -0.2854  0.6623
 5111TIP3   OH236823   6.687   1.179   5.983  0.4121  0.2915  0.0956
 5111TIP3    H136824   6.642   1.099   6.008  3.3622 -1.3075  0.7651
 5111TIP3    H236825   6.741   1.153   5.908 -0.0003  2.2017 -0.9329
 5112TIP3   OH236826   5.306   1.924   1.505 -0.2304  0.0078 -0.0460
 5112TIP3    H136827   5.361   1.956   1.576 -0.3879  0.4701 -0.1286
 5112TIP3    H236828   5.287   1.833   1.528 -1.3910  0.5370  1.1996
 5113TIP3   OH236829   4.696   3.847   2.231 -1.0070 -0.1161  1.1487
 5113TIP3    H136830   4.683   3.911   2.300  0.0776 -0.3157  1.5708
 5113TIP3    H236831   4.674   3.763   2.272  0.2130 -0.3039  1.4681
 5114TIP3   OH236832   5.277   0.905  17.306 -0.6397  0.0738  0.0850
 5114TIP3    H136833   5.277   0.838  17.374 -2.3024 -2.2623 -1.9990
 5114TIP3    H236834   5.358   0.889  17.257  0.4889  1.6641  1.3544
 5115TIP3   OH236835   1.688   5.003   3.901  0.4418 -0.0724 -0.3365
 5115TIP3    H136836   1.710   5.065   3.831 -0.3941  0.7971  0.1463
 5115TIP3    H236837   1.595   5.019   3.918  0.4821 -0.7096  0.5395
 5116TIP3   OH236838   4.531   3.060   3.452 -1.0702 -0.5901  0.0374
 5116TIP3    H136839   4.537   3.098   3.540 -1.2726  1.2657 -0.6905
 5116TIP3    H236840   4.559   2.970   3.462 -2.1825 -0.7451  2.2087
 5117TIP3   OH236841   0.714   4.950   6.003 -0.3244  0.3803  0.4198
 5117TIP3    H136842   0.679   4.927   6.090  1.8227 -1.9914  0.7550
 5117TIP3    H236843   0.661   4.899   5.942  0.8246 -1.2485  0.7276
 5118TIP3   OH236844   4.016   1.955   0.399 -0.2916 -0.4730  0.0866
 5118TIP3    H136845   4.045   1.878   0.446  0.3933 -0.1731  0.1667
 5118TIP3    H236846   3.936   1.982   0.444  0.1624 -0.3966  0.8596
 5119TIP3   OH236847   0.455   3.819   5.915  0.3290 -0.0506  0.1880
 5119TIP3    H136848   0.368   3.860   5.909  0.5479  0.3175 -0.6784
 5119TIP3    H236849   0.468   3.803   6.008  0.3924  2.2434  0.6324
 5120TIP3   OH236850   4.342   1.222  16.135  0.0494  0.6201  0.5699
 5120TIP3    H136851   4.308   1.195  16.050  3.2873 -0.5541 -0.4905
 5120TIP3    H236852   4.323   1.148  16.193  0.6801  0.0227  0.0237
 5121TIP3   OH236853   1.215   3.617   1.872 -0.5370 -0.1060 -0.1308
 5121TIP3    H136854   1.146   3.576   1.924  0.2053 -0.1120  0.8822
 5121TIP3    H236855   1.293   3.614   1.928  0.3459 -0.2776 -1.3170
 5122TIP3   OH236856   1.840   0.574  12.277 -0.3412 -0.2182  0.7730
 5122TIP3    H136857   1.844   0.628  12.199  1.5313 -1.7012 -0.2507
 5122TIP3    H236858   1.787   0.498  12.251  0.4967 -0.8382  0.8235
 5123TIP3   OH236859   5.343   3.126   4.712  0.5563  0.4679 -0.0573
 5123TIP3    H136860   5.375   3.117   4.801 -0.7475 -0.2267  0.3730
 5123TIP3    H236861   5.273   3.191   4.718  2.1093  2.3328 -1.0535
 5124TIP3   OH236862   2.590   5.780  13.984  0.4740 -0.0674  0.6385
 5124TIP3    H136863   2.651   5.766  13.912 -0.2011 -0.4168  0.1250
 5124TIP3    H236864   2.573   5.692  14.019 -2.9372 -0.6434 -1.9021
 5125TIP3   OH236865   2.043   6.199  13.959 -0.3799 -0.2834  0.2090
 5125TIP3    H136866   2.035   6.211  13.865 -1.6677 -1.3318  0.1585
 5125TIP3    H236867   2.081   6.281  13.991  0.0387  0.0918 -1.2048
 5126TIP3   OH236868   2.473   2.208   5.365  0.0666 -0.2048 -0.2825
 5126TIP3    H136869   2.483   2.283   5.424  0.5887 -0.2333 -0.3302
 5126TIP3    H236870   2.393   2.164   5.396  1.0438 -0.9894  1.2812
 5127TIP3   OH236871   6.211   4.813  15.465 -0.0273 -0.2357 -0.0478
 5127TIP3    H136872   6.125   4.774  15.478 -0.2595  0.4483  0.5377
 5127TIP3    H236873   6.269   4.739  15.448 -0.6185 -0.7488  0.1398
 5128TIP3   OH236874   4.378   1.232  16.634 -0.2775 -0.4317  0.0280
 5128TIP3    H136875   4.338   1.162  16.582 -2.9732  0.8310  0.1893
 5128TIP3    H236876   4.333   1.311  16.604  2.4765  1.2407  0.0153
 5129TIP3   OH236877   5.897   5.609   5.017  0.7917 -0.6642 -0.4477
 5129TIP3    H136878   5.923   5.627   5.108  1.2198 -0.2546 -0.6491
 5129TIP3    H236879   5.932   5.682   4.967  0.4051 -0.8016 -0.9231
 5130TIP3   OH236880   1.878   4.781  15.342 -0.5142  0.2767 -0.2224
 5130TIP3    H136881   1.888   4.686  15.330  2.8473  0.5278 -0.4941
 5130TIP3    H236882   1.834   4.790  15.426  0.4543 -1.5861  0.5498
 5131TIP3   OH236883   5.294   0.201  10.830  0.3291 -0.3780  0.0684
 5131TIP3    H136884   5.342   0.119  10.841  1.1019 -0.1030 -1.0276
 5131TIP3    H236885   5.255   0.194  10.742  0.9277  0.6805 -0.2949
 5132TIP3   OH236886   6.632   2.944   3.474  0.3279 -0.1114 -0.5182
 5132TIP3    H136887   6.717   2.985   3.489  0.4701 -0.2151 -1.0213
 5132TIP3    H236888   6.570   3.000   3.521  0.9803 -1.6823  2.4324
 5133TIP3   OH236889   3.890   1.425   4.367 -0.1696 -0.5714  0.3504
 5133TIP3    H136890   3.983   1.413   4.386 -0.4985 -0.9960  1.8098
 5133TIP3    H236891   3.845   1.395   4.446 -1.5773 -0.8479 -0.5228
 5134TIP3   OH236892   1.601   4.064  13.278  0.3699  0.6096 -0.3065
 5134TIP3    H136893   1.689   4.028  13.286  0.7735  1.5624 -0.2518
 5134TIP3    H236894   1.599   4.136  13.341 -1.0915 -0.5810  1.0690
 5135TIP3   OH236895   5.559   1.236  11.778 -0.4902  0.3964 -0.2675
 5135TIP3    H136896   5.600   1.311  11.735 -0.5158  1.5878  1.6634
 5135TIP3    H236897   5.510   1.274  11.851  1.6936 -1.6502  2.4888
 5136TIP3   OH236898   4.985   1.553   2.404  0.3769  0.8600 -0.1391
 5136TIP3    H136899   4.924   1.628   2.405  0.1370  0.6666 -0.1633
 5136TIP3    H236900   4.954   1.497   2.475 -0.8638 -0.3371 -1.5573
 5137TIP3   OH236901   4.576   3.932   4.288 -0.0885  0.2539  0.3501
 5137TIP3    H136902   4.619   3.854   4.254 -0.1597  1.2769 -2.3946
 5137TIP3    H236903   4.646   3.997   4.295 -0.5650  0.9258 -0.8138
 5138TIP3   OH236904   1.565   1.464   0.592  0.5525  0.3078 -0.2344
 5138TIP3    H136905   1.637   1.404   0.612 -0.7344 -1.0542  0.4771
 5138TIP3    H236906   1.515   1.470   0.673 -1.3380 -0.4958 -1.2713
 5139TIP3   OH236907   0.675   5.771   2.384  0.0123 -0.1215  0.1693
 5139TIP3    H136908   0.627   5.715   2.323  0.5870  0.7015 -1.0656
 5139TIP3    H236909   0.613   5.840   2.406 -0.0663 -0.2140  0.2440
 5140TIP3   OH236910   5.205   0.320   4.356 -0.0071  0.2695 -0.2147
 5140TIP3    H136911   5.149   0.302   4.431 -0.5226 -2.0630 -1.0871
 5140TIP3    H236912   5.145   0.337   4.284  0.4754  0.9687 -0.4695
 5141TIP3   OH236913   2.040   6.498   5.520  0.5874 -0.4286 -0.1210
 5141TIP3    H136914   2.041   6.542   5.604  0.2112  0.9055 -0.7861
 5141TIP3    H236915   2.085   6.415   5.535  1.3757  0.2117  1.1575
 5142TIP3   OH236916   6.445   3.378  14.701 -0.2105 -0.2811 -0.7206
 5142TIP3    H136917   6.507   3.431  14.651  2.3454 -0.6223  1.8220
 5142TIP3    H236918   6.398   3.441  14.756  0.1929 -0.2745 -0.3718
 5143TIP3   OH236919   0.302   5.835   0.239 -0.3095  0.5736 -0.1766
 5143TIP3    H136920   0.365   5.890   0.193  1.0669  1.1148  2.1911
 5143TIP3    H236921   0.225   5.892   0.251  0.0665  1.0763 -0.1178
 5144TIP3   OH236922   3.687   4.544   1.642 -0.4294 -0.0050 -0.6056
 5144TIP3    H136923   3.780   4.534   1.664 -0.4313  0.5949 -0.3131
 5144TIP3    H236924   3.647   4.461   1.668  0.3556 -1.0585 -2.5507
 5145TIP3   OH236925   4.701   4.195   1.535  0.1902 -0.4889  0.1717
 5145TIP3    H136926   4.718   4.160   1.623 -1.5276 -0.0194  0.7333
 5145TIP3    H236927   4.666   4.120   1.486 -1.1129 -0.2187  0.6336
 5146TIP3   OH236928   5.296   1.653   5.978 -0.0624 -0.5213 -0.2570
 5146TIP3    H136929   5.364   1.664   6.045  0.6190  0.6623 -1.1048
 5146TIP3    H236930   5.240   1.584   6.012  1.8211 -1.8720  0.2598
 5147TIP3   OH236931   0.553   4.260   0.696 -0.0795  0.6971  0.3633
 5147TIP3    H136932   0.475   4.234   0.647  1.0260  1.0892 -1.6779
 5147TIP3    H236933   0.539   4.224   0.784 -2.2792  0.2667 -0.1138
 5148TIP3   OH236934   3.244   0.030  15.123  0.2342 -0.0928 -0.7496
 5148TIP3    H136935   3.186   0.017  15.048 -1.2508  1.2247  0.1082
 5148TIP3    H236936   3.320   0.074  15.087  1.5353 -3.2138 -2.1819
 5149TIP3   OH236937   0.979   0.237   1.889 -0.4074 -0.2116 -0.1768
 5149TIP3    H136938   0.945   0.165   1.943 -0.0711  0.3406  0.7833
 5149TIP3    H236939   1.062   0.260   1.930 -1.1496  1.6338  0.3744
 5150TIP3   OH236940   0.585   1.519  15.709 -0.1593 -0.0843 -0.4608
 5150TIP3    H136941   0.570   1.528  15.615 -2.6073 -0.4506 -0.1896
 5150TIP3    H236942   0.609   1.427  15.720 -0.3191 -0.1557 -0.6866
 5151TIP3   OH236943   0.447   1.159  14.428  0.0345 -0.2994  0.0080
 5151TIP3    H136944   0.452   1.198  14.341  1.8015  0.9285  0.5992
 5151TIP3    H236945   0.518   1.094  14.429  0.2485 -0.0612  0.6291
 5152TIP3   OH236946   0.549   0.851   5.006 -0.2513 -0.3460  0.2055
 5152TIP3    H136947   0.569   0.940   4.975 -0.8948  0.0753  0.9543
 5152TIP3    H236948   0.611   0.836   5.077  0.5197 -0.8990 -0.5630
 5153TIP3   OH236949   2.905   4.514   4.121  0.1289 -0.1622 -0.3331
 5153TIP3    H136950   2.816   4.549   4.109 -0.3253 -0.1683  2.4084
 5153TIP3    H236951   2.891   4.420   4.133  0.4239 -0.0771  0.7163
 5154TIP3   OH236952   1.434   5.253   5.677  0.1580  0.3415 -0.4288
 5154TIP3    H136953   1.341   5.231   5.682  0.0681  0.9154  1.1529
 5154TIP3    H236954   1.452   5.296   5.761  2.0046 -0.3777 -0.4203
 5155TIP3   OH236955   2.687   4.839   3.862  0.3354  0.3082  0.1646
 5155TIP3    H136956   2.610   4.870   3.816  0.5277 -0.6654 -0.8484
 5155TIP3    H236957   2.663   4.752   3.894  0.9919  0.0178 -0.1091
 5156TIP3   OH236958   3.026   6.177   5.883  0.0496  0.5431 -0.5977
 5156TIP3    H136959   3.058   6.184   5.973  0.6326  0.0133 -0.7589
 5156TIP3    H236960   3.069   6.249   5.836  0.9320 -0.1062 -0.7908
 5157TIP3   OH236961   4.930   2.922  15.969 -0.1657  0.6310  0.0528
 5157TIP3    H136962   4.960   3.009  15.943 -1.3661  0.9901 -0.1512
 5157TIP3    H236963   4.900   2.933  16.059 -0.0495  0.3607  0.1234
 5158TIP3   OH236964   3.642   1.234  17.007  0.0477  0.3626 -0.2514
 5158TIP3    H136965   3.619   1.146  16.979  2.1243 -0.2304 -0.2208
 5158TIP3    H236966   3.712   1.222  17.070 -0.8298  1.9736  1.1012
 5159TIP3   OH236967   0.614   3.591   2.055 -0.3462  0.1055 -0.4550
 5159TIP3    H136968   0.544   3.528   2.040  0.3662 -0.6052 -0.8565
 5159TIP3    H236969   0.571   3.665   2.098 -1.2717 -0.4664 -0.3760
 5160TIP3   OH236970   2.089   2.770  16.415 -0.1918 -0.2190 -0.7059
 5160TIP3    H136971   2.104   2.817  16.497 -0.9631 -1.4830  0.1937
 5160TIP3    H236972   2.116   2.680  16.433  1.0070 -0.2261 -2.3060
 5161TIP3   OH236973   3.673   4.371  11.977  0.7450 -0.1236 -0.2674
 5161TIP3    H136974   3.693   4.278  11.974 -0.8952 -0.5537  0.7133
 5161TIP3    H236975   3.737   4.408  12.037  2.2129 -0.3593 -1.6384
 5162TIP3   OH236976   3.554   0.515   1.376 -0.0476  0.0052  0.8457
 5162TIP3    H136977   3.634   0.546   1.418  0.4241 -1.4096  1.0507
 5162TIP3    H236978   3.572   0.424   1.354 -1.1129  0.0566 -0.3804
 5163TIP3   OH236979   3.810   3.343  16.669 -0.1962 -0.3037  0.0340
 5163TIP3    H136980   3.856   3.259  16.670  1.0834  0.3641 -0.0409
 5163TIP3    H236981   3.838   3.384  16.587 -1.3857 -0.0959 -0.2875
 5164TIP3   OH236982   1.331   1.299  17.336  0.6778 -0.1694  0.3268
 5164TIP3    H136983   1.299   1.210  17.323  1.7019 -0.4388 -0.4683
 5164TIP3    H236984   1.253   1.354  17.323 -0.1496 -0.9598  1.6768
 5165TIP3   OH236985   1.665   2.518   3.325  0.1391  0.2051 -0.2215
 5165TIP3    H136986   1.581   2.474   3.320  0.1971  0.0575  0.0834
 5165TIP3    H236987   1.653   2.599   3.275 -0.0950  0.0495 -0.4209
 5166TIP3   OH236988   6.581   5.360  12.171 -0.2657 -0.1223  0.0173
 5166TIP3    H136989   6.581   5.349  12.266  1.5507  1.4952  0.2526
 5166TIP3    H236990   6.514   5.299  12.140 -0.4942 -1.1007  2.2701
 5167TIP3   OH236991   2.658   2.094  15.551 -0.2522  0.3388 -0.2742
 5167TIP3    H136992   2.749   2.090  15.525 -0.3188 -0.1696 -0.4384
 5167TIP3    H236993   2.634   2.186  15.542  0.2621  0.4845 -0.1586
 5168TIP3   OH236994   4.889   3.035   4.915  0.1272  0.7555  0.0413
 5168TIP3    H136995   4.861   3.018   4.825  0.3340  3.5167 -0.6488
 5168TIP3    H236996   4.824   2.991   4.970  0.0162 -1.0046 -1.4193
 5169TIP3   OH236997   6.750   0.753   3.367  0.1190 -0.5052  0.3626
 5169TIP3    H136998   6.680   0.816   3.385 -0.4803 -1.3012  0.8535
 5169TIP3    H236999   6.831   0.803   3.380 -0.3173  0.7362 -1.2733
 5170TIP3   OH237000   2.820   1.707  16.267  0.2293 -0.0201 -0.1022
 5170TIP3    H137001   2.864   1.656  16.335  0.5051 -1.3211 -1.2249
 5170TIP3    H237002   2.816   1.796  16.303  1.7664 -0.3464  0.9541
 5171TIP3   OH237003   3.555   3.814   3.986 -0.3984  0.1040  0.6673
 5171TIP3    H137004   3.585   3.878   4.051 -0.8033  0.7965  0.1893
 5171TIP3    H237005   3.619   3.821   3.915  0.9189 -1.7274  1.5831
 5172TIP3   OH237006   3.212   4.634  13.781 -0.2542 -0.3453 -0.5778
 5172TIP3    H137007   3.196   4.680  13.864  0.0817  0.0618 -0.7335
 5172TIP3    H237008   3.166   4.687  13.715  3.1915  2.0643 -1.3751
 5173TIP3   OH237009   2.125   4.138  12.855 -0.8703 -0.1091  0.6645
 5173TIP3    H137010   2.055   4.073  12.860  0.0762 -1.1510  0.9803
 5173TIP3    H237011   2.205   4.086  12.845  0.1135  0.9320  2.6094
 5174TIP3   OH237012   2.401   6.398   6.449 -0.0016  0.1890  0.5246
 5174TIP3    H137013   2.328   6.380   6.390 -0.3396  1.4337  0.5426
 5174TIP3    H237014   2.427   6.488   6.428  1.0582  0.0150  1.0226
 5175TIP3   OH237015   0.579   5.467  16.684 -0.2712  0.9080  0.5511
 5175TIP3    H137016   0.495   5.436  16.649  1.4980 -0.7806 -2.6452
 5175TIP3    H237017   0.587   5.556  16.650 -1.0011  1.3333  1.4359
 5176TIP3   OH237018   3.900   4.188   5.678  0.1972  0.3797 -0.1513
 5176TIP3    H137019   3.962   4.222   5.743  1.6234 -1.6975 -0.3245
 5176TIP3    H237020   3.941   4.208   5.594 -0.2175  0.4853 -0.3313
 5177TIP3   OH237021   5.062   0.298   1.242  0.3123 -0.2951 -0.4881
 5177TIP3    H137022   5.063   0.368   1.307  1.3510 -0.3412 -0.4449
 5177TIP3    H237023   5.009   0.333   1.170  0.1464  0.2134 -0.1263
 5178TIP3   OH237024   5.772   3.969   6.249 -0.6479 -0.0437  0.4330
 5178TIP3    H137025   5.843   3.921   6.291 -0.7192 -0.6705 -0.1471
 5178TIP3    H237026   5.815   4.021   6.181 -0.4652  1.3685  1.5680
 5179TIP3   OH237027   5.956   0.637  12.634  0.0421 -0.4866  0.7207
 5179TIP3    H137028   6.011   0.668  12.562 -2.0747 -0.7197 -1.1271
 5179TIP3    H237029   5.983   0.546  12.646 -0.0408 -0.6681 -0.3165
 5180TIP3   OH237030   2.999   2.893   0.306 -0.5683 -0.2746  0.3643
 5180TIP3    H137031   3.053   2.955   0.355 -0.2242  0.0225 -0.3833
 5180TIP3    H237032   3.061   2.825   0.278 -0.8322 -0.6405  0.6524
 5181TIP3   OH237033   0.264   1.090  15.770  0.2113 -0.4817 -0.2333
 5181TIP3    H137034   0.313   1.072  15.690  0.8215 -0.6273  0.1624
 5181TIP3    H237035   0.176   1.059  15.752  0.4410 -0.8655 -0.7165
 5182TIP3   OH237036   4.535   6.733  11.546 -0.4917 -0.0603 -0.0540
 5182TIP3    H137037   4.518   6.742  11.452 -2.6473  0.2342  0.3052
 5182TIP3    H237038   4.502   6.646  11.568  1.0372 -0.5855  0.2528
 5183TIP3   OH237039   6.395   0.355  13.152 -0.2303 -0.7585  0.2118
 5183TIP3    H137040   6.385   0.388  13.063  0.0460 -0.4708  0.2840
 5183TIP3    H237041   6.322   0.294  13.164 -0.6177 -0.3406  0.0018
 5184TIP3   OH237042   2.843   4.617   3.743  0.7436 -0.7407 -0.1164
 5184TIP3    H137043   2.798   4.596   3.824  0.6076  0.3371  0.1108
 5184TIP3    H237044   2.929   4.575   3.751 -0.4446 -3.5453 -0.9197
 5185TIP3   OH237045   1.331   2.275   0.000  0.0034  0.1651  0.3842
 5185TIP3    H137046   1.369   2.220   0.068  1.7230  1.7737  0.8359
 5185TIP3    H237047   1.237   2.260   0.006  0.4062 -3.1762 -0.0104
 5186TIP3   OH237048   3.047   5.916  14.246 -0.0972  0.1286  0.3689
 5186TIP3    H137049   3.131   5.873  14.263 -1.3249 -2.0982  1.1990
 5186TIP3    H237050   3.000   5.912  14.329 -1.0493  1.3828 -0.0628
 5187TIP3   OH237051   1.274   0.439   5.150 -0.0139  0.1554  0.6205
 5187TIP3    H137052   1.230   0.426   5.234 -0.2594 -1.7402  0.2647
 5187TIP3    H237053   1.234   0.373   5.092  0.8450  0.7470 -0.7009
 5188TIP3   OH237054   3.003   0.322  11.862 -0.6075  0.3015  0.0470
 5188TIP3    H137055   2.958   0.244  11.829  1.2470 -0.1520 -1.5988
 5188TIP3    H237056   3.095   0.297  11.866 -0.3572  1.3238  2.9333
 5189TIP3   OH237057   6.020   1.174  14.681 -0.7904  0.3586 -0.3269
 5189TIP3    H137058   6.000   1.190  14.773 -1.3070 -0.2257 -0.3223
 5189TIP3    H237059   6.048   1.082  14.678  0.7084  0.8058 -0.5339
 5190TIP3   OH237060   1.043   4.079   3.004  0.4980  0.3321 -0.3671
 5190TIP3    H137061   1.032   4.086   2.909 -0.5287 -0.5212 -0.3356
 5190TIP3    H237062   1.061   3.986   3.019 -4.4266 -0.7434  0.6194
 5191TIP3   OH237063   0.256   1.039   2.474  0.1844 -0.2095 -0.1799
 5191TIP3    H137064   0.294   0.967   2.424  0.4089  1.0012 -1.8431
 5191TIP3    H237065   0.162   1.019   2.477  0.1835 -0.3506 -1.0240
 5192TIP3   OH237066   5.313   3.376  16.808 -0.0955  0.3484  0.1803
 5192TIP3    H137067   5.250   3.305  16.793  0.2859  0.0445  0.0225
 5192TIP3    H237068   5.350   3.394  16.721 -1.6359  2.1105 -0.1797
 5193TIP3   OH237069   5.620   2.400  15.139 -0.2840 -0.5850 -0.1686
 5193TIP3    H137070   5.596   2.484  15.099  0.9058 -0.3204 -0.3786
 5193TIP3    H237071   5.619   2.338  15.067  0.5785 -0.3750 -0.3734
 5194TIP3   OH237072   4.580   0.420   5.649 -0.0283  0.6361 -0.6504
 5194TIP3    H137073   4.575   0.501   5.597  0.3921  1.6369  0.8120
 5194TIP3    H237074   4.665   0.424   5.691 -0.9323  0.5964  1.2575
 5195TIP3   OH237075   2.366   5.789   3.541  0.0730  0.3016  0.5844
 5195TIP3    H137076   2.399   5.752   3.623 -0.4714 -0.9297  0.2794
 5195TIP3    H237077   2.350   5.712   3.486 -2.6269  0.8556  0.4788
 5196TIP3   OH237078   2.915   1.770   5.473  0.6987 -0.2258  0.5886
 5196TIP3    H137079   2.935   1.854   5.513 -0.1211  0.0632  0.4150
 5196TIP3    H237080   2.936   1.781   5.380 -0.8956  0.3244  0.2613
 5197TIP3   OH237081   1.345   2.399   2.620  0.2598 -0.2431 -0.0268
 5197TIP3    H137082   1.389   2.318   2.646 -1.4585 -0.9558  0.8375
 5197TIP3    H237083   1.378   2.465   2.681  0.4901 -0.6469  0.2880
 5198TIP3   OH237084   0.410   0.488  15.610  0.2864 -0.5160 -0.1473
 5198TIP3    H137085   0.406   0.546  15.686 -0.8604 -0.4987 -0.2045
 5198TIP3    H237086   0.439   0.404  15.646 -0.7991 -0.6613  0.4148
 5199TIP3   OH237087   0.122   2.388   5.137 -0.5284  0.0280 -0.3365
 5199TIP3    H137088   0.068   2.402   5.059 -0.2563 -0.1180 -0.5553
 5199TIP3    H237089   0.198   2.443   5.124 -1.0413  0.9460  0.4083
 5200TIP3   OH237090   0.894   1.821   5.644 -0.2514 -0.0160  0.4610
 5200TIP3    H137091   0.920   1.907   5.611 -2.2380  0.4220 -0.1067
 5200TIP3    H237092   0.907   1.826   5.738 -0.6337  1.0205  0.4648
 5201TIP3   OH237093   1.397   3.725   1.669 -0.9031 -0.1030 -0.1582
 5201TIP3    H137094   1.336   3.676   1.724 -1.1727 -1.0172 -1.2358
 5201TIP3    H237095   1.482   3.711   1.710 -1.1738 -0.3066  0.3461
 5202TIP3   OH237096   0.295   4.834  15.312  0.2662 -0.0455  0.1440
 5202TIP3    H137097   0.336   4.905  15.264 -0.0109 -0.7449 -1.1712
 5202TIP3    H237098   0.225   4.875  15.362  0.0570  0.5923 -0.6661
 5203TIP3   OH237099   2.407   4.980  17.339 -0.0201  0.5245  0.4621
 5203TIP3    H137100   2.417   4.889  17.309 -0.8454  0.6363 -0.1542
 5203TIP3    H237101   2.462   4.984  17.418 -1.9052 -1.2135  1.9703
 5204TIP3   OH237102   3.307   0.360   1.331 -0.2872 -0.1241  0.8321
 5204TIP3    H137103   3.300   0.434   1.391  0.0296  0.2361  0.4335
 5204TIP3    H237104   3.376   0.305   1.368 -0.5545 -0.2397  1.1537
 5205TIP3   OH237105   5.970   4.174  14.328 -0.4419  0.1077 -0.3545
 5205TIP3    H137106   6.052   4.136  14.295  1.8041  2.3671  2.0855
 5205TIP3    H237107   5.935   4.223  14.254  0.3969 -0.9114 -1.4693
 5206TIP3   OH237108   4.363   4.079   3.721  0.0710  0.0729 -0.3169
 5206TIP3    H137109   4.424   4.014   3.757 -0.4826 -1.3215 -1.7615
 5206TIP3    H237110   4.286   4.074   3.778  0.3922  0.1375  0.1245
 5207TIP3   OH237111   6.770   3.438  13.053 -0.1777 -0.2509 -0.3594
 5207TIP3    H137112   6.836   3.373  13.029  0.5248  0.4993 -0.5087
 5207TIP3    H237113   6.820   3.510  13.092 -0.8222  0.6041 -1.0521
 5208TIP3   OH237114   4.889   1.747   3.541  0.2151  0.6351  0.4183
 5208TIP3    H137115   4.799   1.720   3.526  0.0122  0.7898  1.2874
 5208TIP3    H237116   4.910   1.712   3.628  1.7541 -1.3927 -0.6545
 5209TIP3   OH237117   1.317   3.127   3.894 -0.5172 -0.1506 -0.0254
 5209TIP3    H137118   1.335   3.201   3.836 -0.2558  0.0287  0.2776
 5209TIP3    H237119   1.329   3.163   3.982 -0.5227 -0.5219  0.1286
 5210TIP3   OH237120   2.311   0.576  12.208  0.5043  0.3337  0.0702
 5210TIP3    H137121   2.220   0.553  12.188 -0.1088  2.4779  0.1440
 5210TIP3    H237122   2.314   0.584  12.303  0.9653 -0.3859  0.1262
 5211TIP3   OH237123   6.677   0.625  16.354 -0.2901 -0.2442  0.0413
 5211TIP3    H137124   6.695   0.652  16.444  1.6947  0.0346 -0.3858
 5211TIP3    H237125   6.597   0.672  16.330 -0.6655 -0.0864  1.5467
 5212TIP3   OH237126   1.257   3.484  16.596 -0.3519  0.1716  0.6240
 5212TIP3    H137127   1.194   3.442  16.654 -0.5943  0.6690  0.7298
 5212TIP3    H237128   1.325   3.517  16.655 -0.2914  0.1448  0.5685
 5213TIP3   OH237129   3.270   5.999   3.339  0.0464  0.3166 -0.1951
 5213TIP3    H137130   3.340   5.933   3.339  1.1765  1.4354  1.0966
 5213TIP3    H237131   3.189   5.948   3.345  0.6042 -1.0690 -2.7825
 5214TIP3   OH237132   4.483   2.792   2.130  0.0936  0.0004  0.3384
 5214TIP3    H137133   4.532   2.725   2.177  0.7781 -1.7148 -2.5936
 5214TIP3    H237134   4.548   2.858   2.108  0.5004 -0.7991 -0.9436
 5215TIP3   OH237135   4.359   4.749   4.444 -0.5991 -0.1356  0.0849
 5215TIP3    H137136   4.315   4.834   4.438  0.4947  0.3623 -1.8951
 5215TIP3    H237137   4.292   4.690   4.480 -1.5227  1.4510  1.0606
 5216TIP3   OH237138   2.470   3.033  13.226 -0.9069  0.0156 -0.0167
 5216TIP3    H137139   2.434   3.092  13.160 -1.7831  1.9774  2.1158
 5216TIP3    H237140   2.564   3.053  13.228 -0.9422  0.2201 -0.3484
 5217TIP3   OH237141   6.116   2.994  14.141 -0.3505 -0.3534  0.5062
 5217TIP3    H137142   6.078   3.043  14.068 -1.8181 -1.3101  0.5755
 5217TIP3    H237143   6.192   3.045  14.167  0.4913 -0.1978 -1.9586
 5218TIP3   OH237144   2.983   5.030   2.030  0.8469 -0.3663  0.7245
 5218TIP3    H137145   3.003   5.031   1.937  2.1052  2.7445  0.9124
 5218TIP3    H237146   3.064   5.001   2.073 -0.2014 -3.3934  0.9048
 5219TIP3   OH237147   2.652   6.480   0.439 -0.2301  0.6739  0.7123
 5219TIP3    H137148   2.581   6.503   0.379  0.5503  0.8845 -0.1519
 5219TIP3    H237149   2.730   6.520   0.401  0.3018  0.7608  1.8411
 5220TIP3   OH237150   1.844   4.200   3.925 -0.0505 -0.4831  0.2365
 5220TIP3    H137151   1.878   4.263   3.988  0.2051 -1.5369  1.1938
 5220TIP3    H237152   1.790   4.252   3.865  2.5739  1.1557 -0.9005
 5221TIP3   OH237153   6.604   0.266   6.124  0.6425  0.0921 -0.9252
 5221TIP3    H137154   6.631   0.349   6.163 -0.3580  0.6578 -1.3877
 5221TIP3    H237155   6.670   0.248   6.057  0.2464  1.1321 -1.6316
 5222TIP3   OH237156   3.556   0.531  12.684  0.0458 -0.4838 -0.0981
 5222TIP3    H137157   3.580   0.452  12.732  0.3092 -0.1968  0.2450
 5222TIP3    H237158   3.498   0.578  12.744 -2.5898 -1.8342 -1.4184
 5223TIP3   OH237159   3.913   2.421  13.806  0.2482 -0.6675  0.4866
 5223TIP3    H137160   3.973   2.363  13.760  0.2580 -0.4804  0.2662
 5223TIP3    H237161   3.919   2.505  13.761 -1.0346 -0.9614 -0.2765
 5224TIP3   OH237162   6.133   1.240   2.539 -0.2470 -0.4782 -0.3551
 5224TIP3    H137163   6.074   1.267   2.609  0.0975 -0.3331 -0.1214
 5224TIP3    H237164   6.074   1.212   2.468 -0.5957 -0.8174  0.0622
 5225TIP3   OH237165   1.906   0.246  17.417 -0.2329 -0.2497  0.5600
 5225TIP3    H137166   1.840   0.305  17.382 -0.7383 -1.2634 -0.2630
 5225TIP3    H237167   1.874   0.221  17.503  0.3532  1.2214  1.2416
 5226TIP3   OH237168   2.864   2.977   1.875  0.0205  0.5613  0.3391
 5226TIP3    H137169   2.848   2.916   1.803 -1.2501 -1.3925  2.1426
 5226TIP3    H237170   2.783   3.027   1.881 -1.2263 -1.4614  2.2615
 5227TIP3   OH237171   0.628   2.641  14.177 -0.5202  0.4681  0.3580
 5227TIP3    H137172   0.536   2.656  14.201  0.3572  0.7513  4.1226
 5227TIP3    H237173   0.650   2.715  14.121 -2.3520  0.8389  0.0478
 5228TIP3   OH237174   2.231   1.041  15.797 -0.4002  0.3916 -0.1823
 5228TIP3    H137175   2.188   1.093  15.728  1.3017  1.2910 -0.6468
 5228TIP3    H237176   2.279   1.106  15.849  1.5456 -0.6459 -0.5834
 5229TIP3   OH237177   6.400   2.963   0.740  0.0081 -0.3056  0.4282
 5229TIP3    H137178   6.404   2.904   0.664  0.0854  0.1682  0.0635
 5229TIP3    H237179   6.313   3.002   0.735 -0.0351 -0.3696  0.6578
 5230TIP3   OH237180   1.014   5.799  13.582  0.3076 -0.0585  0.2288
 5230TIP3    H137181   0.994   5.892  13.588  1.8449  0.2977  0.4643
 5230TIP3    H237182   1.015   5.769  13.673  0.0203 -0.2501  0.1682
 5231TIP3   OH237183   3.768   0.129  16.095  0.6589 -0.0691  0.5671
 5231TIP3    H137184   3.785   0.083  16.013  1.7233  1.0146  0.1611
 5231TIP3    H237185   3.689   0.087  16.130 -0.8931  0.6427 -1.8803
 5232TIP3   OH237186   2.925   0.769  11.230  1.2895  0.0281  0.2637
 5232TIP3    H137187   3.003   0.759  11.176  0.5799 -0.9699 -0.6094
 5232TIP3    H237188   2.856   0.794  11.168  0.6013 -0.5175  0.7977
 5233TIP3   OH237189   1.410   3.115  10.990  0.2172 -0.6392 -0.3525
 5233TIP3    H137190   1.346   3.153  11.050  0.3948 -0.3724 -0.3319
 5233TIP3    H237191   1.370   3.124  10.903 -0.4323 -1.8163 -0.1982
 5234TIP3   OH237192   0.101   5.048  16.542  0.1504  0.0936  0.5840
 5234TIP3    H137193   0.083   5.046  16.636  0.7863 -1.6738  0.6997
 5234TIP3    H237194   0.014   5.048  16.501 -0.1462  2.0379  1.1449
 5235TIP3   OH237195   5.829   4.815   0.944  0.0579  0.3659 -0.0189
 5235TIP3    H137196   5.737   4.833   0.964  0.4501  1.9362  0.5432
 5235TIP3    H237197   5.839   4.842   0.852  0.2294  1.4133  0.2943
 5236TIP3   OH237198   3.231   1.773   0.792  0.0423  0.1870 -0.0293
 5236TIP3    H137199   3.304   1.820   0.833  0.8471 -0.4746 -0.6622
 5236TIP3    H237200   3.230   1.804   0.702 -1.6850  1.5970  0.4156
 5237TIP3   OH237201   3.907   0.827   1.549 -0.6498 -0.3939 -0.2826
 5237TIP3    H137202   3.926   0.913   1.513 -1.6611  1.3949  2.9899
 5237TIP3    H237203   3.811   0.825   1.555 -0.5740 -0.6712  1.7702
 5238TIP3   OH237204   1.477   4.887  13.510 -0.1656  0.0511  0.2215
 5238TIP3    H137205   1.544   4.820  13.498  1.5634  1.8393 -0.6215
 5238TIP3    H237206   1.493   4.922  13.598 -0.6672 -0.2077  0.4208
 5239TIP3   OH237207   3.990   2.577   5.057 -0.4483  0.1881  0.3231
 5239TIP3    H137208   3.992   2.672   5.058  1.6958  0.1886  0.5299
 5239TIP3    H237209   4.076   2.550   5.088 -1.2656 -1.8456  1.0508
 5240TIP3   OH237210   0.041   0.532  11.738 -0.5882 -0.2222  0.2564
 5240TIP3    H137211   0.034   0.574  11.653 -0.0341  1.7589  1.1216
 5240TIP3    H237212   0.101   0.458  11.724 -1.6886 -0.8655 -1.3414
 5241TIP3   OH237213   4.787   1.765   2.404  0.1915  0.6401  0.5709
 5241TIP3    H137214   4.801   1.815   2.485 -0.6145  1.1496  0.4118
 5241TIP3    H237215   4.695   1.783   2.381 -0.5074 -1.8389  1.1312
 5242TIP3   OH237216   4.591   0.793   2.378  0.4572 -0.6503 -0.5786
 5242TIP3    H137217   4.523   0.731   2.404 -0.0910  0.5436  1.0468
 5242TIP3    H237218   4.615   0.767   2.289 -2.2351 -1.0498 -1.2731
 5243TIP3   OH237219   1.555   6.682   3.149  0.4830 -0.4797 -0.4245
 5243TIP3    H137220   1.460   6.669   3.151  0.1722  1.5600  1.8584
 5243TIP3    H237221   1.590   6.611   3.202  0.5706 -2.6683 -3.1627
 5244TIP3   OH237222   5.028   6.301   2.491 -0.2155 -0.1480  0.5884
 5244TIP3    H137223   4.990   6.234   2.434  0.8756 -0.2281 -0.0723
 5244TIP3    H237224   5.063   6.251   2.565 -0.6896 -0.1532  0.8116
 5245TIP3   OH237225   2.541   2.050   5.140 -0.6452  0.2641 -0.2726
 5245TIP3    H137226   2.552   2.073   5.232 -0.2760  0.9558 -0.4826
 5245TIP3    H237227   2.467   2.103   5.111 -0.5104  0.3421 -0.4743
 5246TIP3   OH237228   2.737   3.539  11.770 -0.0979 -0.4530 -0.3060
 5246TIP3    H137229   2.810   3.601  11.778  0.3192 -1.1434  1.8727
 5246TIP3    H237230   2.664   3.584  11.812  0.3008 -1.4939  1.6267
 5247TIP3   OH237231   5.612   2.255  11.314 -0.0093  0.0730 -0.0883
 5247TIP3    H137232   5.633   2.169  11.350 -2.7477 -0.3518  0.7149
 5247TIP3    H237233   5.622   2.244  11.219 -0.8420 -1.3210 -0.0415
 5248TIP3   OH237234   4.640   5.579   2.349  0.4246  0.2889 -1.2323
 5248TIP3    H137235   4.707   5.634   2.389  0.2772  1.4008 -2.4270
 5248TIP3    H237236   4.660   5.582   2.255 -0.2909 -0.7632 -1.4386
 5249TIP3   OH237237   5.718   4.972  13.427  0.3952 -0.3867 -0.0171
 5249TIP3    H137238   5.631   4.943  13.400  0.7554 -1.0808 -0.4537
 5249TIP3    H237239   5.758   5.008  13.348  0.1541  0.8354  0.3969
 5250TIP3   OH237240   2.168   4.491   1.959  0.3397  0.3393  0.0576
 5250TIP3    H137241   2.117   4.527   2.032 -0.8312 -1.2833  0.1034
 5250TIP3    H237242   2.233   4.558   1.940  1.0072  0.6536  2.9108
 5251TIP3   OH237243   3.104   6.658  12.989 -1.3412 -0.4149 -1.1653
 5251TIP3    H137244   3.122   6.685  12.899  1.7226  0.5456 -0.3972
 5251TIP3    H237245   3.131   6.566  12.992  0.0666 -0.0161 -0.9124
 5252TIP3   OH237246   5.411   1.755  11.019  0.1828 -0.1085  0.1251
 5252TIP3    H137247   5.376   1.815  10.953  2.0162  0.9001 -0.0189
 5252TIP3    H237248   5.336   1.731  11.073 -0.7488  1.7426 -0.2665
 5253TIP3   OH237249   4.168   4.738  15.058  0.3114 -0.3014 -0.3252
 5253TIP3    H137250   4.246   4.696  15.022 -0.5079 -1.3862 -0.9324
 5253TIP3    H237251   4.195   4.771  15.143  1.2791 -1.1756 -0.2679
 5254TIP3   OH237252   0.781   5.916   3.955 -0.2132 -0.0524  0.4366
 5254TIP3    H137253   0.858   5.860   3.939  0.4866  0.0867  2.9540
 5254TIP3    H237254   0.707   5.855   3.956 -0.2066 -0.1904 -2.0030
 5255TIP3   OH237255   3.176   1.722  13.156  0.2447  0.7262 -0.4740
 5255TIP3    H137256   3.088   1.691  13.177  0.0464  0.4344 -1.6862
 5255TIP3    H237257   3.215   1.743  13.241 -0.5086 -0.4378  0.1783
 5256TIP3   OH237258   4.776   3.736   6.619  0.1730  0.4201  0.2441
 5256TIP3    H137259   4.859   3.698   6.593 -1.4917 -2.3420 -1.5647
 5256TIP3    H237260   4.723   3.661   6.647 -2.4629  1.7026 -0.9408
 5257TIP3   OH237261   6.328   0.695  16.509 -0.2900 -0.4442 -0.0177
 5257TIP3    H137262   6.382   0.769  16.537  0.1074 -1.4648  2.1528
 5257TIP3    H237263   6.300   0.653  16.590  1.9312 -4.3912 -0.9660
 5258TIP3   OH237264   4.845   2.535   4.919  0.4197 -0.5724  0.1931
 5258TIP3    H137265   4.840   2.626   4.888  2.4225  0.0003  1.3432
 5258TIP3    H237266   4.868   2.485   4.841  0.3637  0.0724 -0.2489
 5259TIP3   OH237267   3.725   4.404  15.318 -0.3059  0.5563  0.3432
 5259TIP3    H137268   3.812   4.444  15.317 -0.5300  1.0472  0.3750
 5259TIP3    H237269   3.664   4.477  15.308 -0.7662  0.3572  1.4983
 5260TIP3   OH237270   2.641   5.008   5.087 -0.0783  0.3911  0.1450
 5260TIP3    H137271   2.596   5.093   5.086 -0.6851  0.0746 -0.5040
 5260TIP3    H237272   2.637   4.978   4.996 -0.2829 -0.5450  0.4494
 5261TIP3   OH237273   0.608   3.058   1.969  0.3834  0.1094 -0.0264
 5261TIP3    H137274   0.681   3.039   2.028 -0.6702  0.5442  1.4826
 5261TIP3    H237275   0.641   3.127   1.911  0.9400  0.8340  1.1212
 5262TIP3   OH237276   3.327   0.578  13.747  0.2110  0.1732 -0.0012
 5262TIP3    H137277   3.268   0.599  13.820  0.6886  0.9316  0.1755
 5262TIP3    H237278   3.270   0.538  13.681  0.0027 -1.7767  1.3000
 5263TIP3   OH237279   2.241   1.712  14.081 -0.0006  0.0746 -0.1861
 5263TIP3    H137280   2.235   1.639  14.020  0.5939  0.2067 -0.4099
 5263TIP3    H237281   2.300   1.775  14.039 -1.6383  1.3724 -0.6802
 5264TIP3   OH237282   6.741   6.357   3.652 -0.1851 -0.1244  0.5744
 5264TIP3    H137283   6.681   6.285   3.675 -0.4597 -0.4460 -1.0326
 5264TIP3    H237284   6.709   6.431   3.702 -0.1639 -0.9982  1.9441
 5265TIP3   OH237285   2.412   2.207  12.686 -0.3973 -0.5868  0.7154
 5265TIP3    H137286   2.376   2.252  12.763 -1.6633 -0.9531  0.3619
 5265TIP3    H237287   2.347   2.141  12.664 -1.2430  1.0066 -2.0525
 5266TIP3   OH237288   4.615   2.288  14.923  0.5397  1.2216 -0.1405
 5266TIP3    H137289   4.708   2.310  14.931  0.6029  0.7661  0.3862
 5266TIP3    H237290   4.569   2.368  14.952  0.7720  0.9739  0.9491
 5267TIP3   OH237291   2.749   6.456   1.033 -0.9506  0.0569 -0.0218
 5267TIP3    H137292   2.748   6.381   0.974 -0.4584  0.4023 -0.4693
 5267TIP3    H237293   2.825   6.441   1.089 -0.6042  0.4463 -0.3941
 5268TIP3   OH237294   0.159   0.982   3.755  0.0617 -0.3109 -0.1456
 5268TIP3    H137295   0.155   0.907   3.814 -0.2542  0.2635  0.5799
 5268TIP3    H237296   0.249   0.984   3.724  0.2940 -0.4691  0.5111
 5269TIP3   OH237297   3.721   5.071  12.578 -0.1429 -0.3690  0.1698
 5269TIP3    H137298   3.792   5.095  12.637 -0.6306 -0.2947  0.7361
 5269TIP3    H237299   3.672   5.152  12.563 -0.2259 -0.4578 -0.0552
 5270TIP3   OH237300   1.054   6.089   6.003 -0.1100  0.3077 -0.5143
 5270TIP3    H137301   0.988   6.040   5.954 -0.2968  0.3006 -0.2563
 5270TIP3    H237302   1.049   6.178   5.968 -0.3033  0.3233 -0.4507
 5271TIP3   OH237303   2.067   4.237   4.204 -0.3509 -0.0277  0.4331
 5271TIP3    H137304   2.151   4.245   4.160 -0.6134 -1.4753 -0.3972
 5271TIP3    H237305   2.013   4.307   4.167  0.1733  0.2895  0.2612
 5272TIP3   OH237306   5.593   0.213  11.625 -0.1009 -0.1980 -0.3748
 5272TIP3    H137307   5.509   0.252  11.650  0.2345 -0.0561  0.5881
 5272TIP3    H237308   5.595   0.218  11.529  0.6949  3.8725 -0.3393
 5273TIP3   OH237309   0.220   5.269   3.591 -0.2516  0.2050 -0.5678
 5273TIP3    H137310   0.298   5.218   3.571  0.6319  1.2058  0.1543
 5273TIP3    H237311   0.160   5.254   3.518  1.1552  0.4581 -1.8079
 5274TIP3   OH237312   5.280   1.782   2.671 -0.0466  0.5453  0.0434
 5274TIP3    H137313   5.226   1.745   2.741 -1.0269  0.1417 -0.8949
 5274TIP3    H237314   5.250   1.738   2.591  2.8164 -0.9643 -0.3360
 5275TIP3   OH237315   4.423   4.481  12.949 -0.4739 -0.7235  0.2734
 5275TIP3    H137316   4.490   4.497  13.016  1.0947 -1.2206 -1.1319
 5275TIP3    H237317   4.414   4.386  12.946 -1.0945 -0.6717  0.2782
 5276TIP3   OH237318   1.689   6.191  13.182  0.1258  0.2187 -0.1240
 5276TIP3    H137319   1.618   6.142  13.142  0.0823 -0.0823  0.3141
 5276TIP3    H237320   1.646   6.253  13.241  0.1959  0.5433 -0.4113
 5277TIP3   OH237321   1.645   2.316  15.839  0.0708 -0.1015 -0.0499
 5277TIP3    H137322   1.706   2.367  15.892  0.1667 -1.0552  0.7882
 5277TIP3    H237323   1.569   2.373  15.828  1.0754  1.0963 -1.1065
 5278TIP3   OH237324   4.909   2.134   3.147 -0.2251 -0.2095  0.4848
 5278TIP3    H137325   4.919   2.219   3.190  0.6690 -1.2594  2.5238
 5278TIP3    H237326   4.887   2.074   3.219 -0.8110 -1.7111 -0.8853
 5279TIP3   OH237327   5.863   3.451   2.714 -0.0143  0.1898  0.1137
 5279TIP3    H137328   5.803   3.444   2.639 -1.3050  1.3931  0.9851
 5279TIP3    H237329   5.849   3.370   2.763  0.2551 -0.2462 -0.5050
 5280TIP3   OH237330   6.284   3.737   5.034  0.2582 -0.1706 -0.1285
 5280TIP3    H137331   6.336   3.817   5.042 -0.4041  0.2360  0.1290
 5280TIP3    H237332   6.291   3.695   5.119  1.1459 -0.7344 -0.4600
 5281TIP3   OH237333   3.893   5.607   5.294 -0.5125 -1.1628  0.0877
 5281TIP3    H137334   3.900   5.639   5.384  0.0579  1.1278 -0.7081
 5281TIP3    H237335   3.914   5.514   5.300  0.3985 -0.8794  2.1950
 5282TIP3   OH237336   3.456   5.668  13.303 -0.0223 -0.1873 -0.2621
 5282TIP3    H137337   3.423   5.662  13.393 -0.2656 -0.8559 -0.3892
 5282TIP3    H237338   3.433   5.757  13.275  0.2237  0.0881  0.4000
 5283TIP3   OH237339   2.615   3.733   4.333 -0.6600  0.5502  0.7008
 5283TIP3    H137340   2.559   3.663   4.365 -2.5457  1.5241 -0.2711
 5283TIP3    H237341   2.566   3.813   4.352  0.5623  1.4801  0.0909
 5284TIP3   OH237342   6.120   3.838  12.886  0.4624  0.4082 -0.0094
 5284TIP3    H137343   6.131   3.742  12.886  2.6472  0.5769  2.1808
 5284TIP3    H237344   6.169   3.867  12.809  0.6631 -0.1615 -0.1054
 5285TIP3   OH237345   3.337   6.443   2.701 -0.3315 -0.3629  0.0360
 5285TIP3    H137346   3.424   6.477   2.677 -1.3855  2.7363  0.0943
 5285TIP3    H237347   3.347   6.412   2.791  0.9307 -1.0388 -0.3176
 5286TIP3   OH237348   1.002   4.465   6.205  0.0199  0.5834 -0.1825
 5286TIP3    H137349   0.911   4.495   6.205 -0.1781  0.0432  0.9257
 5286TIP3    H237350   0.998   4.378   6.246  0.9222  0.1929 -0.9056
 5287TIP3   OH237351   0.815   0.986   5.901  0.1975  0.3186  0.1583
 5287TIP3    H137352   0.729   0.992   5.942 -0.1401  0.7238 -0.5797
 5287TIP3    H237353   0.798   1.000   5.808  0.6243 -2.7936 -0.5124
 5288TIP3   OH237354   6.541   2.527   0.012  0.1932 -0.3241 -0.1160
 5288TIP3    H137355   6.633   2.522  -0.013  0.2262  0.0416 -0.0721
 5288TIP3    H237356   6.535   2.607   0.065 -0.3775  0.2908 -1.0875
 5289TIP3   OH237357   2.213   1.401   3.730 -0.0985  0.1235 -0.8406
 5289TIP3    H137358   2.154   1.468   3.696 -1.3357  0.0126  0.9546
 5289TIP3    H237359   2.203   1.328   3.669 -1.1507  0.4415 -1.0769
 5290TIP3   OH237360   5.113   0.536   3.662 -0.3601  0.2163 -0.0590
 5290TIP3    H137361   5.043   0.471   3.654 -1.9846  1.9471 -0.4898
 5290TIP3    H237362   5.116   0.557   3.755 -0.3857  0.1005 -0.0318
 5291TIP3   OH237363   6.089   1.285   2.057 -0.6845 -0.4657  0.3193
 5291TIP3    H137364   6.038   1.363   2.036  0.7852  0.3138 -0.4843
 5291TIP3    H237365   6.143   1.311   2.131 -0.7861 -0.9990  0.5832
 5292TIP3   OH237366   2.013   2.106  13.081 -0.0326 -0.6276 -0.4087
 5292TIP3    H137367   1.982   2.103  12.991  0.8924 -0.3503 -0.7507
 5292TIP3    H237368   1.986   2.022  13.118 -2.3964  0.1552 -0.2439
 5293TIP3   OH237369   5.041   1.627   4.422  0.2385 -0.6046 -0.3904
 5293TIP3    H137370   4.978   1.613   4.492  0.5870 -0.9499 -0.1396
 5293TIP3    H237371   5.019   1.713   4.387 -0.4675 -0.7902 -0.4137
 5294TIP3   OH237372   3.133   0.577  16.666  0.1741  0.9685  0.0686
 5294TIP3    H137373   3.086   0.528  16.598  0.8353 -0.7333  0.7682
 5294TIP3    H237374   3.165   0.655  16.621 -2.2156  1.5865 -0.7397
 5295TIP3   OH237375   1.568   5.116  13.054  0.2213 -0.0287 -0.5881
 5295TIP3    H137376   1.584   5.124  13.148  1.0725 -2.5567 -0.4542
 5295TIP3    H237377   1.650   5.143  13.013  0.6101 -1.0319 -0.4855
 5296TIP3   OH237378   4.110   3.423   4.594  0.0013 -0.1135 -0.3336
 5296TIP3    H137379   4.131   3.467   4.511  0.1422  2.2187  0.8442
 5296TIP3    H237380   4.195   3.410   4.636 -0.2085  3.0006  1.3912
 5297TIP3   OH237381   3.862   0.426   2.311 -0.5819 -0.3095  0.2579
 5297TIP3    H137382   3.767   0.427   2.319 -0.8771  0.7292 -2.3896
 5297TIP3    H237383   3.887   0.519   2.306  0.3719 -0.5912 -0.6135
 5298TIP3   OH237384   6.530   4.070   4.682  0.3611  0.4669  0.0275
 5298TIP3    H137385   6.579   4.041   4.605 -0.3160  1.7011 -0.8917
 5298TIP3    H237386   6.501   3.988   4.723  1.4147 -0.2287 -0.5570
 5299TIP3   OH237387   1.781   4.229   1.166 -0.1170  0.2787 -0.2850
 5299TIP3    H137388   1.848   4.184   1.218 -0.1347  1.3117  0.6641
 5299TIP3    H237389   1.706   4.169   1.167 -0.1540  0.3185  0.9830
 5300TIP3   OH237390   5.904   4.000  11.821 -0.3661  0.3466  0.5454
 5300TIP3    H137391   5.898   4.048  11.904  0.6594 -0.2348  0.9678
 5300TIP3    H237392   5.974   4.044  11.772 -0.8426  0.5742  0.0616
 5301TIP3   OH237393   4.744   5.384  12.742  0.2458 -0.1445 -0.0073
 5301TIP3    H137394   4.810   5.414  12.679 -0.1723 -0.9535 -0.8625
 5301TIP3    H237395   4.725   5.293  12.716 -1.4891  0.1858 -0.0647
 5302TIP3   OH237396   2.704   0.088  14.524 -0.2740  0.1921 -0.5826
 5302TIP3    H137397   2.790   0.129  14.519 -0.7007  1.0087 -1.4326
 5302TIP3    H237398   2.711   0.027  14.598  1.0361  0.2164 -0.6698
 5303TIP3   OH237399   6.402   2.170  16.654  0.4256 -0.6327  0.5865
 5303TIP3    H137400   6.376   2.221  16.731  0.3353  0.3188 -0.0718
 5303TIP3    H237401   6.365   2.083  16.671 -1.1856  0.0436  0.7856
 5304TIP3   OH237402   3.711   2.690   0.127 -0.2028  0.2517 -0.1956
 5304TIP3    H137403   3.637   2.641   0.163 -0.3471  0.1905 -0.5616
 5304TIP3    H237404   3.671   2.746   0.060  0.0307  0.4946 -0.1291
 5305TIP3   OH237405   0.201   6.234   1.053  0.4528 -0.1619  0.2999
 5305TIP3    H137406   0.289   6.197   1.055  0.3496 -0.3726  0.9829
 5305TIP3    H237407   0.188   6.260   0.961  0.3885 -2.1204 -0.2787
 5306TIP3   OH237408   4.383   3.828   2.641  0.0705  0.5975  0.0039
 5306TIP3    H137409   4.320   3.897   2.622 -1.2473 -0.5913 -0.1201
 5306TIP3    H237410   4.369   3.763   2.571  0.8118 -0.0962  0.4855
 5307TIP3   OH237411   2.319   5.664   6.713  0.1082  0.4086  0.5885
 5307TIP3    H137412   2.354   5.653   6.625 -0.2761 -0.7705  0.5543
 5307TIP3    H237413   2.259   5.738   6.707  0.0420  0.2935 -0.1530
 5308TIP3   OH237414   6.128   2.370   2.787  0.2339  0.0294 -0.3752
 5308TIP3    H137415   6.197   2.378   2.720 -0.9880  0.0649 -1.6814
 5308TIP3    H237416   6.074   2.297   2.756 -0.7487  0.4971  0.1991
 5309TIP3   OH237417   0.712   2.283   5.015  0.1976  0.8028 -0.1046
 5309TIP3    H137418   0.799   2.279   5.056  0.6063  2.7489 -0.6933
 5309TIP3    H237419   0.726   2.249   4.927 -0.4153 -2.1543  0.8331
 5310TIP3   OH237420   2.008   3.243  16.652  0.0929  0.3900 -0.1754
 5310TIP3    H137421   2.097   3.270  16.633  0.6904 -2.1064 -1.2884
 5310TIP3    H237422   1.957   3.273  16.577  0.3339  0.2700 -0.3864
 5311TIP3   OH237423   5.495   3.887   2.236 -0.1114  0.1837  0.6694
 5311TIP3    H137424   5.462   3.831   2.165  0.1964  0.1400  0.5565
 5311TIP3    H237425   5.435   3.962   2.238  2.4001  2.6098 -2.7816
 5312TIP3   OH237426   4.501   6.322   4.219 -0.6031  0.1048  0.2859
 5312TIP3    H137427   4.474   6.414   4.229 -2.3850  0.1173 -3.0215
 5312TIP3    H237428   4.471   6.279   4.299 -1.5908  2.0332  1.0232
 5313TIP3   OH237429   6.009   4.679  16.783 -0.3094 -1.1447 -0.3727
 5313TIP3    H137430   6.000   4.620  16.708 -0.3719 -0.6756 -0.7369
 5313TIP3    H237431   6.096   4.662  16.817 -1.2766 -3.4329  1.2176
 5314TIP3   OH237432   5.050   0.803   0.672  0.4097  0.4881  0.7043
 5314TIP3    H137433   5.021   0.759   0.752 -1.4720  3.1813  1.6343
 5314TIP3    H237434   4.988   0.875   0.661  2.6912  2.2857 -1.2536
 5315TIP3   OH237435   1.359   2.023   4.457  0.4153  0.1278 -0.0217
 5315TIP3    H137436   1.422   2.049   4.390  0.4242 -0.1401 -0.1187
 5315TIP3    H237437   1.277   2.063   4.429  0.7896  1.5126  0.7575
 5316TIP3   OH237438   4.033   2.138   5.043 -0.0365 -0.1826  0.5205
 5316TIP3    H137439   4.101   2.204   5.051 -0.5673  0.3515  0.6664
 5316TIP3    H237440   3.952   2.187   5.032 -0.5927 -0.7833  1.7300
 5317TIP3   OH237441   6.406   5.976   3.409 -0.1833 -0.0221  0.2763
 5317TIP3    H137442   6.376   6.051   3.358 -0.6221 -0.1352  0.3600
 5317TIP3    H237443   6.326   5.928   3.429  0.2537 -1.7879 -1.7723
 5318TIP3   OH237444   6.321   5.831   5.198  0.2594  0.3734  0.3581
 5318TIP3    H137445   6.262   5.901   5.169  0.3143  0.5180  0.5942
 5318TIP3    H237446   6.408   5.870   5.196  0.3691  0.1168 -0.1244
 5319TIP3   OH237447   3.045   3.662   0.803  0.2403  0.2274 -0.4717
 5319TIP3    H137448   3.081   3.692   0.720  1.5604 -0.1812 -0.0638
 5319TIP3    H237449   3.121   3.646   0.858 -0.4495 -2.4047 -0.1529
 5320TIP3   OH237450   4.613   5.869   6.167 -0.0765 -0.0052 -0.1673
 5320TIP3    H137451   4.541   5.898   6.223 -0.2312 -0.8099  0.0574
 5320TIP3    H237452   4.687   5.859   6.226  0.4975  1.7137 -0.5395
 5321TIP3   OH237453   1.858   4.757   5.516  0.2860  0.1212  0.3884
 5321TIP3    H137454   1.911   4.836   5.512 -0.4447  0.5893 -0.1516
 5321TIP3    H237455   1.835   4.738   5.425  0.2815 -0.6018  0.5273
 5322TIP3   OH237456   2.363   2.496  15.965  0.3583  0.5844  0.2945
 5322TIP3    H137457   2.279   2.537  15.984 -0.1358  0.2646 -1.0988
 5322TIP3    H237458   2.403   2.553  15.899 -0.0123 -0.7392 -1.1290
 5323TIP3   OH237459   0.183   0.686  16.567 -0.5512 -0.0334  0.1413
 5323TIP3    H137460   0.092   0.663  16.546 -1.2303  2.8319 -0.4662
 5323TIP3    H237461   0.193   0.775  16.535  1.7442  0.6264  2.3792
 5324TIP3   OH237462   0.615   5.594   0.005  0.2796 -0.2045 -0.2149
 5324TIP3    H137463   0.630   5.510   0.048  0.6205 -0.2904 -0.5029
 5324TIP3    H237464   0.681   5.599  -0.063  0.5056  0.4625  0.0403
 5325TIP3   OH237465   4.412   3.332  15.746 -0.2562  0.3609 -0.0981
 5325TIP3    H137466   4.375   3.416  15.720  0.2967  0.2963 -1.1326
 5325TIP3    H237467   4.506   3.344  15.743 -0.1707 -0.0695  0.5451
 5326TIP3   OH237468   6.403   6.222  11.787 -0.3860  0.1489  0.1430
 5326TIP3    H137469   6.431   6.139  11.747 -0.4752  0.2646 -0.1647
 5326TIP3    H237470   6.484   6.266  11.811 -0.3157 -1.5712  3.6047
 5327TIP3   OH237471   5.891   1.661  12.797  0.7428  0.4079  0.2237
 5327TIP3    H137472   5.959   1.660  12.729  2.3660  0.7127  1.7780
 5327TIP3    H237473   5.934   1.696  12.874 -0.3894 -2.0264  2.1062
 5328TIP3   OH237474   2.558   6.396   2.298  0.3559 -0.2626 -0.5977
 5328TIP3    H137475   2.640   6.354   2.322  0.1616 -0.5204 -0.3807
 5328TIP3    H237476   2.512   6.330   2.245 -0.7528 -1.0364  1.2560
 5329TIP3   OH237477   0.470   6.597  15.566 -0.1974  0.1772  0.5105
 5329TIP3    H137478   0.392   6.543  15.554  0.0516 -0.1974  0.5683
 5329TIP3    H237479   0.439   6.687  15.556 -0.1969 -0.0374 -2.0932
 5330TIP3   OH237480   6.618   5.307   0.618  0.6248 -0.5752 -0.4458
 5330TIP3    H137481   6.611   5.353   0.701 -0.5373 -0.7739 -0.4137
 5330TIP3    H237482   6.694   5.345   0.575  0.6523  0.2134  0.2846
 5331TIP3   OH237483   4.873   2.481   7.013 -0.7811 -0.1160 -0.2025
 5331TIP3    H137484   4.926   2.401   7.016 -1.5814 -0.6274  0.7438
 5331TIP3    H237485   4.930   2.546   6.971 -0.1928 -1.2202 -1.1531
 5332TIP3   OH237486   3.475   5.149   4.577 -0.1307  0.6304  0.4514
 5332TIP3    H137487   3.536   5.186   4.513 -1.7460  1.6922 -0.5248
 5332TIP3    H237488   3.500   5.056   4.581 -0.3544  0.3614 -2.2135
 5333TIP3   OH237489   4.518   6.526  16.343 -0.1946  0.5406 -0.7277
 5333TIP3    H137490   4.440   6.513  16.288 -0.1686  0.9530 -0.8657
 5333TIP3    H237491   4.575   6.453  16.320 -1.1996 -0.6924  0.5561
 5334TIP3   OH237492   3.841   0.538   1.497 -0.0249 -0.6405  0.0768
 5334TIP3    H137493   3.848   0.616   1.552  0.1611 -1.8891  1.9376
 5334TIP3    H237494   3.930   0.526   1.462 -0.0167 -0.1231 -0.0910
 5335TIP3   OH237495   3.221   1.160   1.119  0.1215  0.4713 -0.0398
 5335TIP3    H137496   3.269   1.097   1.172 -1.3826  0.1004  0.9396
 5335TIP3    H237497   3.139   1.115   1.096  1.3627 -0.0242 -4.1494
 5336TIP3   OH237498   3.124   0.513  12.794  0.4367  0.6289  0.2440
 5336TIP3    H137499   3.043   0.495  12.842  0.1163  2.1943  0.3718
 5336TIP3    H237500   3.182   0.440  12.815  0.2673  1.1882  2.9616
 5337TIP3   OH237501   1.522   5.792  16.171 -0.3822  0.6974  0.7138
 5337TIP3    H137502   1.609   5.811  16.206 -0.0700 -0.8353  0.8266
 5337TIP3    H237503   1.488   5.721  16.225 -0.1007 -1.3892 -1.6643
 5338TIP3   OH237504   3.039   5.656   2.843  0.3952 -0.1370  0.1594
 5338TIP3    H137505   3.116   5.604   2.819 -0.2698 -0.1425 -2.0926
 5338TIP3    H237506   3.076   5.733   2.888  1.7583 -0.0547 -1.0137
 5339TIP3   OH237507   0.544   5.541  14.552 -0.6696 -0.3858  0.0184
 5339TIP3    H137508   0.536   5.450  14.583 -0.4056 -0.5783 -0.4752
 5339TIP3    H237509   0.495   5.542  14.470  0.3788 -0.4013 -0.6236
 5340TIP3   OH237510   5.508   6.113   0.869  0.9321  0.3358 -0.0873
 5340TIP3    H137511   5.513   6.128   0.963 -1.7509 -0.8670  0.3441
 5340TIP3    H237512   5.539   6.023   0.857 -0.8210 -0.3208  0.0166
 5341TIP3   OH237513   5.273   4.301   0.607  0.8501  0.4416 -0.0815
 5341TIP3    H137514   5.236   4.322   0.693  1.3215  0.2691  0.1621
 5341TIP3    H237515   5.246   4.210   0.591 -1.2476  1.1747 -1.1648
 5342TIP3   OH237516   2.231   5.322   3.953  0.2144  0.1731  0.6555
 5342TIP3    H137517   2.318   5.289   3.931 -0.1837 -0.2702 -0.3297
 5342TIP3    H237518   2.206   5.376   3.878 -0.9443 -0.8763  0.2476
 5343TIP3   OH237519   0.548   4.850   0.820 -0.0361  0.2546  0.3256
 5343TIP3    H137520   0.500   4.811   0.893  0.8996  0.0844  0.8575
 5343TIP3    H237521   0.625   4.795   0.809 -1.1178 -0.9646 -2.1237
 5344TIP3   OH237522   4.107   1.682   5.514  0.3865  0.1164  0.0284
 5344TIP3    H137523   4.160   1.758   5.489 -0.4220  1.7422  2.7640
 5344TIP3    H237524   4.020   1.702   5.478  0.6819 -0.6823 -1.1873
 5345TIP3   OH237525   5.937   2.125   0.964 -0.0317 -0.1379  0.3129
 5345TIP3    H137526   5.888   2.054   1.005  1.3259 -1.9178 -0.9851
 5345TIP3    H237527   6.015   2.082   0.928  0.3189  1.8447 -1.4560
 5346TIP3   OH237528   4.345   2.717  11.621  0.6710  0.4680  0.0555
 5346TIP3    H137529   4.437   2.698  11.637  0.3761 -0.3529  0.9110
 5346TIP3    H237530   4.342   2.754  11.533  1.3083 -4.3420 -2.2962
 5347TIP3   OH237531   4.531   5.196   1.464 -0.6441  1.1060  0.5087
 5347TIP3    H137532   4.562   5.218   1.551  4.3986 -1.2671 -0.3754
 5347TIP3    H237533   4.524   5.281   1.419  0.8496  2.0732  2.0141
 5348TIP3   OH237534   0.104   3.383   1.095  0.3724 -0.1527  0.1638
 5348TIP3    H137535   0.072   3.340   1.174 -3.2117 -1.3834 -1.7234
 5348TIP3    H237536   0.169   3.323   1.059  0.5651 -0.5503  1.1600
 5349TIP3   OH237537   4.405   3.041   5.904 -0.4618 -0.1895 -0.3856
 5349TIP3    H137538   4.431   2.982   5.975 -1.0920  0.9689  0.8562
 5349TIP3    H237539   4.471   3.027   5.836 -0.0724 -1.6277  0.2484
 5350TIP3   OH237540   2.519   5.016  15.523 -0.0469 -0.1813  0.4660
 5350TIP3    H137541   2.601   5.007  15.571 -0.3346  0.3869  1.0763
 5350TIP3    H237542   2.456   5.047  15.588 -0.9216 -1.2769  0.1560
 5351TIP3   OH237543   0.213   6.360  17.393 -0.3846 -0.3279  0.1631
 5351TIP3    H137544   0.231   6.430  17.330 -0.5138  1.2708  1.8410
 5351TIP3    H237545   0.118   6.367  17.410 -0.0363  0.6380  2.0153
 5352TIP3   OH237546   4.603   4.788  10.712 -0.2719  0.4659 -0.3295
 5352TIP3    H137547   4.592   4.751  10.800  1.3846 -1.5701 -0.8938
 5352TIP3    H237548   4.690   4.827  10.714 -1.2990  2.9001 -0.3035
 5353TIP3   OH237549   1.508   1.980  13.802  0.2682  0.3266 -0.1110
 5353TIP3    H137550   1.601   1.993  13.784  0.6956 -1.6590  0.3954
 5353TIP3    H237551   1.506   1.944  13.891 -0.9912  0.3422 -0.1169
 5354TIP3   OH237552   0.862   1.857   2.767 -0.3150 -0.3399  0.0517
 5354TIP3    H137553   0.858   1.920   2.839 -0.0245 -1.9647  1.5643
 5354TIP3    H237554   0.915   1.900   2.701 -0.7318  1.2865  0.7105
 5355TIP3   OH237555   1.782   2.198   4.298 -0.0841  0.7029 -0.0019
 5355TIP3    H137556   1.746   2.138   4.364  1.8590  0.6802  1.1213
 5355TIP3    H237557   1.708   2.218   4.241 -1.5320 -0.3152  1.4211
 5356TIP3   OH237558   6.565   1.243  16.714 -0.0841 -0.1806 -0.0745
 5356TIP3    H137559   6.583   1.198  16.631  0.0988 -0.4854  0.1307
 5356TIP3    H237560   6.500   1.309  16.691  0.2133 -0.0417 -0.5303
 5357TIP3   OH237561   1.187   1.653  17.191 -0.0044 -0.0146  0.1530
 5357TIP3    H137562   1.275   1.639  17.226  0.0941  0.1311 -0.0319
 5357TIP3    H237563   1.161   1.738  17.228  0.8612  1.0901 -1.6082
 5358TIP3   OH237564   3.786   2.634  16.425  0.3464  0.0722 -0.1549
 5358TIP3    H137565   3.839   2.707  16.395 -1.0228  0.9740 -0.4780
 5358TIP3    H237566   3.774   2.650  16.519  2.2206 -1.1897  0.3478
 5359TIP3   OH237567   3.648   6.690   1.406 -0.2574 -0.2984  0.1182
 5359TIP3    H137568   3.716   6.688   1.473  0.1513  0.2191 -0.2751
 5359TIP3    H237569   3.677   6.627   1.340  0.1990  0.4239 -0.3841
 5360TIP3   OH237570   1.234   3.361  12.789  0.2152  0.0285 -0.2680
 5360TIP3    H137571   1.257   3.270  12.770  0.5732 -0.1217  0.8489
 5360TIP3    H237572   1.277   3.412  12.720 -0.1981 -0.6560 -1.0521
 5361TIP3   OH237573   2.254   2.104  16.021  0.0401 -0.3111  0.0110
 5361TIP3    H137574   2.206   2.027  15.993 -0.5662  0.1612 -0.2786
 5361TIP3    H237575   2.187   2.172  16.029  0.0393 -0.5206  3.1223
 5362TIP3   OH237576   0.463   2.462   3.457  0.3841 -0.7677  0.5119
 5362TIP3    H137577   0.460   2.460   3.553  0.8601 -0.5367  0.5341
 5362TIP3    H237578   0.555   2.479   3.436 -0.0521  1.2913  0.0608
 5363TIP3   OH237579   2.944   0.985   3.769 -0.0722 -0.1622  0.2748
 5363TIP3    H137580   2.941   1.071   3.726  2.6308 -0.1145 -0.0125
 5363TIP3    H237581   2.865   0.982   3.823 -1.7431  1.2805 -1.9070
 5364TIP3   OH237582   2.020   3.900   6.463 -0.3239  0.8288  0.6476
 5364TIP3    H137583   2.092   3.849   6.426 -0.5266  1.1799 -0.2436
 5364TIP3    H237584   2.061   3.980   6.496 -0.2707  0.9194  0.3613
 5365TIP3   OH237585   5.003   5.347  16.126 -0.1710  0.4151  0.5651
 5365TIP3    H137586   5.049   5.431  16.126  0.7536  0.0489 -2.8971
 5365TIP3    H237587   5.069   5.283  16.150 -0.3558  0.4218  1.1227
 5366TIP3   OH237588   3.511   0.183   1.436  0.4051  0.4267 -0.2571
 5366TIP3    H137589   3.551   0.119   1.378 -1.6317 -1.4400  0.2627
 5366TIP3    H237590   3.546   0.163   1.523 -1.0098 -0.7392  0.0791
 5367TIP3   OH237591   2.717   2.857  16.809 -0.0305  0.0477 -0.3361
 5367TIP3    H137592   2.775   2.801  16.757  0.2861  0.0040  0.0578
 5367TIP3    H237593   2.633   2.812  16.808  0.2618 -0.5221  0.1114
 5368TIP3   OH237594   2.251   0.953   5.883 -0.0467 -0.6338 -0.3581
 5368TIP3    H137595   2.165   0.961   5.924 -0.5743  1.4805 -1.7428
 5368TIP3    H237596   2.309   1.005   5.940 -0.2360  0.0549 -0.7745
 5369TIP3   OH237597   0.959   0.468  13.616 -0.1565 -0.0881 -0.2542
 5369TIP3    H137598   0.999   0.477  13.529  0.4772 -1.7929 -0.1877
 5369TIP3    H237599   0.896   0.539  13.621  0.8470  0.9509 -1.5197
 5370TIP3   OH237600   0.538   3.815   3.239 -0.4290  0.6514 -0.3943
 5370TIP3    H137601   0.463   3.778   3.192 -2.2159  1.9439  1.2685
 5370TIP3    H237602   0.574   3.742   3.288 -1.0338  0.1426 -0.6952
 5371TIP3   OH237603   5.731   1.834   3.114  0.0654 -0.2523  0.0689
 5371TIP3    H137604   5.655   1.881   3.081 -1.1436 -0.7047  2.0545
 5371TIP3    H237605   5.720   1.744   3.082  0.2153 -0.1460 -0.2963
 5372TIP3   OH237606   1.080   5.598  15.228  0.5067  0.3023  0.4684
 5372TIP3    H137607   1.106   5.507  15.224  2.5151  0.8761 -1.3487
 5372TIP3    H237608   1.010   5.606  15.163  0.8357  0.2079  0.1042
 5373TIP3   OH237609   2.845   3.559  16.700  0.1988  0.1438 -0.5426
 5373TIP3    H137610   2.891   3.631  16.655  0.8553 -0.4605 -0.8556
 5373TIP3    H237611   2.877   3.480  16.657 -0.4124 -0.3518 -0.1006
 5374TIP3   OH237612   2.638   5.858  14.767  0.1693  0.4511  0.0415
 5374TIP3    H137613   2.580   5.790  14.732  0.0233  0.4873  0.2154
 5374TIP3    H237614   2.580   5.918  14.813  0.4356  0.0380  0.9390
 5375TIP3   OH237615   0.976   3.161  13.138 -0.3451  0.0242 -0.3670
 5375TIP3    H137616   0.958   3.255  13.148 -1.1401 -0.0052 -1.3805
 5375TIP3    H237617   1.023   3.155  13.055  2.2289 -0.1981  1.0044
 5376TIP3   OH237618   4.596   4.551   0.232 -0.1944 -0.4640 -0.3347
 5376TIP3    H137619   4.540   4.531   0.157  0.8476 -2.4928 -0.6198
 5376TIP3    H237620   4.680   4.510   0.211  0.0753 -1.2155  2.0126
 5377TIP3   OH237621   5.037   3.331  16.505 -0.3734  0.0817 -0.3104
 5377TIP3    H137622   4.992   3.335  16.421 -2.2685  2.5880  0.6819
 5377TIP3    H237623   4.967   3.339  16.570  0.8881 -3.0199  1.6362
 5378TIP3   OH237624   2.031   0.340  13.774 -0.1121 -0.2736  0.1461
 5378TIP3    H137625   1.960   0.380  13.824 -0.1257  1.1936 -0.9832
 5378TIP3    H237626   2.084   0.414  13.743  1.8372 -1.3070  0.7872
 5379TIP3   OH237627   6.141   1.514  15.395  0.1949 -0.3206 -0.0408
 5379TIP3    H137628   6.203   1.569  15.443  0.0911  0.1396 -0.4305
 5379TIP3    H237629   6.069   1.499  15.457  0.7924 -1.0653  0.5032
 5380TIP3   OH237630   3.613   0.720   5.179  0.3052  0.1334 -0.5247
 5380TIP3    H137631   3.548   0.772   5.226  1.9713  0.1261  1.9706
 5380TIP3    H237632   3.564   0.679   5.108 -2.4835 -0.0427  1.3545
 5381TIP3   OH237633   5.951   4.072   3.352 -0.5171 -0.6002 -0.0158
 5381TIP3    H137634   6.043   4.044   3.361 -0.2578  0.2440  0.0155
 5381TIP3    H237635   5.954   4.167   3.360 -1.5010 -0.6250  0.7362
 5382TIP3   OH237636   2.084   3.377  15.271 -0.0073  0.6579  0.3767
 5382TIP3    H137637   2.163   3.419  15.305  1.0624 -0.6868 -0.3266
 5382TIP3    H237638   2.102   3.364  15.178 -1.7261  1.7252 -0.1559
 5383TIP3   OH237639   4.789   5.420   6.125 -0.1646  0.5040 -0.0807
 5383TIP3    H137640   4.713   5.372   6.158  0.2503  1.3987  2.3471
 5383TIP3    H237641   4.753   5.496   6.081 -0.6915  0.6195  0.5470
 5384TIP3   OH237642   4.992   3.411  15.734  0.0507  0.1188  0.4045
 5384TIP3    H137643   4.987   3.413  15.830 -0.7236 -0.9640  0.4086
 5384TIP3    H237644   4.953   3.493  15.706 -0.3002  0.1658  1.0145
 5385TIP3   OH237645   3.730   4.719   5.982 -0.0798  0.1777 -0.4618
 5385TIP3    H137646   3.637   4.698   5.977  0.1119 -1.6142  1.7166
 5385TIP3    H237647   3.743   4.751   6.071  1.1120  2.2487 -1.3005
 5386TIP3   OH237648   5.967   0.950   2.408 -0.0392 -0.2293  0.6765
 5386TIP3    H137649   5.987   0.932   2.316 -1.2014 -0.1499  0.3857
 5386TIP3    H237650   5.882   0.995   2.405  1.6449  3.3185  1.5365
 5387TIP3   OH237651   5.932   0.782   4.871 -0.1198  0.4294  0.0503
 5387TIP3    H137652   5.952   0.785   4.965  0.6406  1.2566 -0.1215
 5387TIP3    H237653   5.837   0.776   4.867 -0.1362 -0.0820  0.8745
 5388TIP3   OH237654   4.984   3.668   3.958 -0.3376 -0.0745 -0.4251
 5388TIP3    H137655   4.997   3.589   3.906  1.4308 -0.4180  0.4456
 5388TIP3    H237656   5.037   3.734   3.913 -0.7653  0.2729 -0.4201
 5389TIP3   OH237657   4.220   4.327  12.661  0.1915 -0.5918  0.0746
 5389TIP3    H137658   4.214   4.369  12.575  0.4122 -0.9670 -0.1241
 5389TIP3    H237659   4.167   4.383  12.718  0.9224  0.2677 -0.0624
 5390TIP3   OH237660   4.753   0.542  11.761  0.2687 -0.3630  0.1520
 5390TIP3    H137661   4.711   0.561  11.678  2.4106  1.2880 -0.6404
 5390TIP3    H237662   4.846   0.559  11.746  0.6352  0.8795  3.0926
 5391TIP3   OH237663   0.598   2.833  17.338  0.5744 -0.2010 -0.4601
 5391TIP3    H137664   0.556   2.798  17.417 -0.5394 -3.6532 -2.3665
 5391TIP3    H237665   0.678   2.782  17.329  0.6001  0.0275 -1.6483
 5392TIP3   OH237666   0.109   3.608   4.508  0.5746 -0.1520  0.2987
 5392TIP3    H137667   0.038   3.672   4.503  0.6444 -0.0833  0.1742
 5392TIP3    H237668   0.099   3.568   4.594  0.0396 -0.5440  0.0596
 5393TIP3   OH237669   2.682   3.155   1.436 -0.0045  0.3698 -0.2220
 5393TIP3    H137670   2.670   3.069   1.396 -2.3513  1.4348 -2.0254
 5393TIP3    H237671   2.728   3.207   1.370  1.6038  0.4850  0.9383
 5394TIP3   OH237672   2.009   5.075   5.951  0.1659 -0.0788 -0.1989
 5394TIP3    H137673   2.019   5.104   6.042  0.1365  0.8245 -0.4756
 5394TIP3    H237674   1.949   5.000   5.956 -1.9925  1.5855  0.2684
 5395TIP3   OH237675   0.592   5.469   6.179  0.4917 -0.3121  0.3217
 5395TIP3    H137676   0.639   5.485   6.097 -1.8881  0.6635 -0.9789
 5395TIP3    H237677   0.571   5.376   6.177 -0.6459 -0.0638 -0.8799
 5396TIP3   OH237678   3.105   1.286  15.804 -0.0640 -0.3705 -0.1303
 5396TIP3    H137679   3.106   1.354  15.871  0.0774 -0.4505 -0.0513
 5396TIP3    H237680   3.173   1.312  15.742  1.4860 -1.5373  0.9945
 5397TIP3   OH237681   3.682   1.866  12.884 -0.2205 -0.3356  0.0854
 5397TIP3    H137682   3.754   1.819  12.841  0.6451  0.7995  0.2351
 5397TIP3    H237683   3.606   1.848  12.829 -0.1053 -2.4900  0.5308
 5398TIP3   OH237684   1.140   3.836  16.525  0.4959  0.3122  0.0105
 5398TIP3    H137685   1.058   3.879  16.552 -0.0407 -1.2331  1.0148
 5398TIP3    H237686   1.196   3.841  16.602  0.6381 -0.2583 -0.0509
 5399TIP3   OH237687   5.477   0.309  11.950 -0.1118 -0.4942  0.2484
 5399TIP3    H137688   5.440   0.291  11.864 -0.2602  1.6164 -0.1832
 5399TIP3    H237689   5.540   0.380  11.935  0.1517 -0.3513  1.8169
 5400TIP3   OH237690   1.578   6.673   3.494  0.2050 -0.0146  0.1735
 5400TIP3    H137691   1.667   6.708   3.493  1.1858 -2.3629  0.2531
 5400TIP3    H237692   1.586   6.585   3.457 -2.1651 -0.1548 -0.1784
 5401TIP3   OH237693   6.581   1.075   2.823  0.0324 -0.0775  0.0130
 5401TIP3    H137694   6.648   1.010   2.803  0.5350  0.1689  0.8230
 5401TIP3    H237695   6.551   1.053   2.911  0.6752  1.1419  0.5653
 5402TIP3   OH237696   4.736   6.144   5.198 -0.0141  0.4425 -0.0102
 5402TIP3    H137697   4.730   6.145   5.102 -0.0028  0.1910 -0.0142
 5402TIP3    H237698   4.751   6.236   5.222 -0.5940  0.5940 -0.2084
 5403TIP3   OH237699   6.063   0.130   4.385  0.0771  0.3635 -0.4474
 5403TIP3    H137700   6.058   0.044   4.344  3.6082 -0.0424 -0.3471
 5403TIP3    H237701   6.051   0.113   4.479 -1.0075  0.2876 -0.5863
 5404TIP3   OH237702   5.889   0.253  11.191 -0.5068 -0.1070  0.0127
 5404TIP3    H137703   5.912   0.166  11.158  1.5737  0.9519 -1.6091
 5404TIP3    H237704   5.854   0.299  11.115 -0.6592  0.7919  0.6087
 5405TIP3   OH237705   6.658   1.817   1.948 -0.0500  0.0209  0.2945
 5405TIP3    H137706   6.620   1.745   1.898 -0.1060 -1.5130  2.4201
 5405TIP3    H237707   6.711   1.774   2.015  1.6385  2.0293  0.3386
 5406TIP3   OH237708   2.489   5.846  10.942  0.2076 -0.1894 -0.2751
 5406TIP3    H137709   2.439   5.908  10.888 -1.1677  0.2031  1.3813
 5406TIP3    H237710   2.432   5.770  10.950  0.7770 -0.5986 -0.0974
 5407TIP3   OH237711   6.414   1.410  13.908  0.3823  0.8241  0.1900
 5407TIP3    H137712   6.473   1.336  13.921 -1.2924 -0.4081  1.0737
 5407TIP3    H237713   6.408   1.419  13.812 -0.1094 -0.8099  0.0423
 5408TIP3   OH237714   5.003   3.683  15.977 -0.2522  0.0909 -0.2532
 5408TIP3    H137715   4.988   3.720  15.890  1.4814  0.4262 -0.4366
 5408TIP3    H237716   5.021   3.758  16.033 -2.5191 -0.0001  0.7258
 5409TIP3   OH237717   4.704   2.731   0.091  0.1320 -0.2856  0.4728
 5409TIP3    H137718   4.767   2.660   0.087  1.4572  0.8564  0.1519
 5409TIP3    H237719   4.748   2.799   0.142  0.1691  1.4794 -1.7501
 5410TIP3   OH237720   1.182   3.620  16.349  0.5807  0.0884  0.3132
 5410TIP3    H137721   1.156   3.697  16.399  0.8485 -0.2581  0.9870
 5410TIP3    H237722   1.233   3.567  16.410  0.7557 -0.4259 -0.2675
 5411TIP3   OH237723   6.595   6.618  17.061  0.0172 -0.7825 -0.6864
 5411TIP3    H137724   6.590   6.645  16.970 -0.0109 -0.1905 -0.5117
 5411TIP3    H237725   6.669   6.667  17.097 -1.9101  1.5191  0.4319
 5412TIP3   OH237726   6.164   3.074   3.759 -0.1492 -0.4699 -0.8632
 5412TIP3    H137727   6.109   2.997   3.774 -0.1683 -0.5975 -1.5664
 5412TIP3    H237728   6.106   3.136   3.715 -0.4277  0.3466  0.5802
 5413TIP3   OH237729   3.424   5.345  11.126  0.7033 -0.0485 -0.3696
 5413TIP3    H137730   3.339   5.304  11.144  0.9616 -0.7317 -0.6795
 5413TIP3    H237731   3.432   5.413  11.193  0.6425 -1.0633  0.6958
 5414TIP3   OH237732   2.802   0.042   1.465  1.4219 -0.0372 -0.5658
 5414TIP3    H137733   2.771   0.117   1.515  1.7949 -0.6627  0.6511
 5414TIP3    H237734   2.751   0.044   1.385 -0.9755 -0.3481  0.8482
 5415TIP3   OH237735   3.977   5.856  15.126  0.2271  0.2634 -0.3920
 5415TIP3    H137736   3.884   5.859  15.104  0.7284  2.5564 -2.6473
 5415TIP3    H237737   4.008   5.773  15.090 -0.4808  0.6374 -1.9228
 5416TIP3   OH237738   0.300   3.940   6.096 -0.1136 -0.2241  0.9111
 5416TIP3    H137739   0.245   4.016   6.078 -1.8775 -1.3021  1.5095
 5416TIP3    H237740   0.254   3.894   6.166  1.0828 -1.6840  0.7743
 5417TIP3   OH237741   1.220   3.184  10.815 -0.1389 -0.1114 -0.2709
 5417TIP3    H137742   1.172   3.263  10.791 -1.5327 -0.2884  1.6876
 5417TIP3    H237743   1.186   3.116  10.756  0.2598  0.4927 -1.2174
 5418TIP3   OH237744   0.415   2.573   6.009 -0.0848 -0.3152  0.2006
 5418TIP3    H137745   0.439   2.605   5.922 -0.7612 -0.5638 -0.0885
 5418TIP3    H237746   0.409   2.653   6.062  1.5681 -0.2632  0.3579
 5419TIP3   OH237747   0.441   0.609  15.340  0.1359 -0.5637 -0.6353
 5419TIP3    H137748   0.425   0.568  15.424  1.4995 -2.4971 -1.2551
 5419TIP3    H237749   0.531   0.642  15.346 -0.6319  1.6861 -0.4580
 5420TIP3   OH237750   6.086   3.916  15.539 -0.5506 -0.3687  0.3329
 5420TIP3    H137751   5.997   3.883  15.549 -0.5741 -0.5238 -0.3545
 5420TIP3    H237752   6.080   3.983  15.471 -0.3735  0.5597  1.2142
 5421TIP3   OH237753   4.692   0.372  14.984  0.0261  0.3033  0.5872
 5421TIP3    H137754   4.776   0.387  14.941  0.1694  0.6842  0.9875
 5421TIP3    H237755   4.695   0.281  15.012  0.5239  0.4569  1.0555
 5422TIP3   OH237756   6.606   2.804  13.587  0.1333  0.3374 -0.3314
 5422TIP3    H137757   6.592   2.733  13.650 -0.9647 -0.3967 -1.3414
 5422TIP3    H237758   6.555   2.877  13.621  0.1169  0.1779 -0.0080
 5423TIP3   OH237759   5.246   4.809   4.937 -0.1167  0.2414 -0.8021
 5423TIP3    H137760   5.251   4.722   4.898 -1.5851  1.1365 -3.1964
 5423TIP3    H237761   5.154   4.834   4.929  0.3421  2.1976 -0.6048
 5424TIP3   OH237762   2.249   1.561  17.016  0.8868  0.2647 -0.5459
 5424TIP3    H137763   2.249   1.656  17.005 -0.4376  0.3447 -0.0556
 5424TIP3    H237764   2.193   1.529  16.945  1.0613 -0.1310 -0.5115
 5425TIP3   OH237765   5.493   4.477   4.286 -0.2989  0.2915 -0.0589
 5425TIP3    H137766   5.452   4.443   4.366 -2.4998  1.1267 -0.7592
 5425TIP3    H237767   5.419   4.503   4.230  1.1370 -0.5077 -2.5009
 5426TIP3   OH237768   0.188   4.978  15.773 -0.5554  0.3948 -0.0098
 5426TIP3    H137769   0.115   5.024  15.815 -0.8369  1.0636 -1.1933
 5426TIP3    H237770   0.180   4.888  15.804 -1.1224  0.7304  0.8688
 5427TIP3   OH237771   3.268   0.091   0.268  0.4452  0.3963 -0.3849
 5427TIP3    H137772   3.356   0.127   0.251  0.4037  1.5600  1.5098
 5427TIP3    H237773   3.273   0.059   0.358 -0.2687 -2.2563 -1.2042
 5428TIP3   OH237774   1.838   2.899  11.569  0.2780  0.0171 -0.0954
 5428TIP3    H137775   1.779   2.946  11.510  0.0978  0.1000  0.1503
 5428TIP3    H237776   1.785   2.882  11.647  1.3778  2.5775  1.3181
 5429TIP3   OH237777   0.482   3.085   5.929 -0.4126 -0.1177  0.0344
 5429TIP3    H137778   0.446   3.171   5.952 -0.9765 -0.6792  1.3153
 5429TIP3    H237779   0.516   3.051   6.012  0.6379 -0.7528 -0.6403
 5430TIP3   OH237780   1.553   1.454  11.332  0.6354 -0.0199 -0.2675
 5430TIP3    H137781   1.603   1.382  11.294  2.3196  1.5615 -1.1770
 5430TIP3    H237782   1.610   1.531  11.324 -1.5042  1.6595 -0.3317
 5431TIP3   OH237783   4.298   2.584  15.310  0.2599 -0.9657  0.3151
 5431TIP3    H137784   4.269   2.597  15.400  0.4868 -1.4071  0.4574
 5431TIP3    H237785   4.305   2.672  15.273  2.2671 -0.6134  1.3834
 5432TIP3   OH237786   4.267   2.673  16.208 -0.6338 -0.0369 -0.3413
 5432TIP3    H137787   4.362   2.659  16.206 -0.3814  1.4391 -2.5669
 5432TIP3    H237788   4.230   2.587  16.189  0.2280 -0.6576  0.6550
 5433TIP3   OH237789   4.601   4.983   4.607  0.0685  0.2942  0.0722
 5433TIP3    H137790   4.578   4.936   4.686  0.9995  1.1195  0.8598
 5433TIP3    H237791   4.635   4.915   4.547  0.2605 -0.2043  0.7354
 5434TIP3   OH237792   5.655   4.122  16.566 -0.8043  0.2093 -0.3555
 5434TIP3    H137793   5.671   4.038  16.525 -0.7345  0.3525 -0.6237
 5434TIP3    H237794   5.622   4.100  16.653 -1.3343 -0.0997 -0.6280
 5435TIP3   OH237795   1.492   4.765   1.851 -0.5906 -0.0614  0.6772
 5435TIP3    H137796   1.576   4.792   1.815 -1.1325 -1.4532 -1.8539
 5435TIP3    H237797   1.510   4.743   1.942  1.0692  2.7476  1.1376
 5436TIP3   OH237798   6.562   5.066   4.708  0.2086  0.5355 -0.0921
 5436TIP3    H137799   6.583   5.082   4.616 -1.4042  3.0915 -0.1064
 5436TIP3    H237800   6.467   5.056   4.710  0.2772 -0.0719  1.2384
 5437TIP3   OH237801   3.035   3.180   3.350  0.1027  0.6059  0.0646
 5437TIP3    H137802   3.124   3.145   3.342  0.3022  1.3312 -1.1270
 5437TIP3    H237803   2.997   3.132   3.424  1.2845 -0.1228  0.2290
 5438TIP3   OH237804   2.881   5.826  12.308  0.3646 -0.5379  0.5396
 5438TIP3    H137805   2.827   5.798  12.382  0.6561  0.8817  1.3077
 5438TIP3    H237806   2.961   5.775  12.317  0.0474 -1.0324  0.6599
 5439TIP3   OH237807   2.702   5.603   0.399  0.1772  0.1735 -0.1769
 5439TIP3    H137808   2.636   5.589   0.467  0.9114  0.5488  0.6499
 5439TIP3    H237809   2.775   5.645   0.446  0.6783  0.4985 -1.2186
 5440TIP3   OH237810   6.236   2.696  11.612 -0.4992  0.5556 -0.2051
 5440TIP3    H137811   6.225   2.698  11.517 -0.4265  1.1645 -0.2026
 5440TIP3    H237812   6.255   2.604  11.631 -0.1946  0.4829 -0.8168
 5441TIP3   OH237813   2.851   1.539   4.678  0.0964  0.6946 -0.5408
 5441TIP3    H137814   2.848   1.613   4.618  1.8293  2.4221  1.3280
 5441TIP3    H237815   2.894   1.574   4.757 -3.3665 -0.9465  2.3626
 5442TIP3   OH237816   6.719   1.272   4.784 -0.8397  0.2078 -0.4151
 5442TIP3    H137817   6.728   1.318   4.867 -0.4219  0.5074 -0.6226
 5442TIP3    H237818   6.627   1.281   4.761 -0.9016  0.3505 -0.1131
 5443TIP3   OH237819   4.177   3.805   4.585 -0.2515  0.0508 -0.0635
 5443TIP3    H137820   4.254   3.863   4.583 -1.2543  1.4196 -0.5597
 5443TIP3    H237821   4.182   3.757   4.503 -0.0795  0.3383 -0.2238
 5444TIP3   OH237822   4.952   3.174   3.567  0.3224  0.4117 -0.0674
 5444TIP3    H137823   4.908   3.118   3.503 -0.8174  0.1825  0.8790
 5444TIP3    H237824   4.957   3.120   3.646  1.9440  0.5947 -0.0040
 5445TIP3   OH237825   2.997   5.300   4.628  0.3729  0.0868 -0.7017
 5445TIP3    H137826   3.082   5.266   4.600  1.5107  2.2492 -0.1800
 5445TIP3    H237827   2.985   5.379   4.575  0.6823  2.0425  1.9194
 5446TIP3   OH237828   2.278   2.689   0.805  0.1241  0.0063  0.1339
 5446TIP3    H137829   2.191   2.649   0.814 -0.8245  1.7840 -0.7555
 5446TIP3    H237830   2.267   2.777   0.840  1.2079  0.7261 -1.2833
 5447TIP3   OH237831   5.853   4.467   5.930  0.0716  0.3247 -0.4944
 5447TIP3    H137832   5.901   4.441   6.009  0.6102  0.5129 -0.7588
 5447TIP3    H237833   5.890   4.413   5.860  0.1558  0.7343 -0.7676
 5448TIP3   OH237834   6.293   4.027   0.167  0.2214  0.1119  0.0671
 5448TIP3    H137835   6.373   3.994   0.208 -0.8664 -0.9517  1.4456
 5448TIP3    H237836   6.280   3.971   0.091  0.3048 -0.3131  0.3624
 5449TIP3   OH237837   3.167   2.962   1.453 -0.4588 -0.0381 -0.3040
 5449TIP3    H137838   3.226   2.940   1.382  0.5250 -2.6687  1.1979
 5449TIP3    H237839   3.162   3.058   1.452  4.5843  0.4896  0.0319
 5450TIP3   OH237840   4.083   1.048   0.245  0.0731  0.4395 -0.1396
 5450TIP3    H137841   4.028   0.978   0.209  1.9574 -0.9907 -0.4143
 5450TIP3    H237842   4.043   1.069   0.329 -2.5234  1.5377 -1.5191
 5451TIP3   OH237843   6.327   3.765  11.797  0.1027 -0.0274  0.4878
 5451TIP3    H137844   6.365   3.788  11.712  0.2183 -0.9967  0.2659
 5451TIP3    H237845   6.400   3.771  11.858  0.3132 -0.5667  0.2946
 5452TIP3   OH237846   5.227   4.402  11.452  0.1415 -0.6554 -0.2185
 5452TIP3    H137847   5.241   4.462  11.525 -0.8751 -1.0477  0.3064
 5452TIP3    H237848   5.248   4.454  11.374  1.2863 -0.2520  0.3366
 5453TIP3   OH237849   5.825   2.987   5.566 -0.1458  0.3307  0.1353
 5453TIP3    H137850   5.853   2.950   5.650  0.1800 -1.7001 -0.7962
 5453TIP3    H237851   5.874   2.938   5.500 -1.3118  0.9899 -1.3048
 5454TIP3   OH237852   4.519   1.973   0.856 -0.5987 -0.0212  0.1831
 5454TIP3    H137853   4.585   2.012   0.914 -0.5721  0.2045  0.0044
 5454TIP3    H237854   4.458   1.929   0.914  1.3029 -2.7955  0.2574
 5455TIP3   OH237855   4.038   1.701   6.659  0.0655 -0.2380  0.2552
 5455TIP3    H137856   4.068   1.785   6.623  0.4824 -0.4514  0.0905
 5455TIP3    H237857   3.945   1.713   6.674 -0.2893 -0.3555 -1.5820
 5456TIP3   OH237858   5.572   2.467  13.857  0.3361  0.2536  0.0161
 5456TIP3    H137859   5.516   2.452  13.933  1.2194 -0.3517  0.5726
 5456TIP3    H237860   5.609   2.554  13.871  2.4764 -0.8165  1.6453
 5457TIP3   OH237861   6.086   5.502   5.535  0.1629 -0.0551  0.1028
 5457TIP3    H137862   6.178   5.527   5.523  0.0497  1.7024  2.1003
 5457TIP3    H237863   6.086   5.450   5.616 -0.4625 -1.1731 -0.5970
 5458TIP3   OH237864   0.020   6.237  12.256 -0.0528  0.2139  0.0704
 5458TIP3    H137865   0.009   6.318  12.305  0.5037 -1.2135  2.7205
 5458TIP3    H237866  -0.067   6.219  12.220 -1.3367 -0.1968  3.1182
 5459TIP3   OH237867   1.787   3.979  10.962 -0.0071  0.1487  0.1733
 5459TIP3    H137868   1.747   3.911  11.015 -0.1891  0.3876  0.3411
 5459TIP3    H237869   1.821   3.932  10.885  0.5479 -0.2510  0.6455
 5460TIP3   OH237870   3.721   3.944  12.501 -0.6219  0.6808  0.0854
 5460TIP3    H137871   3.729   3.885  12.576  0.7452 -0.2752 -0.7627
 5460TIP3    H237872   3.689   3.888  12.430  1.9284  0.5638 -1.0797
 5461TIP3   OH237873   4.471   3.949   0.430  0.5909  0.1111  0.4564
 5461TIP3    H137874   4.379   3.932   0.450  0.1272  1.8988  0.0337
 5461TIP3    H237875   4.497   4.017   0.492  1.2255  0.5885 -0.3213
 5462TIP3   OH237876   4.523   3.382   1.259 -0.1433 -0.5382 -0.1497
 5462TIP3    H137877   4.497   3.473   1.276 -0.2889 -0.5716 -0.1896
 5462TIP3    H237878   4.617   3.380   1.276 -0.2979 -0.5950  0.7477
 5463TIP3   OH237879   1.247   1.695  11.366 -0.1670  0.2332 -0.6681
 5463TIP3    H137880   1.332   1.734  11.347 -0.6803  0.9162 -1.6983
 5463TIP3    H237881   1.205   1.687  11.280 -1.0417 -0.3277 -0.2052
 5464TIP3   OH237882   6.404   3.480  12.042  0.0706  0.2248 -0.5328
 5464TIP3    H137883   6.326   3.502  12.092  1.2119  0.3144  1.2727
 5464TIP3    H237884   6.396   3.385  12.026 -0.6927  0.3462 -0.9132
 5465TIP3   OH237885   6.262   0.695  12.827 -0.0997 -0.1855 -0.0326
 5465TIP3    H137886   6.178   0.720  12.789  0.1471 -0.0133 -0.4723
 5465TIP3    H237887   6.268   0.746  12.908 -1.3486 -1.7341  1.1118
 5466TIP3   OH237888   2.018   5.138  17.457 -0.1087 -0.4524  0.3480
 5466TIP3    H137889   1.963   5.075  17.504  0.6921 -0.4643  1.3066
 5466TIP3    H237890   2.097   5.145  17.510  0.1015  0.8598 -0.0951
 5467TIP3   OH237891   4.816   2.532  16.401  0.0274 -0.0117  0.4318
 5467TIP3    H137892   4.845   2.622  16.417 -0.2397  0.1467  0.0471
 5467TIP3    H237893   4.896   2.484  16.382  0.4809 -0.3813  2.8972
 5468TIP3   OH237894   1.661   0.298   6.308  0.5060 -0.0854  0.1928
 5468TIP3    H137895   1.589   0.328   6.364  0.4704 -0.5574  0.4028
 5468TIP3    H237896   1.724   0.259   6.369 -0.4039 -2.3912 -0.2426
 5469TIP3   OH237897   6.291   1.808  11.222 -0.1001  0.3382 -0.3645
 5469TIP3    H137898   6.264   1.762  11.301 -0.9349 -1.0842 -1.4262
 5469TIP3    H237899   6.217   1.797  11.162  1.3345 -0.4355 -2.0610
 5470TIP3   OH237900   2.435   1.166  13.621 -0.1899  0.8118 -0.3404
 5470TIP3    H137901   2.398   1.216  13.549 -1.2095  1.0385  0.3218
 5470TIP3    H237902   2.418   1.219  13.699  1.7411  1.0283 -0.0086
 5471TIP3   OH237903   2.760   6.275  15.761  0.2861 -0.2150  0.3980
 5471TIP3    H137904   2.720   6.291  15.675  1.1193 -0.4666 -0.0511
 5471TIP3    H237905   2.788   6.183  15.757  1.8654  0.2407  0.2729
 5472TIP3   OH237906   0.543   1.883   5.536 -0.0370  0.0813 -0.2726
 5472TIP3    H137907   0.600   1.917   5.467  0.4802  4.2954  1.8807
 5472TIP3    H237908   0.455   1.911   5.510 -0.0073  0.5790  0.1456
 5473TIP3   OH237909   1.125   3.534  11.420  0.1721 -0.0003  0.1185
 5473TIP3    H137910   1.061   3.463  11.413  0.5081 -0.1782 -1.3587
 5473TIP3    H237911   1.187   3.503  11.487  0.3832 -1.1752 -0.5799
 5474TIP3   OH237912   2.810   5.696  11.389  0.2012  0.3530 -0.1830
 5474TIP3    H137913   2.800   5.605  11.360 -0.4185  0.1370  0.6643
 5474TIP3    H237914   2.889   5.727  11.344  0.2341 -0.5000 -0.7347
 5475TIP3   OH237915   5.308   1.913  10.818 -0.3120  0.4308 -0.4039
 5475TIP3    H137916   5.250   1.895  10.744 -0.0916  0.6148 -0.6245
 5475TIP3    H237917   5.393   1.934  10.777 -0.0529  0.0196 -0.0816
 5476TIP3   OH237918   6.276   2.802  14.389 -0.2567  0.2195  0.4397
 5476TIP3    H137919   6.249   2.761  14.471 -0.2044  0.7559  0.7287
 5476TIP3    H237920   6.363   2.837  14.406 -0.6050  1.1230  0.4444
 5477TIP3   OH237921   4.266   4.414  10.745  0.0672  0.4072 -0.6826
 5477TIP3    H137922   4.252   4.444  10.655  0.8658  0.9548 -0.6270
 5477TIP3    H237923   4.340   4.465  10.776 -0.6103  0.6953  0.5168
 5478TIP3   OH237924   1.646   2.341  17.106  0.3539 -0.3755  0.1002
 5478TIP3    H137925   1.568   2.377  17.064  0.2116  3.3482  3.0410
 5478TIP3    H237926   1.718   2.371  17.050 -0.0796 -2.5529 -1.7929
 5479TIP3   OH237927   2.329   2.055  15.220  0.2807  0.2211  0.0179
 5479TIP3    H137928   2.347   1.970  15.259  1.4017  0.4398  0.0223
 5479TIP3    H237929   2.415   2.086  15.190  0.0713  1.7869  0.9103
 5480TIP3   OH237930   0.948   0.538   2.354 -0.8265  0.2411 -0.1009
 5480TIP3    H137931   0.951   0.502   2.265  0.2125 -0.3195  0.1319
 5480TIP3    H237932   0.928   0.630   2.342 -0.2169  0.2789 -0.9594
 5481TIP3   OH237933   6.051   6.598  16.069  0.1475  0.0515  0.2382
 5481TIP3    H137934   5.961   6.602  16.036  0.4850  0.7415 -0.6441
 5481TIP3    H237935   6.058   6.511  16.109 -1.7000  0.9643  2.7432
 5482TIP3   OH237936   3.533   3.282  12.125 -0.5073  0.5101 -0.0653
 5482TIP3    H137937   3.601   3.301  12.190 -0.3105 -0.9549  0.1977
 5482TIP3    H237938   3.537   3.356  12.065 -0.0326  1.4276  1.0438
 5483TIP3   OH237939   2.084   0.451  12.160  0.2847  0.6556 -0.2114
 5483TIP3    H137940   2.014   0.446  12.225 -0.0283  0.6040 -0.5493
 5483TIP3    H237941   2.083   0.542  12.131 -1.2406  0.1526 -1.9415
 5484TIP3   OH237942   6.066   6.578   6.602  0.0200  0.3672  0.5273
 5484TIP3    H137943   6.095   6.615   6.519 -0.2716 -0.3761  0.0858
 5484TIP3    H237944   6.060   6.653   6.661 -1.6019  1.2119 -0.6311
 5485TIP3   OH237945   4.997   1.404  11.870  0.1992  0.0966  0.1464
 5485TIP3    H137946   4.972   1.397  11.778 -3.8881  0.3645  1.0288
 5485TIP3    H237947   5.012   1.313  11.897 -1.5320 -0.3149 -0.1641
 5486TIP3   OH237948   2.396   1.868   2.131  0.0875  0.2752 -0.4741
 5486TIP3    H137949   2.332   1.847   2.199  0.7352  0.2414  0.1387
 5486TIP3    H237950   2.479   1.875   2.178  0.6049 -0.0851 -1.3112
 5487TIP3   OH237951   0.997   1.419  13.966 -0.3923  0.2101  0.0221
 5487TIP3    H137952   1.018   1.511  13.949  0.8954  0.0106  0.4350
 5487TIP3    H237953   1.027   1.372  13.888 -0.3320  0.0499  0.1414
 5488TIP3   OH237954   1.581   4.080  11.339 -0.4329 -0.3310 -0.8823
 5488TIP3    H137955   1.663   4.037  11.313 -0.0540 -0.7612  0.8790
 5488TIP3    H237956   1.517   4.050  11.275  0.5625 -0.8204 -1.6853
 5489TIP3   OH237957   2.549   2.664   6.155 -0.4960  0.4629  0.0575
 5489TIP3    H137958   2.618   2.650   6.220 -0.6919  0.7498  0.3312
 5489TIP3    H237959   2.500   2.582   6.154 -0.9390  0.7050  0.8133
 5490TIP3   OH237960   5.212   6.089   0.918  0.2365 -0.7708 -0.3002
 5490TIP3    H137961   5.303   6.079   0.887  0.3979 -1.4833  0.3499
 5490TIP3    H237962   5.218   6.150   0.991 -0.2918  1.7478 -2.2101
 5491TIP3   OH237963   3.025   2.144   3.826 -0.2235 -0.4561 -0.4718
 5491TIP3    H137964   3.080   2.078   3.782  0.7202 -0.3375  0.4837
 5491TIP3    H237965   2.936   2.118   3.805  0.1753 -0.8627 -1.7834
 5492TIP3   OH237966   5.840   0.106   3.670 -0.5086 -0.6072  0.5029
 5492TIP3    H137967   5.904   0.035   3.679  1.9725  1.5165  0.6890
 5492TIP3    H237968   5.831   0.142   3.758  1.2390  1.6603 -0.1713
 5493TIP3   OH237969   2.222   6.406  14.047  0.0997  0.0609  0.1255
 5493TIP3    H137970   2.217   6.482  13.989  2.6154  0.1375 -0.0824
 5493TIP3    H237971   2.316   6.391  14.060 -0.2538 -3.3924 -0.3199
 5494TIP3   OH237972   4.260   6.654  12.318 -0.4793 -0.1412  0.3077
 5494TIP3    H137973   4.345   6.611  12.306  0.2535  1.0839  0.9641
 5494TIP3    H237974   4.248   6.705  12.238 -0.5765 -0.2702  0.2397
 5495TIP3   OH237975   5.149   2.063   2.713 -0.2749 -0.4070  0.5435
 5495TIP3    H137976   5.169   2.075   2.806 -0.2138  0.3055  0.4453
 5495TIP3    H237977   5.181   1.975   2.693 -2.4185 -1.5587  1.7532
 5496TIP3   OH237978   2.649   1.000   3.571 -0.2372 -0.2449  0.0931
 5496TIP3    H137979   2.688   1.071   3.520 -0.7841 -0.8229 -1.1944
 5496TIP3    H237980   2.634   1.037   3.658 -0.0132  1.0354 -0.3994
 5497TIP3   OH237981   0.828   0.193   1.464  0.1387 -0.0436 -0.0267
 5497TIP3    H137982   0.817   0.171   1.372  1.0321  0.3890 -0.2471
 5497TIP3    H237983   0.762   0.140   1.509  0.7320 -1.4549 -0.7608
 5498TIP3   OH237984   3.206   5.149   4.538  0.1088 -0.3497 -0.8607
 5498TIP3    H137985   3.301   5.158   4.536  0.2289 -1.6240 -2.1969
 5498TIP3    H237986   3.190   5.055   4.526 -1.3381 -0.0445 -1.5454
 5499TIP3   OH237987   4.632   2.725  17.130 -0.3474  0.3658  0.7825
 5499TIP3    H137988   4.548   2.713  17.175 -0.4306 -0.7494  0.3585
 5499TIP3    H237989   4.685   2.773  17.193 -1.1738  0.7491  1.2111
 5500TIP3   OH237990   1.070   0.084  17.221  0.3310  0.4273  0.0346
 5500TIP3    H137991   1.127   0.016  17.257  0.0882  0.0677 -0.2509
 5500TIP3    H237992   1.005   0.099  17.289 -0.8984 -1.1681 -0.7166
 5501TIP3   OH237993   0.295   4.526   5.139  0.2050 -0.4630 -0.2262
 5501TIP3    H137994   0.376   4.575   5.122 -0.3587  0.1326 -1.2481
 5501TIP3    H237995   0.239   4.588   5.186  0.2105 -0.7705  0.1951
 5502TIP3   OH237996   3.927   0.915   2.194  0.2256  0.2755 -0.2308
 5502TIP3    H137997   3.959   0.857   2.125  0.4651 -0.3604  0.3970
 5502TIP3    H237998   3.980   0.994   2.186  1.3073 -0.3855  0.1741
 5503TIP3   OH237999   1.837   2.057  10.990 -0.7066 -0.1482 -0.3080
 5503TIP3    H138000   1.866   2.147  11.008 -2.9450  0.7648 -0.9932
 5503TIP3    H238001   1.742   2.060  11.002 -0.8623 -2.3483 -0.7370
 5504TIP3   OH238002   1.445   2.571  17.085  0.4717  0.2575  0.8518
 5504TIP3    H138003   1.519   2.594  17.142  0.3538  1.5172  0.5297
 5504TIP3    H238004   1.460   2.622  17.005  0.0615 -0.6632  0.1674
 5505TIP3   OH238005   6.482   0.535  16.750 -0.0076 -0.2805 -0.3158
 5505TIP3    H138006   6.403   0.483  16.767  0.1245 -0.8755 -1.4736
 5505TIP3    H238007   6.549   0.493  16.804 -0.3190 -0.1748  0.1670
 5506TIP3   OH238008   3.602   2.609  17.089 -0.0008  0.0019  0.0918
 5506TIP3    H138009   3.670   2.675  17.077  0.0525 -0.1946 -0.7834
 5506TIP3    H238010   3.648   2.531  17.118  0.1353 -0.0949 -0.3805
 5507TIP3   OH238011   0.638   2.238  12.509  0.2109 -0.1294 -0.7095
 5507TIP3    H138012   0.572   2.172  12.530  0.3573 -0.3594 -0.9629
 5507TIP3    H238013   0.655   2.226  12.416 -1.2163  1.5828 -1.2444
 5508TIP3   OH238014   0.459   4.312   2.038  0.1161 -0.2559  0.6086
 5508TIP3    H138015   0.508   4.390   2.062  0.1338 -0.4522  1.2108
 5508TIP3    H238016   0.387   4.345   1.984 -1.4046  0.5182  2.9541
 5509TIP3   OH238017   0.539   3.035  17.181  0.4696  0.4667  0.3468
 5509TIP3    H138018   0.554   2.971  17.250 -0.9190 -0.4137 -0.1211
 5509TIP3    H238019   0.624   3.047  17.140  0.6334 -1.6022  0.0137
 5510TIP3   OH238020   3.157   2.913  14.608  0.2070 -0.2965  0.0123
 5510TIP3    H138021   3.131   2.921  14.700  0.0622 -0.7864  0.0127
 5510TIP3    H238022   3.194   2.825  14.600 -0.4653 -0.5368 -0.5652
 5511TIP3   OH238023   5.772   0.212  10.906 -0.1230  0.0564 -0.3137
 5511TIP3    H138024   5.815   0.283  10.858  0.1075  1.7542  2.2207
 5511TIP3    H238025   5.761   0.142  10.841  2.2340  1.3169 -2.2252
 5512TIP3   OH238026   3.192   6.141  15.516 -0.3112 -0.4899 -0.4476
 5512TIP3    H138027   3.102   6.118  15.542 -0.4384  0.1910 -0.2539
 5512TIP3    H238028   3.210   6.085  15.441 -1.0697 -0.3161 -0.7756
 5513TIP3   OH238029   1.506   5.544   2.607  0.7490  0.2198 -0.2898
 5513TIP3    H138030   1.534   5.635   2.594 -1.1819  0.8615 -0.3251
 5513TIP3    H238031   1.517   5.503   2.521  1.6562  0.4064 -0.2693
 5514TIP3   OH238032   5.070   6.408   4.432  0.0834  0.0342  0.3383
 5514TIP3    H138033   5.133   6.351   4.388  0.2568 -0.2346  0.9283
 5514TIP3    H238034   5.114   6.493   4.434 -1.0923  0.8477 -2.6217
 5515TIP3   OH238035   2.317   3.496  13.069 -0.1730 -0.4415  0.0358
 5515TIP3    H138036   2.299   3.498  13.163  0.9714 -0.2788  0.2778
 5515TIP3    H238037   2.272   3.572  13.034  1.0047  0.6646  0.8050
 5516TIP3   OH238038   0.748   5.554   0.694 -0.0544  0.3049 -0.2071
 5516TIP3    H138039   0.825   5.500   0.708 -0.3883  0.2132  1.4931
 5516TIP3    H238040   0.708   5.520   0.615  1.6809  0.4144 -1.1791
 5517TIP3   OH238041   6.014   4.865  14.999  0.1048 -0.3904  0.2556
 5517TIP3    H138042   6.020   4.770  15.009  2.0731 -0.2309  1.2049
 5517TIP3    H238043   6.095   4.897  15.038 -1.0474  1.7701  1.0019
 5518TIP3   OH238044   3.453   5.369   5.505 -0.6992  0.4546 -0.3638
 5518TIP3    H138045   3.523   5.416   5.550  0.7354 -0.5936 -1.4168
 5518TIP3    H238046   3.425   5.429   5.436 -0.5716  0.7093 -0.1988
 5519TIP3   OH238047   0.020   0.688   4.567 -0.1544  0.0015  0.1405
 5519TIP3    H138048  -0.059   0.742   4.561 -0.6032 -0.7215 -0.7137
 5519TIP3    H238049  -0.012   0.598   4.556  0.9262 -0.2184 -1.4412
 5520TIP3   OH238050   4.252   6.332   0.486 -0.6087 -0.6868  0.2058
 5520TIP3    H138051   4.266   6.268   0.556  0.2922  0.3914  1.0685
 5520TIP3    H238052   4.190   6.395   0.523 -2.2008 -1.5060 -0.9605
 5521TIP3   OH238053   0.843   2.025  12.172  0.3340 -0.5668  0.8318
 5521TIP3    H138054   0.917   1.967  12.151 -1.5487 -3.1183  0.8240
 5521TIP3    H238055   0.839   2.025  12.267  1.2967  0.9177  0.8972
 5522TIP3   OH238056   4.046   6.237   3.205  0.9062 -0.0357  0.4392
 5522TIP3    H138057   3.952   6.227   3.190  1.1116 -0.0024 -0.9939
 5522TIP3    H238058   4.068   6.167   3.267  0.5048 -2.2698 -1.7546
 5523TIP3   OH238059   1.501   2.553  15.040  0.3858 -0.0045 -0.9093
 5523TIP3    H138060   1.465   2.481  15.092  0.7318  1.0713  0.9048
 5523TIP3    H238061   1.425   2.608  15.020  0.2278 -0.5022 -1.6941
 5524TIP3   OH238062   6.676   1.577  13.858  0.0439  0.0597  0.5267
 5524TIP3    H138063   6.612   1.506  13.858 -0.3256  0.3665  1.8109
 5524TIP3    H238064   6.742   1.550  13.794 -2.5951  0.9081 -2.8615
 5525TIP3   OH238065   5.370   5.083   0.934  0.7295  0.1690  0.1195
 5525TIP3    H138066   5.277   5.079   0.912  0.0386 -0.0111  2.7394
 5525TIP3    H238067   5.378   5.162   0.986  1.8023 -0.4266  0.8835
 5526TIP3   OH238068   5.081   6.653   1.470  0.5904  0.5221  0.0738
 5526TIP3    H138069   5.017   6.604   1.521  0.1659  2.0140  1.0307
 5526TIP3    H238070   5.029   6.699   1.404  0.7678  0.9635  0.2318
 5527TIP3   OH238071   3.091   2.464  14.780  0.2254 -0.1258  0.2743
 5527TIP3    H138072   3.049   2.401  14.721 -2.7073 -0.4108  2.4095
 5527TIP3    H238073   3.088   2.421  14.866  0.2846  1.9647  1.3813
 5528TIP3   OH238074   0.669   3.803  17.370 -0.4777  0.2755 -0.6001
 5528TIP3    H138075   0.704   3.724  17.329  1.8670  0.8915  0.1008
 5528TIP3    H238076   0.686   3.792  17.463 -0.6627  1.3614 -0.4230
 5529TIP3   OH238077   2.311   3.697  15.072 -0.3147 -0.6509 -0.3696
 5529TIP3    H138078   2.377   3.767  15.068  0.9832 -1.7845  0.0474
 5529TIP3    H238079   2.248   3.727  15.136 -0.1959  0.4695 -0.7574
 5530TIP3   OH238080   2.152   2.911   4.224  0.3703 -0.2952 -0.4910
 5530TIP3    H138081   2.148   2.931   4.318 -1.0650  2.3957 -1.0332
 5530TIP3    H238082   2.175   2.818   4.221 -1.4181 -0.9829  2.5362
 5531TIP3   OH238083   1.858   2.129   0.603 -0.3119 -0.1496  0.3215
 5531TIP3    H138084   1.814   2.191   0.660  0.8852 -0.3098  1.4532
 5531TIP3    H238085   1.948   2.161   0.596 -0.2904 -0.4281 -1.0642
 5532TIP3   OH238086   2.820   3.824   2.760 -0.5170 -0.1941 -0.1743
 5532TIP3    H138087   2.815   3.793   2.670  0.3664 -1.6498  0.2382
 5532TIP3    H238088   2.749   3.888   2.768 -0.5107  0.0703 -1.9269
 5533TIP3   OH238089   3.631   3.910  11.068 -0.1325 -0.7201  0.1975
 5533TIP3    H138090   3.716   3.876  11.095 -0.2274  0.5146  2.2718
 5533TIP3    H238091   3.645   4.005  11.060 -1.5777 -0.3061  1.9086
 5534TIP3   OH238092   4.211   5.287   1.377 -0.4166  0.1150 -0.2523
 5534TIP3    H138093   4.177   5.357   1.433 -0.2164  0.0123 -0.0011
 5534TIP3    H238094   4.158   5.293   1.298  0.0678  1.0150 -0.5241
 5535TIP3   OH238095   4.441   3.472   5.004  0.4726  0.3453  0.2206
 5535TIP3    H138096   4.403   3.537   5.064 -1.1761 -0.7613  0.4353
 5535TIP3    H238097   4.460   3.397   5.059  1.5312  0.2991 -0.1913
 5536TIP3   OH238098   0.721   2.846  16.039 -0.2867 -1.1353 -0.4887
 5536TIP3    H138099   0.754   2.874  16.124  0.0536  1.6671 -1.4300
 5536TIP3    H238100   0.797   2.850  15.981 -0.3867 -3.5251 -0.9076
 5537TIP3   OH238101   0.503   2.010  11.269  0.0499 -0.6208 -0.5512
 5537TIP3    H138102   0.424   2.054  11.240  0.8618  1.5374  0.2836
 5537TIP3    H238103   0.473   1.933  11.318 -1.5712  0.7163  0.6307
 5538TIP3   OH238104   1.588   5.817   2.568  0.0122  0.1822  0.3822
 5538TIP3    H138105   1.598   5.867   2.650 -1.3631  0.2780  0.5149
 5538TIP3    H238106   1.500   5.839   2.537  0.5972  0.3419 -1.2714
 5539TIP3   OH238107   2.194   1.302   6.172  0.2918 -0.2627  0.2186
 5539TIP3    H138108   2.106   1.266   6.163 -0.1158  0.6064  0.5729
 5539TIP3    H238109   2.252   1.228   6.156 -0.5024 -1.4270  2.3337
 5540TIP3   OH238110   3.308   1.537   2.467  0.4104  0.2331 -0.5469
 5540TIP3    H138111   3.256   1.577   2.536 -0.5785 -1.6279 -0.1474
 5540TIP3    H238112   3.277   1.580   2.386 -1.0066 -0.0769 -0.1987
 5541TIP3   OH238113   2.697   6.466   6.337  0.3080 -0.7201 -0.0411
 5541TIP3    H138114   2.640   6.542   6.337  0.3576 -0.6280 -2.0630
 5541TIP3    H238115   2.645   6.396   6.377 -0.0580  0.1223  0.9846
 5542TIP3   OH238116   2.598   2.739  11.598  0.1177  0.1595  0.3418
 5542TIP3    H138117   2.507   2.725  11.626  0.8261 -1.5047  2.0127
 5542TIP3    H238118   2.592   2.748  11.503 -1.7267 -0.5232  0.3426
 5543TIP3   OH238119   1.532   1.340  10.927 -0.2167 -0.4750 -0.1002
 5543TIP3    H138120   1.491   1.409  10.979 -1.0639 -1.0061 -0.0319
 5543TIP3    H238121   1.497   1.353  10.838 -1.3475 -1.5296  0.1628
 5544TIP3   OH238122   2.591   1.252  14.312  0.0474  0.4875 -0.4298
 5544TIP3    H138123   2.564   1.323  14.371 -0.4117 -0.4707  0.5434
 5544TIP3    H238124   2.685   1.242  14.327 -0.1183  0.0608  0.3683
 5545TIP3   OH238125   6.377   2.616   1.155 -0.1200  0.8491  0.6833
 5545TIP3    H138126   6.361   2.690   1.213 -0.8835  0.4870  0.9599
 5545TIP3    H238127   6.410   2.655   1.074 -1.1243  1.5521  0.5914
 5546TIP3   OH238128   1.243   2.703   1.745  0.1368  0.1962  0.1377
 5546TIP3    H138129   1.215   2.788   1.710  1.4926  0.3730 -0.5965
 5546TIP3    H238130   1.286   2.660   1.671 -1.7256 -1.7367  0.1119
 5547TIP3   OH238131   5.619   1.980  14.911 -0.0743 -0.7540  0.4243
 5547TIP3    H138132   5.560   1.956  14.983  0.0539 -2.1653  0.0961
 5547TIP3    H238133   5.680   2.043  14.949 -2.0401  1.1235  0.6619
 5548TIP3   OH238134   2.225   4.212  11.802 -0.4428  0.1926 -0.7678
 5548TIP3    H138135   2.147   4.236  11.851  0.0516 -0.5069  0.3997
 5548TIP3    H238136   2.275   4.156  11.862  1.4501  1.4476 -1.0766
 5549TIP3   OH238137   3.801   3.986   1.499  0.3442  0.2039  0.4728
 5549TIP3    H138138   3.869   3.922   1.478 -1.2154 -1.0356 -1.1164
 5549TIP3    H238139   3.818   4.060   1.440 -0.6055 -0.8130 -1.1470
 5550TIP3   OH238140   4.925   5.027   6.780 -0.0825  0.2761 -0.2174
 5550TIP3    H138141   5.010   4.982   6.777 -0.7460 -1.0443 -0.0658
 5550TIP3    H238142   4.895   5.027   6.689  0.4220  1.4488 -0.3932
 5551TIP3   OH238143   4.852   3.624  15.676 -0.0851  0.1295  0.4903
 5551TIP3    H138144   4.765   3.664  15.672 -0.1584  0.0453  1.2690
 5551TIP3    H238145   4.912   3.695  15.652 -0.3726  0.1532 -0.1769
 5552TIP3   OH238146   5.731   0.253  14.087  0.0762  0.4508 -0.3085
 5552TIP3    H138147   5.781   0.172  14.091 -1.1858 -0.3462  0.2061
 5552TIP3    H238148   5.727   0.275  13.994  2.1100  1.0387 -0.2835
 5553TIP3   OH238149   0.976   5.730   3.060 -0.2901  0.5862  0.3820
 5553TIP3    H138150   0.967   5.819   3.095 -0.2321  0.3405  1.0301
 5553TIP3    H238151   1.024   5.682   3.128  1.8074  0.6615 -0.9367
 5554TIP3   OH238152   1.258   5.833   4.872 -0.0435  0.1509  0.4213
 5554TIP3    H138153   1.312   5.754   4.870 -0.1321  0.1001 -0.0008
 5554TIP3    H238154   1.321   5.906   4.872  0.0276  0.0989 -0.4111
 5555TIP3   OH238155   3.655   0.079  14.072  0.0631  0.6616  0.2336
 5555TIP3    H138156   3.647   0.172  14.091  0.5276  0.9060 -0.7088
 5555TIP3    H238157   3.568   0.043  14.088 -0.1233  1.2658  0.5684
 5556TIP3   OH238158   2.050   3.840   5.143  0.1928 -0.0918  0.5536
 5556TIP3    H138159   2.083   3.763   5.097  0.7542 -0.2862  1.2542
 5556TIP3    H238160   1.988   3.803   5.207 -1.6453  0.2853 -0.9248
 5557TIP3   OH238161   5.934   2.574  15.814  0.1340 -0.1193 -0.2203
 5557TIP3    H138162   6.029   2.585  15.817  0.2711 -1.1953 -0.1305
 5557TIP3    H238163   5.910   2.547  15.903 -0.2059 -0.2124 -0.3385
 5558TIP3   OH238164   4.987   4.887   4.879  0.2127 -0.2729  0.6428
 5558TIP3    H138165   5.021   4.907   4.792  1.9516 -0.0675  1.3223
 5558TIP3    H238166   4.980   4.972   4.922 -2.3927 -0.1558  0.1795
 5559TIP3   OH238167   5.279   0.026  14.475  0.0501  0.0578 -0.3059
 5559TIP3    H138168   5.234   0.078  14.409 -0.4655 -0.1958 -0.1610
 5559TIP3    H238169   5.297   0.088  14.546 -1.3639 -0.1296  0.2542
 5560TIP3   OH238170   3.212   5.219  13.916 -0.2703  0.3446  0.0030
 5560TIP3    H138171   3.138   5.203  13.858 -0.4705  1.7119 -0.1461
 5560TIP3    H238172   3.183   5.187  14.001 -1.0849  0.9935 -0.0258
 5561TIP3   OH238173   6.151   6.586  12.311 -0.1471 -0.0236 -0.6152
 5561TIP3    H138174   6.167   6.535  12.232 -1.2202  0.4664 -1.1815
 5561TIP3    H238175   6.107   6.666  12.279 -1.2821 -0.1549  0.5262
 5562TIP3   OH238176   2.370   5.883  13.837  0.6812  0.0359 -0.3174
 5562TIP3    H138177   2.457   5.843  13.845  0.3442 -1.0161 -1.6480
 5562TIP3    H238178   2.312   5.809  13.819 -0.2558  0.9173 -0.9437
 5563TIP3   OH238179   6.347   1.865  15.719 -0.0360  0.2100 -0.0579
 5563TIP3    H138180   6.403   1.897  15.790  0.5560 -2.0619  0.5846
 5563TIP3    H238181   6.260   1.897  15.741  0.4473  1.0564  0.7117
 5564TIP3   OH238182   5.892   5.737   2.975  0.0846  0.0405  0.9592
 5564TIP3    H138183   5.905   5.763   2.884 -0.6830 -1.2225  0.4729
 5564TIP3    H238184   5.861   5.817   3.019  1.1275  0.8358  0.2824
 5565TIP3   OH238185   0.882   3.984   5.086 -0.1138 -0.6060 -0.3701
 5565TIP3    H138186   0.978   3.979   5.096 -0.2690 -0.9490  1.2138
 5565TIP3    H238187   0.869   4.023   5.000  1.4523 -1.2721 -0.9437
 5566TIP3   OH238188   6.484   1.234   3.843  0.5027  0.0848  0.3768
 5566TIP3    H138189   6.559   1.179   3.864 -0.2397 -0.5196  1.6051
 5566TIP3    H238190   6.469   1.286   3.921 -1.6196 -1.3576  1.0496
 5567TIP3   OH238191   0.205   6.667   6.571 -0.6083  0.4468  0.0239
 5567TIP3    H138192   0.288   6.679   6.617 -0.8845  0.5786  0.4999
 5567TIP3    H238193   0.206   6.732   6.502  0.0289 -0.0774 -0.4765
 5568TIP3   OH238194   3.511   1.604   0.163  0.4685  0.1781 -0.6811
 5568TIP3    H138195   3.575   1.661   0.205 -0.9583  1.0904  0.3540
 5568TIP3    H238196   3.457   1.571   0.236  0.7195 -1.8232 -1.3480
 5569TIP3   OH238197   1.981   0.172   0.581 -0.2951  0.0246  0.6893
 5569TIP3    H138198   2.008   0.086   0.551  0.6003  0.8894 -1.1181
 5569TIP3    H238199   1.968   0.161   0.676  1.1242 -1.7520  0.7345
 5570TIP3   OH238200   0.574   4.605   1.658  0.2981  0.0955 -0.4435
 5570TIP3    H138201   0.549   4.696   1.674 -1.0929  0.0221 -1.9106
 5570TIP3    H238202   0.652   4.610   1.603  0.4436  0.3916 -0.2104
 5571TIP3   OH238203   4.593   1.037  14.346 -0.0910 -0.2421 -0.5529
 5571TIP3    H138204   4.585   1.011  14.255 -0.8787 -1.0750 -0.2620
 5571TIP3    H238205   4.686   1.025  14.367  0.4822  1.7110 -1.7258
 5572TIP3   OH238206   1.229   4.575   1.606  0.6502 -0.1275 -0.1892
 5572TIP3    H138207   1.181   4.540   1.682  0.8136 -0.5943 -0.3016
 5572TIP3    H238208   1.184   4.538   1.530  1.6636 -1.2084 -0.2870
 5573TIP3   OH238209   1.816   6.144  11.981  0.5902 -0.1273 -0.4094
 5573TIP3    H138210   1.794   6.236  12.000 -0.8924 -0.7165  0.9774
 5573TIP3    H238211   1.906   6.134  12.012 -0.0381  0.2882  1.7613
 5574TIP3   OH238212   6.280   5.669  13.367  0.5026  0.2356 -0.3826
 5574TIP3    H138213   6.366   5.704  13.387 -0.2803  1.7691  0.4798
 5574TIP3    H238214   6.231   5.677  13.448 -0.8820  0.7639 -1.2249
 5575TIP3   OH238215   6.639   2.725   0.192 -0.4419  0.1485  0.4937
 5575TIP3    H138216   6.654   2.813   0.158 -1.2864  1.2390  2.7627
 5575TIP3    H238217   6.726   2.691   0.212 -0.1139  0.4659 -0.3411
 5576TIP3   OH238218   2.463   5.635  11.476 -0.3974  0.0656 -0.1136
 5576TIP3    H138219   2.455   5.598  11.388  0.9100  0.9925 -0.6654
 5576TIP3    H238220   2.439   5.727  11.466  2.6483  0.9553 -0.2211
 5577TIP3   OH238221   0.475   4.175   2.284 -0.1060  0.0037  0.1008
 5577TIP3    H138222   0.460   4.220   2.201 -0.6421  1.3661  0.9020
 5577TIP3    H238223   0.563   4.139   2.276 -0.4862 -0.6791 -1.3916
 5578TIP3   OH238224   5.119   3.891  15.182  0.6987 -0.1213  0.4509
 5578TIP3    H138225   5.028   3.881  15.154  0.3381 -0.9988  1.8440
 5578TIP3    H238226   5.129   3.830  15.255  2.6672 -0.7279 -0.2435
 5579TIP3   OH238227   4.088   3.466   4.208  0.1179 -0.2567  0.3524
 5579TIP3    H138228   4.123   3.444   4.122 -2.6406 -1.1597 -0.6463
 5579TIP3    H238229   4.071   3.381   4.250  1.6151  0.1660  1.9195
 5580TIP3   OH238230   3.893   3.483   3.140 -0.4410  0.1883  0.1051
 5580TIP3    H138231   3.947   3.425   3.193 -1.0656  0.3683  0.9457
 5580TIP3    H238232   3.826   3.427   3.102 -0.2631  0.1406 -0.1453
 5581TIP3   OH238233   3.498   5.479  16.760  0.0435 -0.0833  0.2359
 5581TIP3    H138234   3.420   5.436  16.724  1.7725 -0.6489 -3.2436
 5581TIP3    H238235   3.569   5.416  16.745  1.3980  0.8685  2.2797
 5582TIP3   OH238236   4.632   4.519   3.454  0.3480  0.3248 -0.4665
 5582TIP3    H138237   4.617   4.496   3.363 -1.2333 -0.0335 -0.1372
 5582TIP3    H238238   4.553   4.565   3.481  0.4809 -0.2001  0.9305
 5583TIP3   OH238239   0.359   3.591  13.962 -0.5408  0.0970 -0.1138
 5583TIP3    H138240   0.355   3.518  14.025  0.0709 -0.2547 -0.4671
 5583TIP3    H238241   0.435   3.643  13.991 -1.1871  0.8018  0.3467
 5584TIP3   OH238242   3.803   3.722  11.147 -0.1492  0.9422  0.1295
 5584TIP3    H138243   3.780   3.671  11.070 -1.7116 -0.0164  1.1717
 5584TIP3    H238244   3.839   3.657  11.209  0.0900  1.5134  0.6030
 5585TIP3   OH238245   2.479   4.482   0.117 -0.3417  0.4037  0.2094
 5585TIP3    H138246   2.524   4.411   0.162  0.4968  0.1724 -0.9421
 5585TIP3    H238247   2.546   4.521   0.061 -1.6938 -0.4379 -2.1468
 5586TIP3   OH238248   3.431   4.954   4.051 -0.3394  0.4013 -0.4888
 5586TIP3    H138249   3.420   4.862   4.077  0.9096  0.6481  1.0733
 5586TIP3    H238250   3.448   4.950   3.957 -0.3090 -0.9717 -0.4472
 5587TIP3   OH238251   0.806   6.525  14.160  0.0516 -0.1688  0.5162
 5587TIP3    H138252   0.854   6.524  14.244 -0.1030  0.8585  0.6324
 5587TIP3    H238253   0.852   6.591  14.108 -1.2298  0.8506  0.6343
 5588TIP3   OH238254   1.586   2.232   4.531 -0.1553  0.0733 -0.4708
 5588TIP3    H138255   1.511   2.270   4.485 -0.6625 -1.9632 -1.4334
 5588TIP3    H238256   1.590   2.141   4.500  1.1725 -0.6034  1.4712
 5589TIP3   OH238257   3.108   1.971  17.411 -0.3499 -0.1870 -0.1437
 5589TIP3    H138258   3.176   1.915  17.448 -1.4958 -0.3298  1.8858
 5589TIP3    H238259   3.031   1.953  17.464 -0.9866  2.7430  0.0714
 5590TIP3   OH238260   0.602   1.550   0.602  0.1445 -0.0481 -0.0223
 5590TIP3    H138261   0.609   1.474   0.543 -0.8077  0.3030 -0.6120
 5590TIP3    H238262   0.623   1.625   0.546  2.3339  0.0678  0.8451
 5591TIP3   OH238263   1.664   5.434  15.623  0.3654 -0.2167 -0.1625
 5591TIP3    H138264   1.598   5.503  15.630  0.7407  0.2583 -1.1629
 5591TIP3    H238265   1.648   5.395  15.537 -0.2742 -1.8514  0.6448
 5592TIP3   OH238266   0.830   3.170   4.402  0.5792 -0.0348  0.2071
 5592TIP3    H138267   0.795   3.213   4.323  2.5103 -1.0348 -1.2857
 5592TIP3    H238268   0.906   3.223   4.426  1.5237 -1.1857 -0.1717
 5593TIP3   OH238269   3.455   3.264  17.316  0.1037  0.8218 -0.1314
 5593TIP3    H138270   3.530   3.222  17.358  0.2700  1.5248  0.2722
 5593TIP3    H238271   3.468   3.357  17.330 -1.5085  0.8975  1.0425
 5594TIP3   OH238272   1.778   3.655   4.216 -0.0129  0.8548  0.3921
 5594TIP3    H138273   1.793   3.651   4.122 -1.5298  0.2688  0.1387
 5594TIP3    H238274   1.854   3.613   4.255 -1.3700 -3.2275 -0.8343
 5595TIP3   OH238275   3.043   0.854  16.918 -0.3225 -0.2866  0.4015
 5595TIP3    H138276   3.125   0.822  16.955  0.5952  1.6595  0.1876
 5595TIP3    H238277   2.979   0.843  16.988  0.7555  0.7078  1.5940
 5596TIP3   OH238278   0.390   5.853  14.059  0.7109 -0.5304  0.0129
 5596TIP3    H138279   0.463   5.897  14.013  1.7560 -1.2427  0.9313
 5596TIP3    H238280   0.342   5.808  13.990  0.9624  0.1834 -0.6531
 5597TIP3   OH238281   2.047   0.546  14.632 -0.6995  0.0798  0.1401
 5597TIP3    H138282   2.051   0.539  14.727  1.4756 -2.7131 -0.0102
 5597TIP3    H238283   1.995   0.470  14.605  1.6969 -1.2747 -0.9524
 5598TIP3   OH238284   6.043   3.723   4.219  0.1035 -0.5966  0.1161
 5598TIP3    H138285   6.072   3.656   4.157 -0.9085  0.6712 -1.8486
 5598TIP3    H238286   6.110   3.791   4.212 -1.0674  0.4886 -1.2810
 5599TIP3   OH238287   0.708   1.261   0.040 -0.0924  0.7066  0.5844
 5599TIP3    H138288   0.797   1.295   0.030 -0.1065  0.0215 -2.8597
 5599TIP3    H238289   0.655   1.338   0.062  1.1860  1.2013  2.1993
 5600TIP3   OH238290   5.061   0.025   1.837 -0.0591 -0.0400  0.2293
 5600TIP3    H138291   4.972  -0.009   1.845  0.8052 -2.8469 -0.8580
 5600TIP3    H238292   5.057   0.083   1.760 -1.1187  0.6757  0.7976
 5601TIP3   OH238293   1.999   2.764  11.378  0.0946  0.2178  0.3835
 5601TIP3    H138294   2.086   2.803  11.378  1.0362 -1.7584 -0.3995
 5601TIP3    H238295   1.941   2.836  11.353  1.4440  1.6323  1.1301
 5602TIP3   OH238296   5.597   0.801  10.903  0.3950  0.2280  0.3040
 5602TIP3    H138297   5.691   0.818  10.893  0.1543  1.7724  0.4445
 5602TIP3    H238298   5.581   0.809  10.997  0.1954 -0.4801  0.3321
 5603TIP3   OH238299   0.632   3.920  11.206  0.4098 -0.1620 -0.3210
 5603TIP3    H138300   0.641   3.826  11.191  1.6971 -0.6340  2.7218
 5603TIP3    H238301   0.543   3.940  11.178 -0.2177 -2.4813 -0.1626
 5604TIP3   OH238302   2.435   0.548   2.119  0.2731  0.5282 -0.1437
 5604TIP3    H138303   2.521   0.509   2.106  0.3920  1.2488 -1.7594
 5604TIP3    H238304   2.452   0.634   2.157  0.5889  2.0827 -3.4762
 5605TIP3   OH238305   0.856   5.620  16.484  0.0269 -0.3829  0.1949
 5605TIP3    H138306   0.779   5.673  16.503 -1.2928 -1.7995 -0.9626
 5605TIP3    H238307   0.858   5.614  16.389 -0.2578 -2.8813  0.2852
 5606TIP3   OH238308   0.894   4.483   3.352  0.5629  0.3185  0.6108
 5606TIP3    H138309   0.980   4.443   3.343  0.3857  0.2547 -1.3129
 5606TIP3    H238310   0.899   4.561   3.297 -0.8420 -0.1233 -0.1865
 5607TIP3   OH238311   5.811   4.329  14.544 -0.2487 -0.3368  0.3217
 5607TIP3    H138312   5.897   4.370  14.530  0.2275 -1.5675 -0.5114
 5607TIP3    H238313   5.815   4.247  14.494 -1.5928 -0.8403  0.9931
 5608TIP3   OH238314   2.913   3.666  14.433 -0.2684  0.3925 -0.3116
 5608TIP3    H138315   2.960   3.588  14.405 -0.8454  0.2596 -0.9498
 5608TIP3    H238316   2.977   3.737  14.425 -0.4751  0.4120 -2.3114
 5609TIP3   OH238317   3.114   0.060  15.598 -0.8334 -0.0883 -0.1034
 5609TIP3    H138318   3.123   0.143  15.551 -2.1147 -0.1383 -0.4878
 5609TIP3    H238319   3.070   0.082  15.680  1.5173  0.0156  1.2205
 5610TIP3   OH238320   1.119   5.180   4.098 -0.1109  0.2211  0.1625
 5610TIP3    H138321   1.030   5.189   4.133  0.0083 -0.4959  0.6782
 5610TIP3    H238322   1.174   5.171   4.175  0.0530 -2.2815 -0.1636
 5611TIP3   OH238323   4.503   0.530  16.537 -0.3381 -0.1838  0.3878
 5611TIP3    H138324   4.535   0.538  16.627  1.9919  0.8945 -0.4453
 5611TIP3    H238325   4.431   0.467  16.542 -1.8029  1.5352  3.3209
 5612TIP3   OH238326   4.155   6.590  14.086  0.1891 -0.6015  0.3219
 5612TIP3    H138327   4.093   6.551  14.025  2.3145 -1.3478 -1.5149
 5612TIP3    H238328   4.176   6.675  14.048  2.1011 -1.3805 -0.5422
 5613TIP3   OH238329   2.341   1.877  16.468  0.1046  0.9079 -0.2150
 5613TIP3    H138330   2.323   1.788  16.435 -0.0653  0.8854 -0.0595
 5613TIP3    H238331   2.376   1.923  16.392  0.9050  0.4954 -0.1111
 5614TIP3   OH238332   3.938   5.414  12.936  0.4027 -0.1351  0.2699
 5614TIP3    H138333   3.883   5.444  12.864 -1.7080 -4.3433 -0.2177
 5614TIP3    H238334   4.021   5.389  12.895 -0.1700 -0.8817 -0.4727
 5615TIP3   OH238335   1.109   2.308   1.903 -0.5940 -0.3909 -0.1526
 5615TIP3    H138336   1.141   2.226   1.866  0.8936 -0.2347  0.7106
 5615TIP3    H238337   1.048   2.342   1.837 -0.3980 -1.6424 -1.0084
 5616TIP3   OH238338   1.360   2.676  14.594 -0.2328 -0.2479 -0.0079
 5616TIP3    H138339   1.455   2.668  14.579 -0.2314 -1.9988  0.7540
 5616TIP3    H238340   1.322   2.598  14.553 -1.2159 -0.1732  0.7258
 5617TIP3   OH238341   1.933   2.127  15.255  0.5359 -0.3688  0.0041
 5617TIP3    H138342   1.894   2.086  15.332  1.8795 -0.9382  0.3992
 5617TIP3    H238343   2.011   2.171  15.287 -1.1221  3.1534 -0.2771
 5618TIP3   OH238344   3.386   5.577  15.860  0.4431 -0.3543 -0.0527
 5618TIP3    H138345   3.333   5.540  15.789 -0.3167  0.5712  0.0148
 5618TIP3    H238346   3.324   5.592  15.931  0.9239  0.1058  0.2813
 5619TIP3   OH238347   1.585   4.507  11.251  0.2390 -0.0413 -0.1048
 5619TIP3    H138348   1.618   4.418  11.264  2.1345  0.4846 -0.9093
 5619TIP3    H238349   1.664   4.562  11.250 -0.7903  1.5038 -0.8048
 5620TIP3   OH238350   5.300   5.546  11.963 -0.3590  0.7145  0.5741
 5620TIP3    H138351   5.233   5.504  11.909  0.6586  1.2447 -1.1928
 5620TIP3    H238352   5.323   5.625  11.914 -0.0191  1.7001  2.2685
 5621TIP3   OH238353   2.893   5.461   4.249 -0.2622  0.1147 -0.6451
 5621TIP3    H138354   2.974   5.500   4.281 -0.2754  0.9523 -1.5833
 5621TIP3    H238355   2.920   5.405   4.176 -0.3125 -1.2347  0.3182
 5622TIP3   OH238356   6.080   3.201   1.134  0.1013  0.6620  0.3872
 5622TIP3    H138357   6.007   3.186   1.194  1.1326 -1.8266  1.1453
 5622TIP3    H238358   6.158   3.204   1.189  0.9532 -0.5566 -0.6809
 5623TIP3   OH238359   2.018   5.335  13.931 -0.4071 -0.4590  0.7649
 5623TIP3    H138360   1.997   5.354  14.023 -4.6109  0.5163 -0.1813
 5623TIP3    H238361   1.956   5.265  13.907  0.0491 -0.1310 -1.5204
 5624TIP3   OH238362   5.456   5.139  15.800 -0.0233  0.6173  0.0006
 5624TIP3    H138363   5.499   5.225  15.799  1.2323  0.0102  0.0140
 5624TIP3    H238364   5.442   5.118  15.708 -0.1555  0.7404 -0.0088
 5625TIP3   OH238365   6.596   1.698  17.119 -0.2190 -0.0280 -0.2133
 5625TIP3    H138366   6.537   1.722  17.190  0.5056  3.2343 -0.5320
 5625TIP3    H238367   6.585   1.768  17.054  0.9194 -1.5910 -2.1999
 5626TIP3   OH238368   2.898   2.304   0.778 -0.0239  0.3905  0.0848
 5626TIP3    H138369   2.878   2.330   0.688 -0.3985  0.8113  0.2811
 5626TIP3    H238370   2.979   2.351   0.800  1.8789 -2.1289 -1.0669
 5627TIP3   OH238371   3.645   1.819  12.206  0.0319  0.1226  0.5871
 5627TIP3    H138372   3.657   1.764  12.129 -1.1734 -0.7402  0.9854
 5627TIP3    H238373   3.669   1.763  12.280  1.3837  1.0096  0.8509
 5628TIP3   OH238374   3.636   5.037   1.549  0.7907  0.1356  0.1394
 5628TIP3    H138375   3.586   5.063   1.473 -1.0214  0.6993  1.4563
 5628TIP3    H238376   3.588   4.962   1.585  0.2383  1.3249  2.0129
 5629TIP3   OH238377   4.786   0.914  11.594  0.4646  0.0119  0.2719
 5629TIP3    H138378   4.791   1.001  11.555  0.9601  0.7335  1.8907
 5629TIP3    H238379   4.844   0.918  11.670 -0.0232 -1.5326  0.7597
 5630TIP3   OH238380   5.183   2.208   0.354  0.3815 -0.0918  0.5362
 5630TIP3    H138381   5.243   2.282   0.352  0.1438  0.0888 -0.0642
 5630TIP3    H238382   5.152   2.204   0.445 -2.2770  2.7208 -0.1068
 5631TIP3   OH238383   5.825   3.317   2.399  0.1063 -0.9655 -0.0641
 5631TIP3    H138384   5.786   3.403   2.411 -0.1788 -1.2197  0.9766
 5631TIP3    H238385   5.919   3.331   2.409  0.1406 -0.6460 -0.7641
 5632TIP3   OH238386   0.170   5.923  15.292  0.0170  0.4029 -0.3130
 5632TIP3    H138387   0.089   5.880  15.318 -1.2565  1.1076 -2.7266
 5632TIP3    H238388   0.221   5.855  15.248 -0.6398  0.6106 -1.4343
 5633TIP3   OH238389   5.905   4.785   6.295 -0.0411  0.4676 -0.0706
 5633TIP3    H138390   5.899   4.879   6.306  1.8260  0.4882  1.3635
 5633TIP3    H238391   5.889   4.749   6.383 -1.7624 -0.6505 -0.7888
 5634TIP3   OH238392   0.754   0.635  16.177 -0.3779 -0.3001 -0.3264
 5634TIP3    H138393   0.802   0.715  16.198  1.2182 -1.2787 -0.0468
 5634TIP3    H238394   0.755   0.585  16.259  0.7028 -1.5797 -1.0733
 5635TIP3   OH238395   5.155   5.189   1.948  0.0840 -0.2993  0.1768
 5635TIP3    H138396   5.157   5.197   1.853  0.2008  1.4150  0.3004
 5635TIP3    H238397   5.170   5.096   1.964 -1.3913 -0.9022 -1.5178
 5636TIP3   OH238398   0.752   0.238   4.070 -0.2378 -0.2162 -0.2406
 5636TIP3    H138399   0.794   0.313   4.028  1.1298 -1.6433 -1.5614
 5636TIP3    H238400   0.687   0.208   4.006 -0.1311 -0.7003 -0.1261
 5637TIP3   OH238401   2.226   3.523  13.809  0.0909  0.2978  0.6168
 5637TIP3    H138402   2.140   3.565  13.808  0.2202  0.5571  0.2345
 5637TIP3    H238403   2.285   3.587  13.771 -0.1681 -1.1528 -2.5577
 5638TIP3   OH238404   4.264   1.953  12.625 -0.3538 -0.0561 -0.3639
 5638TIP3    H138405   4.329   1.994  12.568  1.1426 -0.7565  0.7490
 5638TIP3    H238406   4.221   1.888  12.571  1.1776 -0.8495 -0.6751
 5639TIP3   OH238407   2.681   1.395   1.844  0.9791 -0.1172 -0.0009
 5639TIP3    H138408   2.618   1.463   1.819  0.0177 -0.9673  0.0659
 5639TIP3    H238409   2.744   1.441   1.900 -0.4130  0.4583  1.1766
 5640TIP3   OH238410   0.072   1.056  13.753 -0.1506  0.0306 -0.3115
 5640TIP3    H138411   0.056   0.972  13.797 -1.2798 -0.0658 -0.8919
 5640TIP3    H238412   0.168   1.061  13.747 -0.0141 -0.5950  0.9115
 5641TIP3   OH238413   4.455   1.406  11.239 -0.1412  0.3204  0.2483
 5641TIP3    H138414   4.485   1.399  11.149  0.3370  1.1110  0.3383
 5641TIP3    H238415   4.363   1.431  11.232 -0.2765 -0.2337 -0.0142
 5642TIP3   OH238416   6.163   5.461  17.068  0.1288 -0.5226  0.0451
 5642TIP3    H138417   6.092   5.433  17.127  0.7215 -1.0411  0.5268
 5642TIP3    H238418   6.188   5.547  17.100 -2.3826  1.1443 -2.0532
 5643TIP3   OH238419   1.994   0.701   4.022  0.2008  0.0704  0.3412
 5643TIP3    H138420   2.064   0.644   3.990 -0.2428 -0.3983  0.1823
 5643TIP3    H238421   2.017   0.719   4.113  2.5645  3.0636 -0.6748
 5644TIP3   OH238422   3.321   6.163   2.901  0.9559  0.2330 -0.7830
 5644TIP3    H138423   3.290   6.138   2.988 -0.3296 -0.9197 -1.5343
 5644TIP3    H238424   3.358   6.250   2.913  1.9493 -0.3908  1.1506
 5645TIP3   OH238425   4.273   6.412  15.045 -0.5291  0.0227 -0.0364
 5645TIP3    H138426   4.312   6.330  15.014  0.4294  0.8861 -1.2247
 5645TIP3    H238427   4.308   6.423  15.133 -2.6332 -2.0625  1.1572
 5646TIP3   OH238428   0.093   5.180  13.804 -0.4828 -0.3872 -0.3631
 5646TIP3    H138429   0.162   5.160  13.867  0.0553  0.0036 -0.8154
 5646TIP3    H238430   0.042   5.250  13.844 -0.3383 -0.3631 -0.2231
 5647TIP3   OH238431   0.365   2.718   5.317  0.2703 -0.1468 -0.0787
 5647TIP3    H138432   0.373   2.794   5.374  0.6573  0.4100 -0.8755
 5647TIP3    H238433   0.454   2.682   5.312  0.3486  0.1335 -0.7756
 5648TIP3   OH238434   3.141   2.827   1.131  0.4534 -0.0693  0.1961
 5648TIP3    H138435   3.144   2.743   1.084 -1.3718 -0.1710  0.1892
 5648TIP3    H238436   3.232   2.856   1.134  1.2453 -2.3772  0.7953
 5649TIP3   OH238437   5.164   0.150   6.506  0.0906 -0.1166 -0.0450
 5649TIP3    H138438   5.069   0.149   6.492  0.0997  1.2008 -0.3378
 5649TIP3    H238439   5.189   0.057   6.505 -1.4044 -0.6187  1.6545
 5650TIP3   OH238440   3.349   6.013  12.148  0.5110  0.7575  0.1236
 5650TIP3    H138441   3.421   6.033  12.208 -0.3878 -0.1858  1.5703
 5650TIP3    H238442   3.306   6.097  12.134  0.4839  0.9281  1.1551
 5651TIP3   OH238443   2.299   4.750   1.983 -0.1783 -0.1407 -0.2973
 5651TIP3    H138444   2.372   4.790   1.937 -1.5063  2.5258 -0.2570
 5651TIP3    H238445   2.336   4.719   2.065  1.1302  0.0259 -0.8062
 5652TIP3   OH238446   1.705   4.963   5.124 -0.1089 -0.2005 -0.2199
 5652TIP3    H138447   1.651   5.038   5.148  0.0236 -0.3190  0.4695
 5652TIP3    H238448   1.702   4.906   5.201  1.2168 -0.0840 -0.0595
 5653TIP3   OH238449   1.559   1.274  16.957 -0.1371  0.4936 -0.2690
 5653TIP3    H138450   1.479   1.225  16.939  0.5591 -1.1945  0.9616
 5653TIP3    H238451   1.619   1.248  16.886 -0.1210  0.4289 -0.2316
 5654TIP3   OH238452   2.859   3.818   6.005 -0.1734  0.1582  0.5143
 5654TIP3    H138453   2.946   3.815   6.044 -0.9137  1.7924  2.4757
 5654TIP3    H238454   2.874   3.836   5.913  1.5541  1.5466  1.0323
 5655TIP3   OH238455   1.550   4.293  13.429  0.2402 -0.4672 -0.2249
 5655TIP3    H138456   1.577   4.215  13.477 -0.2228 -1.0389 -0.8636
 5655TIP3    H238457   1.556   4.364  13.492  0.0278 -1.1343  0.5614
 5656TIP3   OH238458   0.923   5.600   0.331  0.4505 -0.0544  0.2530
 5656TIP3    H138459   0.922   5.625   0.423 -0.3045  1.9948 -0.2738
 5656TIP3    H238460   0.833   5.612   0.301  0.8801  0.2323 -0.9868
 5657TIP3   OH238461   2.127   5.340   3.552 -0.4101 -0.2561 -0.0462
 5657TIP3    H138462   2.066   5.406   3.520  0.2387 -0.3127 -1.4842
 5657TIP3    H238463   2.168   5.379   3.629 -2.0084 -0.0984  0.7710
 5658TIP3   OH238464   3.319   5.439  14.595  0.5590  0.1155 -0.1206
 5658TIP3    H138465   3.283   5.406  14.677 -1.4036  1.3040 -0.4350
 5658TIP3    H238466   3.266   5.398  14.527  0.4297  1.1388 -0.6525
 5659TIP3   OH238467   5.083   5.114  14.046  0.0521  0.3305  0.0360
 5659TIP3    H138468   5.050   5.176  13.980  0.2325 -0.5309 -0.8779
 5659TIP3    H238469   5.028   5.037  14.036  0.8527 -0.2593  0.0696
 5660TIP3   OH238470   1.016   3.208  11.983 -0.3580 -0.3060  0.0995
 5660TIP3    H138471   1.002   3.153  11.905  0.9577  0.4507 -0.7000
 5660TIP3    H238472   1.102   3.248  11.969 -0.6103  0.7457  1.4105
 5661TIP3   OH238473   4.147   4.818  12.797 -0.5162 -0.0456  0.1032
 5661TIP3    H138474   4.180   4.847  12.712  2.0148 -1.1329  0.6131
 5661TIP3    H238475   4.112   4.730  12.780  0.5550 -0.5200  0.2444
 5662TIP3   OH238476   2.167   2.078  12.702 -0.4591  0.9981  0.1435
 5662TIP3    H138477   2.093   2.077  12.763  0.2448  2.0682  1.0434
 5662TIP3    H238478   2.169   1.989  12.665 -1.8448  0.7988  0.5104
 5663TIP3   OH238479   1.607   6.550   3.944  0.1268 -0.0495  0.0099
 5663TIP3    H138480   1.556   6.603   3.883  0.0104  0.1589  0.2877
 5663TIP3    H238481   1.681   6.517   3.892  0.8953  1.4041  0.1308
 5664TIP3   OH238482   6.479   3.600  11.213  0.1382  0.1334  0.9520
 5664TIP3    H138483   6.476   3.693  11.190  0.7618  0.7460  3.1404
 5664TIP3    H238484   6.395   3.566  11.183  0.0832  1.2687 -0.3024
 5665TIP3   OH238485   1.620   5.816  13.462  0.3498 -0.0244  0.0830
 5665TIP3    H138486   1.667   5.839  13.382  0.6859 -0.5640  0.1227
 5665TIP3    H238487   1.688   5.805  13.528 -0.0304  2.8660  1.1192
 5666TIP3   OH238488   6.478   4.906  13.438 -0.2074  0.3635  0.0950
 5666TIP3    H138489   6.507   4.815  13.430  0.3939  0.6387 -1.2047
 5666TIP3    H238490   6.489   4.927  13.530  0.3774 -0.6487  0.2728
 5667TIP3   OH238491   6.288   1.024  11.887  0.2168  0.4611 -0.1424
 5667TIP3    H138492   6.284   0.953  11.951  2.3653  1.4052  1.1513
 5667TIP3    H238493   6.309   1.102  11.938 -0.5045  1.7556 -1.7227
 5668TIP3   OH238494   4.719   6.650  12.208 -0.6075 -0.3922 -0.1055
 5668TIP3    H138495   4.807   6.672  12.176 -1.5129 -0.5362 -2.9848
 5668TIP3    H238496   4.672   6.733  12.204 -0.8618 -0.5082  0.4853
 5669TIP3   OH238497   6.304   1.584   4.223 -0.2958 -0.0397  0.2940
 5669TIP3    H138498   6.346   1.509   4.181 -0.2106  0.4402 -0.5121
 5669TIP3    H238499   6.346   1.660   4.183 -2.1970  0.4731 -0.8575
 5670TIP3   OH238500   2.669   2.186  11.856  0.6046 -0.1149  0.3903
 5670TIP3    H138501   2.696   2.264  11.905  0.9469  1.4004 -2.0183
 5670TIP3    H238502   2.576   2.175  11.876  0.7914  0.2630  1.5499
 5671TIP3   OH238503   3.851   6.725  14.794 -0.3162  0.7769 -0.0952
 5671TIP3    H138504   3.919   6.737  14.860  0.9942  1.3639 -1.5012
 5671TIP3    H238505   3.891   6.752  14.712 -2.0604  0.5539 -1.0836
 5672TIP3   OH238506   3.202   1.376   3.547  0.0987 -0.2498  0.0653
 5672TIP3    H138507   3.255   1.450   3.521 -0.5224 -0.0414 -0.6426
 5672TIP3    H238508   3.140   1.363   3.475  0.1004 -1.3612  0.2341
 5673TIP3   OH238509   5.987   3.350   3.400  0.3080 -0.0342  0.5091
 5673TIP3    H138510   6.049   3.340   3.328  0.0016 -0.5493  0.3085
 5673TIP3    H238511   5.912   3.296   3.375 -0.6820  1.3880  0.2469
 5674TIP3   OH238512   4.140   6.215  17.132 -0.3562 -0.5278 -0.3418
 5674TIP3    H138513   4.169   6.178  17.049  1.0039 -0.5962  0.1270
 5674TIP3    H238514   4.144   6.142  17.194 -0.7055 -0.3262 -0.0768
 5675TIP3   OH238515   6.203   0.218  14.838 -0.1989 -0.5370 -0.0009
 5675TIP3    H138516   6.272   0.224  14.904 -0.0732 -2.6987  0.1134
 5675TIP3    H238517   6.211   0.130  14.802 -1.6487 -0.1529 -1.3933
 5676TIP3   OH238518   0.516   6.008  12.785  0.4144 -0.0163 -0.1557
 5676TIP3    H138519   0.562   5.926  12.767 -0.4399 -0.5732  0.1096
 5676TIP3    H238520   0.506   6.010  12.880 -3.6420 -2.0065 -0.3128
 5677TIP3   OH238521   1.730   6.009   3.164  0.1016 -0.3190 -0.5070
 5677TIP3    H138522   1.714   6.003   3.258 -2.1593  0.9531 -0.7419
 5677TIP3    H238523   1.700   6.097   3.140 -0.0821 -0.8849 -2.5322
 5678TIP3   OH238524   6.184   1.455   4.550 -0.5127  0.0393  0.2802
 5678TIP3    H138525   6.144   1.425   4.632 -0.0363  0.0482  0.5241
 5678TIP3    H238526   6.200   1.375   4.501  1.2662 -0.2216  1.1662
 5679TIP3   OH238527   3.378   0.828  13.660  0.0358  0.1578  0.3407
 5679TIP3    H138528   3.342   0.753  13.708 -2.1488  0.7772 -0.2007
 5679TIP3    H238529   3.326   0.903  13.690  1.9024  1.4334  0.5754
 5680TIP3   OH238530   6.620   2.916  13.330 -0.6101 -0.1450 -0.4395
 5680TIP3    H138531   6.557   2.874  13.272 -0.2730 -0.5474 -0.5196
 5680TIP3    H238532   6.605   2.874  13.415 -0.8674  0.1966 -0.3141
 5681TIP3   OH238533   3.636   4.840  11.316  0.6744 -0.0142 -0.5750
 5681TIP3    H138534   3.688   4.803  11.245 -0.2844 -3.0830  0.1803
 5681TIP3    H238535   3.583   4.908  11.273  1.1494 -0.7854 -2.4974
 5682TIP3   OH238536   2.709   4.026  16.664 -0.0934 -0.3794  0.1464
 5682TIP3    H138537   2.670   3.945  16.631  0.9278 -0.7595 -0.1660
 5682TIP3    H238538   2.802   4.004  16.678  0.3493  0.9077 -0.5670
 5683TIP3   OH238539   6.372   3.061  15.323  0.4013 -0.1221 -0.5293
 5683TIP3    H138540   6.395   3.151  15.301  2.6475 -0.4262  0.3064
 5683TIP3    H238541   6.455   3.021  15.351 -0.6293 -2.2956 -0.3483
 5684TIP3   OH238542   0.274   2.879  14.788  0.1377 -0.2451  0.1160
 5684TIP3    H138543   0.297   2.964  14.752  1.6920 -1.0566 -0.9263
 5684TIP3    H238544   0.276   2.820  14.713  2.1621 -1.7513  1.2305
 5685TIP3   OH238545   4.236   4.428   4.074  0.1031 -0.2475  0.2631
 5685TIP3    H138546   4.313   4.372   4.085  0.4233  0.4553  1.9481
 5685TIP3    H238547   4.269   4.517   4.087 -0.3239  0.4498 -2.7305
 5686TIP3   OH238548   2.155   4.205  13.675 -0.2931  0.0656 -0.5270
 5686TIP3    H138549   2.225   4.191  13.739 -1.0050 -1.2590 -0.0255
 5686TIP3    H238550   2.090   4.257  13.722  0.5468  1.7641 -1.1558
 5687TIP3   OH238551   3.945   5.268  13.154 -0.2107  0.2544 -0.0469
 5687TIP3    H138552   3.942   5.311  13.068 -0.3786 -1.1378 -0.7787
 5687TIP3    H238553   3.970   5.177  13.134 -1.5325 -0.4356  1.2341
 5688TIP3   OH238554   4.274   1.642  11.258 -0.5639 -0.6397 -0.0982
 5688TIP3    H138555   4.227   1.560  11.273 -0.5178 -0.8744 -1.1589
 5688TIP3    H238556   4.306   1.668  11.344 -1.2859 -1.3028  0.3812
 5689TIP3   OH238557   4.383   0.089  11.860 -0.5088 -0.4336  0.0297
 5689TIP3    H138558   4.423   0.006  11.884 -1.5349 -1.3972 -1.4038
 5689TIP3    H238559   4.447   0.130  11.801  0.3179  0.1643  1.3058
 5690TIP3   OH238560   0.925   6.370   2.682  0.4659 -0.1104 -0.2247
 5690TIP3    H138561   0.986   6.441   2.661  0.6191 -0.3924 -0.7358
 5690TIP3    H238562   0.899   6.387   2.772  0.4354  0.6534 -0.3710
 5691TIP3   OH238563   0.770   0.816   2.329  0.6547 -0.0011 -0.7316
 5691TIP3    H138564   0.793   0.797   2.420  0.9620  0.4404 -0.7148
 5691TIP3    H238565   0.815   0.898   2.309 -0.6844  0.7449 -0.7865
 5692TIP3   OH238566   3.393   0.915  15.263 -0.3154  0.0723 -0.2443
 5692TIP3    H138567   3.349   0.918  15.348 -2.8842 -0.0888 -1.4782
 5692TIP3    H238568   3.412   0.823  15.248  1.3850  0.2370  0.7001
 5693TIP3   OH238569   3.045   0.693  17.414 -0.3008 -0.2525  0.1222
 5693TIP3    H138570   3.006   0.640  17.483 -1.6158  2.9042  2.0303
 5693TIP3    H238571   3.131   0.717  17.447  0.1770 -0.8851 -0.6088
 5694TIP3   OH238572   5.296   4.086  12.546 -0.3848  0.4100  0.2976
 5694TIP3    H138573   5.273   4.051  12.460  0.9135 -1.8625  0.7951
 5694TIP3    H238574   5.347   4.164  12.528  2.1230 -1.4346 -1.1646
 5695TIP3   OH238575   0.966   3.605   5.361  0.4291  0.7232  0.1259
 5695TIP3    H138576   0.896   3.663   5.329  0.1639  0.2113 -0.2507
 5695TIP3    H238577   1.042   3.662   5.371  0.3511  1.0272 -0.8523
 5696TIP3   OH238578   4.548   2.739  15.169 -0.5141 -0.4483 -0.1216
 5696TIP3    H138579   4.644   2.742  15.175 -0.6205  1.1246  2.4205
 5696TIP3    H238580   4.525   2.809  15.109 -0.0834 -0.2543 -0.0655
 5697TIP3   OH238581   5.068   2.914  11.485 -0.7410  0.1508 -0.1336
 5697TIP3    H138582   4.992   2.960  11.451 -0.1970 -0.4438 -2.2742
 5697TIP3    H238583   5.141   2.974  11.470 -0.3351 -0.5454 -1.0766
 5698TIP3   OH238584   6.688   6.442   1.204 -0.1585 -0.5093  0.4078
 5698TIP3    H138585   6.658   6.524   1.243 -1.2502 -0.7290  0.0434
 5698TIP3    H238586   6.682   6.455   1.110 -0.8095 -1.1734  0.3476
 5699TIP3   OH238587   6.533   4.082  12.109  0.2532 -0.2254 -0.1370
 5699TIP3    H138588   6.571   4.128  12.035  0.6837 -1.2551 -0.5732
 5699TIP3    H238589   6.442   4.110  12.110 -0.1457 -1.3059 -1.9765
 5700TIP3   OH238590   0.422   3.066   3.100 -0.2379  0.5205  0.0452
 5700TIP3    H138591   0.502   3.058   3.151 -0.3159 -1.5794 -0.0449
 5700TIP3    H238592   0.417   2.983   3.051 -2.0948  0.8897 -0.4714
 5701TIP3   OH238593   5.278   0.278  15.224  0.8689 -0.1834 -0.3134
 5701TIP3    H138594   5.343   0.341  15.254  1.2711 -1.7464  2.4945
 5701TIP3    H238595   5.199   0.299  15.274  0.9722 -1.7479  0.5760
 5702TIP3   OH238596   2.320   6.198  16.290  0.2297 -0.4439 -0.1030
 5702TIP3    H138597   2.352   6.108  16.287 -4.4886 -2.3742 -0.5235
 5702TIP3    H238598   2.338   6.227  16.379  2.3664 -1.4736 -0.1388
 5703TIP3   OH238599   0.018   3.310   1.787  0.0049 -0.2559  0.1104
 5703TIP3    H138600   0.044   3.263   1.708 -0.5406 -1.5974  0.7141
 5703TIP3    H238601   0.036   3.249   1.858  0.3508  0.8804  1.0307
 5704TIP3   OH238602   0.021   2.598   2.146 -0.2212  0.9238 -0.1306
 5704TIP3    H138603  -0.040   2.605   2.219  0.6643 -0.5024  0.7849
 5704TIP3    H238604   0.056   2.686   2.135 -0.2295  1.1283  1.3001
 5705TIP3   OH238605   4.681   1.437   6.665 -0.0312 -0.3415 -0.2510
 5705TIP3    H138606   4.606   1.458   6.720 -0.7951  1.4386 -1.8478
 5705TIP3    H238607   4.724   1.364   6.709 -1.5830 -0.1364  1.7266
 5706TIP3   OH238608   0.863   3.636   0.313  1.1379 -0.0463  0.2794
 5706TIP3    H138609   0.818   3.566   0.361 -1.3097  1.5676  0.5157
 5706TIP3    H238610   0.796   3.671   0.254  2.8661  0.8304 -1.2534
 5707TIP3   OH238611   3.909   3.186   0.298  0.5523 -0.1306  0.2616
 5707TIP3    H138612   3.945   3.261   0.344  1.9166 -1.0075  0.6839
 5707TIP3    H238613   3.921   3.207   0.205 -0.6129  0.8762  0.3172
 5708TIP3   OH238614   2.920   6.242   0.204  0.5768 -0.4894  0.4271
 5708TIP3    H138615   3.009   6.245   0.169 -0.3650  1.2486 -2.1574
 5708TIP3    H238616   2.889   6.154   0.183  1.5443 -1.0151  1.0973
 5709TIP3   OH238617   5.838   1.299   0.347 -0.3040 -0.3896 -0.5181
 5709TIP3    H138618   5.892   1.230   0.308  0.2511 -0.2174 -0.0676
 5709TIP3    H238619   5.889   1.330   0.422 -1.0232 -0.2116 -0.0929
 5710TIP3   OH238620   5.629   2.417   0.866  0.4616 -0.2664 -0.6419
 5710TIP3    H138621   5.621   2.337   0.815  1.0410 -0.1846 -0.8646
 5710TIP3    H238622   5.585   2.484   0.814 -0.8473 -0.6142 -0.0290
 5711TIP3   OH238623   5.986   3.400   1.754  0.2339 -0.7820 -0.3657
 5711TIP3    H138624   5.959   3.336   1.820 -0.1598 -0.8207 -0.5603
 5711TIP3    H238625   5.987   3.483   1.801 -0.6890 -0.7025 -0.4552
 5712TIP3   OH238626   2.668   3.065   3.164 -0.1652 -0.2176 -0.1079
 5712TIP3    H138627   2.579   3.088   3.191 -0.6653 -0.2494 -1.6461
 5712TIP3    H238628   2.719   3.145   3.179 -0.1962 -0.4726  1.6717
 5713TIP3   OH238629   2.694   0.113  11.084 -0.2001 -0.1490  0.0261
 5713TIP3    H138630   2.702   0.200  11.123  1.7377 -0.0803 -0.4362
 5713TIP3    H238631   2.600   0.103  11.067 -0.5751  1.4467  0.9614
 5714TIP3   OH238632   4.946   1.679   5.134 -0.2717 -0.2411  0.0013
 5714TIP3    H138633   4.884   1.675   5.206 -0.4588 -2.3037 -0.2187
 5714TIP3    H238634   4.919   1.756   5.084  0.1768  1.5360  2.3378
 5715TIP3   OH238635   5.007   4.447   6.634  0.3841  0.1267 -0.2167
 5715TIP3    H138636   4.986   4.361   6.669  0.3180  0.4529  0.5755
 5715TIP3    H238637   5.081   4.478   6.687 -1.1085  1.5445  1.1468
 5716TIP3   OH238638   1.756   1.897   0.693  0.2545  0.3919  0.0174
 5716TIP3    H138639   1.805   1.973   0.660  0.3458 -0.4319 -1.8766
 5716TIP3    H238640   1.809   1.821   0.668 -0.0139 -0.3392  1.5572
 5717TIP3   OH238641   0.828   4.115   4.560  0.6111 -0.2250 -0.4987
 5717TIP3    H138642   0.737   4.135   4.540 -0.0636 -0.6288  1.8932
 5717TIP3    H238643   0.853   4.050   4.495 -1.7866 -2.3507  0.5240
 5718TIP3   OH238644   0.765   2.645   2.802 -0.7145 -0.5385 -0.1077
 5718TIP3    H138645   0.761   2.733   2.839 -1.7026 -1.8542  3.2233
 5718TIP3    H238646   0.835   2.649   2.737 -0.5281  2.5734  0.1550
 5719TIP3   OH238647   0.191   4.150  12.764 -0.2258  0.1691  0.4180
 5719TIP3    H138648   0.210   4.173  12.673  0.8996 -0.5274  0.4594
 5719TIP3    H238649   0.106   4.190  12.781 -0.7562 -0.1961 -1.1370
 5720TIP3   OH238650   0.771   2.069   2.326  0.1867 -0.1536 -0.1874
 5720TIP3    H138651   0.766   1.973   2.327  2.8475 -0.4292 -1.9900
 5720TIP3    H238652   0.691   2.097   2.282 -0.2958 -1.5928 -0.2691
 5721TIP3   OH238653   1.796   2.259  13.905 -0.7063  0.1580  0.3395
 5721TIP3    H138654   1.776   2.250  13.812  1.2315  0.2219 -0.1108
 5721TIP3    H238655   1.890   2.247  13.911 -0.9619 -1.2488  2.4898
 5722TIP3   OH238656   3.173   4.204   3.837  0.4081  0.4130 -0.2907
 5722TIP3    H138657   3.268   4.209   3.830  0.2838  0.9592 -3.3043
 5722TIP3    H238658   3.156   4.121   3.881  2.2594  0.8216  1.2951
 5723TIP3   OH238659   4.470   3.516   3.392 -0.5791 -0.4806 -0.1691
 5723TIP3    H138660   4.392   3.475   3.354 -0.7196 -0.1351 -0.2564
 5723TIP3    H238661   4.512   3.559   3.318 -1.2747  0.8720  0.1831
 5724TIP3   OH238662   4.679   6.081   1.341 -0.0597  0.0227 -0.3547
 5724TIP3    H138663   4.673   6.021   1.267  1.8576 -2.7431  1.5233
 5724TIP3    H238664   4.678   6.024   1.418 -2.6282  2.7794  1.8784
 5725TIP3   OH238665   2.637   3.379  14.286  0.5020 -0.5246  0.2790
 5725TIP3    H138666   2.630   3.387  14.381 -0.7917  0.5770  0.1247
 5725TIP3    H238667   2.553   3.411  14.253  0.6133 -1.6510 -1.2084
 5726TIP3   OH238668   3.224   3.650   6.436  0.1044 -0.5437  0.2711
 5726TIP3    H138669   3.235   3.677   6.528 -1.5835 -1.2690  0.7391
 5726TIP3    H238670   3.281   3.574   6.427 -0.1135 -0.8007  0.9114
 5727TIP3   OH238671   1.870   0.093   3.695 -0.2822 -0.0104  0.4547
 5727TIP3    H138672   1.951   0.142   3.685  1.2629 -2.3051  1.0786
 5727TIP3    H238673   1.854   0.056   3.608 -0.2745 -0.1400  0.5086
 5728TIP3   OH238674   5.495   1.681   6.141 -0.0627 -0.5107 -0.0043
 5728TIP3    H138675   5.483   1.757   6.197 -0.1811 -0.4953 -0.0503
 5728TIP3    H238676   5.536   1.615   6.198 -0.7962 -0.7258  0.2841
 5729TIP3   OH238677   0.515   2.690   5.771  0.6623  0.1270 -0.1209
 5729TIP3    H138678   0.541   2.781   5.754 -3.9379  1.8071  0.4483
 5729TIP3    H238679   0.469   2.663   5.692 -1.4773 -0.1401  1.1247
 5730TIP3   OH238680   6.077   0.961   3.104  0.3270  0.1487  0.4935
 5730TIP3    H138681   6.158   0.985   3.149  0.0444 -0.0673  1.1289
 5730TIP3    H238682   6.021   0.925   3.173 -0.3625  0.4227  0.0821
 5731TIP3   OH238683   0.126   0.159  16.667 -0.5538 -0.7240  0.7057
 5731TIP3    H138684   0.139   0.156  16.572  0.1416  0.3276  0.7603
 5731TIP3    H238685   0.177   0.085  16.700  1.3745  0.4377  0.4684
 5732TIP3   OH238686   3.922   3.368  13.406  0.3892  0.3575  0.1998
 5732TIP3    H138687   3.965   3.369  13.321 -0.1447  1.1803 -0.0736
 5732TIP3    H238688   3.870   3.288  13.406  0.2126  0.4619 -0.3565
 5733TIP3   OH238689   2.806   4.600   5.408 -0.2797  0.1054 -0.0847
 5733TIP3    H138690   2.780   4.687   5.377  2.4879  0.4250 -1.8451
 5733TIP3    H238691   2.827   4.614   5.501 -1.5721  0.8413  0.1363
 5734TIP3   OH238692   6.594   4.756  16.451 -0.7130 -0.0055 -0.3282
 5734TIP3    H138693   6.579   4.726  16.541 -0.1934  0.9764  0.1025
 5734TIP3    H238694   6.613   4.849  16.460  2.2264 -0.4111 -1.1282
 5735TIP3   OH238695   3.075   1.766  15.863 -0.0266  0.4287  0.1200
 5735TIP3    H138696   3.054   1.693  15.804 -1.1754  1.7166 -1.1645
 5735TIP3    H238697   2.995   1.818  15.866  0.7098  1.5680  1.1003
 5736TIP3   OH238698   6.671   1.787   1.504 -0.1271  0.5019 -0.2448
 5736TIP3    H138699   6.698   1.701   1.474  1.8312  0.9249  0.1774
 5736TIP3    H238700   6.642   1.832   1.425 -1.2507 -0.5288 -0.4580
 5737TIP3   OH238701   3.290   4.432   5.060  0.2252 -0.2510  0.7850
 5737TIP3    H138702   3.267   4.381   5.137 -1.7991 -0.6302 -0.0208
 5737TIP3    H238703   3.247   4.516   5.072  1.6626  0.4930  1.0237
 5738TIP3   OH238704   6.579   0.168  12.936  0.1087 -0.0131  0.5856
 5738TIP3    H138705   6.533   0.177  13.020 -2.2870 -0.1564 -0.6431
 5738TIP3    H238706   6.613   0.255  12.917  0.7429  0.0061  1.7014
 5739TIP3   OH238707   1.509   2.577   1.017 -0.7361 -0.4573 -0.1774
 5739TIP3    H138708   1.520   2.672   1.017  0.1332 -0.5551 -0.6364
 5739TIP3    H238709   1.597   2.542   1.034 -1.1184 -1.1783  0.4083
 5740TIP3   OH238710   3.823   2.249  12.947  0.1784  0.4440  0.5928
 5740TIP3    H138711   3.731   2.239  12.921  0.3702  1.1478 -0.4308
 5740TIP3    H238712   3.851   2.161  12.970 -0.2391 -0.1201 -0.9182
 5741TIP3   OH238713   3.156   1.898  16.896 -0.3248 -0.0839 -0.0856
 5741TIP3    H138714   3.093   1.920  16.964  1.0502  1.5620  0.7519
 5741TIP3    H238715   3.155   1.803  16.892 -0.3040 -0.2655  2.4417
 5742TIP3   OH238716   6.187   2.582  12.651  0.2405 -0.2346  1.5116
 5742TIP3    H138717   6.109   2.527  12.653 -0.0295  0.1467  1.5855
 5742TIP3    H238718   6.259   2.522  12.633 -0.3762 -0.2522 -1.2873
 5743TIP3   OH238719   5.280   0.611   4.153  0.1845 -0.1174 -0.0298
 5743TIP3    H138720   5.196   0.634   4.193  0.4666 -1.0014  1.1444
 5743TIP3    H238721   5.338   0.595   4.228  0.9625 -1.0554 -0.8132
 5744TIP3   OH238722   5.164   6.641   2.034 -0.5171  0.0994  0.6873
 5744TIP3    H138723   5.253   6.668   2.056 -0.2589 -0.0038 -0.1943
 5744TIP3    H238724   5.135   6.705   1.969 -0.7079 -0.4540  0.2232
 5745TIP3   OH238725   1.167   1.339  13.756  0.2742 -0.1709 -0.0236
 5745TIP3    H138726   1.137   1.381  13.675 -1.5699 -0.2548  0.5596
 5745TIP3    H238727   1.234   1.277  13.728  0.5134  0.6330 -1.3351
 5746TIP3   OH238728   4.527   5.553   6.062  0.2422 -0.2712  0.5650
 5746TIP3    H138729   4.485   5.566   6.147  1.5007  0.5301  1.1002
 5746TIP3    H238730   4.592   5.623   6.057 -0.4230  0.2841 -1.4703
 5747TIP3   OH238731   6.230   6.313  11.501  0.8016 -0.5971 -0.0002
 5747TIP3    H138732   6.267   6.401  11.501 -0.8663  0.2773 -3.4475
 5747TIP3    H238733   6.297   6.259  11.459  0.7042 -0.3458 -0.4868
 5748TIP3   OH238734   6.672   5.124   4.951 -0.2122 -0.3937 -0.2733
 5748TIP3    H138735   6.652   5.105   4.860  0.2169  0.4501 -0.5574
 5748TIP3    H238736   6.595   5.095   4.999 -1.1642  0.6677 -1.0983
 5749TIP3   OH238737   1.731   5.728  14.561 -0.4324  0.0670 -0.4802
 5749TIP3    H138738   1.744   5.805  14.617 -0.5528  0.0186 -0.3857
 5749TIP3    H238739   1.638   5.709  14.567 -0.3756 -0.1843 -0.3766
 5750TIP3   OH238740   2.702   6.737   2.440  0.6143  0.2919 -0.4827
 5750TIP3    H138741   2.617   6.769   2.410 -0.4668 -1.6476  0.3246
 5750TIP3    H238742   2.691   6.724   2.534  2.4441  1.7767  0.0080
 5751TIP3   OH238743   3.690   1.924  16.806  0.6244 -0.5808 -0.3750
 5751TIP3    H138744   3.633   1.996  16.830 -0.1748 -0.5885 -2.0642
 5751TIP3    H238745   3.637   1.845  16.818  1.2758 -0.8468  0.8442
 5752TIP3   OH238746   6.679   6.139  11.228  0.1193  0.0665  0.2716
 5752TIP3    H138747   6.583   6.137  11.218  0.0639  0.2655  0.7640
 5752TIP3    H238748   6.710   6.077  11.162 -0.4221 -0.9533  0.9472
 5753TIP3   OH238749   3.285   3.066   3.278 -0.6835  0.1978 -0.9425
 5753TIP3    H138750   3.282   2.976   3.311 -2.0063  0.3479 -0.5807
 5753TIP3    H238751   3.288   3.056   3.183 -0.4108 -0.2335 -0.8915
 5754TIP3   OH238752   5.131   2.232  13.785  0.0270  0.2503  0.2119
 5754TIP3    H138753   5.193   2.299  13.755  1.4416 -1.3788 -0.6372
 5754TIP3    H238754   5.163   2.207  13.872  1.7852 -1.9223 -0.9721
 5755TIP3   OH238755   1.476   1.364  13.345  0.4669  0.1699  0.7102
 5755TIP3    H138756   1.430   1.360  13.261  0.6035 -1.6801  0.6905
 5755TIP3    H238757   1.412   1.405  13.404  0.1224  0.8743 -0.1252
 5756TIP3   OH238758   0.118   0.173  12.941  0.4977  0.3546  0.5524
 5756TIP3    H138759   0.081   0.127  13.016 -1.0058  0.3086 -0.1906
 5756TIP3    H238760   0.098   0.118  12.866  2.8894 -0.1292  0.1732
 5757TIP3   OH238761   4.388   3.214  15.469 -0.1452 -0.1647 -0.0334
 5757TIP3    H138762   4.307   3.169  15.449 -0.2221 -0.4876  0.9828
 5757TIP3    H238763   4.385   3.230  15.563  0.7562  0.2413 -0.0589
 5758TIP3   OH238764   6.123   1.590  13.400 -0.2319 -0.3403 -0.5432
 5758TIP3    H138765   6.142   1.649  13.327  0.9560  1.2172  0.9469
 5758TIP3    H238766   6.189   1.521  13.392  1.2961  0.9496  0.1850
 5759TIP3   OH238767   4.253   0.052   4.564 -0.1338  0.0034  0.7384
 5759TIP3    H138768   4.182   0.112   4.541 -1.1885 -2.4597 -3.4592
 5759TIP3    H238769   4.331   0.106   4.564 -1.4344  1.9806  0.9186
 5760TIP3   OH238770   2.961   0.467  16.458 -0.7476 -0.7312 -0.3414
 5760TIP3    H138771   2.881   0.417  16.440 -0.3845 -0.8087 -1.8610
 5760TIP3    H238772   2.963   0.535  16.391 -0.6172  0.6192  0.9822
 5761TIP3   OH238773   5.060   0.174   7.025 -0.0574 -0.1416  0.2433
 5761TIP3    H138774   5.101   0.088   7.026 -1.3991 -0.8081 -0.5094
 5761TIP3    H238775   5.096   0.217   6.947  0.3206 -0.1473  0.4089
 5762TIP3   OH238776   5.977   5.766  16.527 -0.3209  0.5190 -0.3559
 5762TIP3    H138777   6.015   5.820  16.458 -0.5089 -0.0775 -0.9352
 5762TIP3    H238778   6.044   5.702  16.547 -0.6820 -0.0032 -0.7786
 5763TIP3   OH238779   4.756   2.839   1.734  0.2897 -0.2742 -0.9946
 5763TIP3    H138780   4.667   2.805   1.744 -0.5549  1.2608 -2.6054
 5763TIP3    H238781   4.794   2.785   1.664 -1.0250  1.8109 -3.5019
 5764TIP3   OH238782   3.417   4.595  12.321 -0.2375 -0.2462 -0.2596
 5764TIP3    H138783   3.462   4.511  12.319  1.1327  0.4325  0.2882
 5764TIP3    H238784   3.442   4.638  12.239  2.5904  1.2794  1.2184
 5765TIP3   OH238785   2.784   6.327  11.720  0.3739 -0.3868  0.1051
 5765TIP3    H138786   2.693   6.325  11.690 -0.1438 -0.3140  1.5994
 5765TIP3    H238787   2.817   6.239  11.704  1.3070  0.5201 -3.9951
 5766TIP3   OH238788   6.233   5.394  13.595  0.8716  0.0168  0.4092
 5766TIP3    H138789   6.303   5.411  13.659  1.1787  0.4346 -0.0326
 5766TIP3    H238790   6.182   5.475  13.594  0.3431 -0.3138  0.7779
 5767TIP3   OH238791   6.171   1.299   1.767 -0.4551 -0.1465 -0.5386
 5767TIP3    H138792   6.133   1.313   1.854  0.1433  1.6782 -0.5348
 5767TIP3    H238793   6.257   1.261   1.784  0.7074  2.4526 -0.1313
 5768TIP3   OH238794   6.415   0.220  12.384 -0.8334  0.0486 -0.1319
 5768TIP3    H138795   6.431   0.134  12.423 -0.0392  0.0709 -0.3964
 5768TIP3    H238796   6.486   0.232  12.322 -0.3238  1.3458  0.6523
 5769TIP3   OH238797   5.769   0.736   0.793  0.3840  0.6837 -0.1818
 5769TIP3    H138798   5.853   0.691   0.801  0.3488  0.5643 -0.4672
 5769TIP3    H238799   5.783   0.798   0.721  0.1307  0.4466 -0.4348
 5770TIP3   OH238800   2.493   6.469   2.564 -0.0337 -0.1627 -0.5020
 5770TIP3    H138801   2.545   6.409   2.511 -0.0913 -1.0982  0.4838
 5770TIP3    H238802   2.557   6.519   2.615 -0.0543 -0.3895 -0.2579
 5771TIP3   OH238803   1.215   6.649  14.307 -0.7783 -0.0293  0.3081
 5771TIP3    H138804   1.211   6.668  14.214  0.0567 -0.9694  0.0698
 5771TIP3    H238805   1.218   6.735  14.349 -1.8332  0.4185 -0.4776
 5772TIP3   OH238806   0.722   0.795   3.842  0.0777 -0.1318  0.4352
 5772TIP3    H138807   0.780   0.815   3.915 -0.8866 -1.2808  1.5847
 5772TIP3    H238808   0.634   0.797   3.881 -0.4200 -1.2330 -0.5712
 5773TIP3   OH238809   2.260   5.759  10.596  0.2684 -0.0824  0.1023
 5773TIP3    H138810   2.352   5.776  10.617  0.1745 -0.6281  1.0236
 5773TIP3    H238811   2.258   5.751  10.501  1.3413 -0.9748  0.1321
 5774TIP3   OH238812   5.653   5.814  12.049 -0.8568  0.7475  0.1547
 5774TIP3    H138813   5.594   5.753  12.093 -1.0400 -1.4219 -2.8613
 5774TIP3    H238814   5.735   5.806  12.097 -1.7540  0.5966  1.7634
 5775TIP3   OH238815   5.590   3.885  16.760  0.2834 -0.1424 -0.2844
 5775TIP3    H138816   5.510   3.845  16.725  0.6842 -1.5848  0.3721
 5775TIP3    H238817   5.567   3.912  16.849  0.7544 -1.4076  0.2441
 5776TIP3   OH238818   3.574   1.623   2.475 -0.0562 -0.1638 -0.0675
 5776TIP3    H138819   3.479   1.610   2.473  0.0516 -0.9118 -1.0202
 5776TIP3    H238820   3.588   1.707   2.430 -0.2430 -0.1770 -0.1502
 5777TIP3   OH238821   0.826   4.339  14.925  0.2482  0.4586 -0.4407
 5777TIP3    H138822   0.784   4.400  14.985 -0.1619 -1.2249  1.0647
 5777TIP3    H238823   0.755   4.281  14.895  0.7251  0.3230 -1.3661
 5778TIP3   OH238824   2.092   4.450  11.684  0.1844  0.6148 -0.1769
 5778TIP3    H138825   2.186   4.464  11.673  0.4171 -2.0700 -2.8922
 5778TIP3    H238826   2.052   4.530  11.649  1.4784  0.1144 -3.0466
 5779TIP3   OH238827   0.035   1.798   3.887 -0.1076  0.0854 -0.1731
 5779TIP3    H138828   0.032   1.893   3.899  0.7162  0.0308  0.6294
 5779TIP3    H238829   0.036   1.785   3.792 -2.0122  0.7893 -0.3132
 5780TIP3   OH238830   0.957   4.778   5.643 -0.7766  0.1482 -0.0767
 5780TIP3    H138831   0.929   4.866   5.669 -0.2684 -0.1226  1.5244
 5780TIP3    H238832   0.927   4.722   5.715  0.0462 -0.7820 -0.4385
 5781TIP3   OH238833   1.170   0.608  16.033  0.0567  0.8204  0.3776
 5781TIP3    H138834   1.123   0.596  15.951 -1.7065 -0.1910  1.4509
 5781TIP3    H238835   1.183   0.703  16.040  0.9634  0.8550 -1.4116
 5782TIP3   OH238836   1.621   6.757  15.835  0.3091 -0.5309  0.4381
 5782TIP3    H138837   1.583   6.725  15.917 -0.8651 -0.2705  0.0118
 5782TIP3    H238838   1.547   6.764  15.776  1.0532 -0.0999 -0.4586
 5783TIP3   OH238839   4.190   4.675  14.732  0.6503  0.2730  0.4554
 5783TIP3    H138840   4.208   4.581  14.723 -0.2554  0.1265 -0.0097
 5783TIP3    H238841   4.259   4.718  14.682  1.3662 -0.1122  1.0838
 5784TIP3   OH238842   0.539   0.816  11.765 -0.1339 -0.1771 -0.0897
 5784TIP3    H138843   0.498   0.767  11.836  0.4998  1.1416  1.2363
 5784TIP3    H238844   0.540   0.755  11.691  0.3785 -2.0755  1.4042
 5785TIP3   OH238845   4.451   6.387  14.666 -0.3492  0.2586  0.2800
 5785TIP3    H138846   4.365   6.424  14.683  0.1729  2.5486 -1.5694
 5785TIP3    H238847   4.509   6.428  14.730 -0.2603  0.3667  0.1303
 5786TIP3   OH238848   2.517   1.808   5.041  0.6060  0.0160 -0.0273
 5786TIP3    H138849   2.454   1.758   5.093  0.3057  0.2469 -0.1691
 5786TIP3    H238850   2.518   1.895   5.080  1.7179 -0.2998  0.7215
 5787TIP3   OH238851   0.154   4.417  17.283  0.2510  0.1791  0.2507
 5787TIP3    H138852   0.098   4.427  17.206 -0.6838 -0.7588  0.7700
 5787TIP3    H238853   0.124   4.485  17.344 -1.9310 -1.6289  1.3922
 5788TIP3   OH238854   1.422   0.600  13.029 -0.1555 -0.3723 -0.5626
 5788TIP3    H138855   1.403   0.693  13.027  1.7611  0.0581 -0.9320
 5788TIP3    H238856   1.428   0.575  12.937  2.4533 -0.0983 -0.5405
 5789TIP3   OH238857   0.678   2.703  10.752 -0.2204  0.6325  0.1133
 5789TIP3    H138858   0.750   2.696  10.815  1.2720  1.5002 -1.4114
 5789TIP3    H238859   0.720   2.694  10.666 -1.9641  0.9731 -0.8244
 5790TIP3   OH238860   0.675   1.434  14.752 -0.2124 -0.1574  0.4080
 5790TIP3    H138861   0.704   1.367  14.814 -2.1300 -1.2226  0.2465
 5790TIP3    H238862   0.665   1.513  14.804  2.7699  0.2926  0.4755
 5791TIP3   OH238863   4.672   1.149   4.801  0.2587  0.3998 -0.2442
 5791TIP3    H138864   4.740   1.104   4.751  1.9599  1.0573  1.3530
 5791TIP3    H238865   4.602   1.085   4.811  1.8779 -1.3475  0.4853
 5792TIP3   OH238866   1.758   0.243  15.976 -0.6005 -0.0010  0.0067
 5792TIP3    H138867   1.852   0.259  15.988 -0.4526  0.2968 -1.3108
 5792TIP3    H238868   1.722   0.330  15.960 -0.8996 -0.2418 -0.6585
 5793TIP3   OH238869   2.366   3.518   2.396  0.3125  0.0612 -0.7542
 5793TIP3    H138870   2.339   3.430   2.370  1.1798 -0.6656  0.6735
 5793TIP3    H238871   2.284   3.561   2.421  0.0222 -0.8020 -0.1611
 5794TIP3   OH238872   2.947   3.457  14.040  0.2292 -0.0410  0.1103
 5794TIP3    H138873   2.871   3.409  14.008  0.6216 -1.8153  1.6546
 5794TIP3    H238874   2.911   3.537  14.078 -0.6071  0.1884 -1.1062
 5795TIP3   OH238875   5.918   3.118   5.833  0.3720  0.0831 -0.0418
 5795TIP3    H138876   5.822   3.123   5.831  0.2846  0.6758  2.1482
 5795TIP3    H238877   5.937   3.026   5.850  0.0958  0.1581  0.7472
 5796TIP3   OH238878   2.947   0.752   4.076 -0.5493 -0.2150 -0.2457
 5796TIP3    H138879   2.881   0.705   4.126 -1.0796  1.5703  0.8208
 5796TIP3    H238880   3.016   0.772   4.139 -1.3494  2.3043 -0.0732
 5797TIP3   OH238881   1.377   1.650   4.825 -0.3262  0.3126  0.1951
 5797TIP3    H138882   1.342   1.564   4.803 -1.2088  0.0653  2.3349
 5797TIP3    H238883   1.376   1.698   4.742 -0.8999 -1.3537 -0.8134
 5798TIP3   OH238884   0.747   6.136  14.564  0.0227  0.0193  0.1586
 5798TIP3    H138885   0.703   6.056  14.538  2.1493 -1.2724  0.2746
 5798TIP3    H238886   0.839   6.121  14.543  0.9528  1.2401  2.8698
 5799TIP3   OH238887   5.650   5.120   3.810 -0.2591  0.1517  0.1958
 5799TIP3    H138888   5.699   5.110   3.729  2.4883  1.4371  1.5630
 5799TIP3    H238889   5.678   5.046   3.864 -0.9013  0.1388  0.5153
 5800TIP3   OH238890   3.973   5.620  15.810  0.4162 -0.2247  0.0132
 5800TIP3    H138891   4.063   5.640  15.785  0.1593 -1.3613 -2.0157
 5800TIP3    H238892   3.966   5.648  15.901  2.0334  2.3574 -0.5677
 5801TIP3   OH238893   6.259   4.629   5.085  0.2450 -0.1974  0.4553
 5801TIP3    H138894   6.211   4.708   5.108  1.5341  0.7309  0.1018
 5801TIP3    H238895   6.212   4.558   5.129 -1.2256  0.6941  0.3715
 5802TIP3   OH238896   6.171   5.574   0.929 -0.2381 -0.9071  0.6399
 5802TIP3    H138897   6.177   5.544   0.838 -2.2169  1.2566 -0.2939
 5802TIP3    H238898   6.120   5.506   0.973  1.0932 -2.1884  0.3012
 5803TIP3   OH238899   2.705   4.917  15.726 -0.4160  0.3577  0.6351
 5803TIP3    H138900   2.771   4.959  15.782 -0.5207  1.1799  0.1550
 5803TIP3    H238901   2.690   4.832  15.766  0.9133  0.1776  0.7829
 5804TIP3   OH238902   3.969   5.811  11.417  0.1517 -0.1761 -0.3295
 5804TIP3    H138903   3.884   5.772  11.437 -0.1970  0.4825 -0.5180
 5804TIP3    H238904   4.000   5.843  11.502  0.4557 -0.8771 -0.1670
 5805TIP3   OH238905   0.971   1.717   3.818  0.1483  0.2400 -0.4689
 5805TIP3    H138906   0.898   1.738   3.759 -0.8807  0.9305  0.9745
 5805TIP3    H238907   1.026   1.795   3.818  0.5641 -0.0472 -1.0813
 5806TIP3   OH238908   4.274   5.664   1.880 -0.1723  0.3359  0.2969
 5806TIP3    H138909   4.311   5.720   1.948 -1.4237  0.5958  0.7926
 5806TIP3    H238910   4.349   5.634   1.830  0.8570 -0.1967  2.0463
 5807TIP3   OH238911   3.654   5.447  14.035 -0.1678  0.3589  0.4293
 5807TIP3    H138912   3.733   5.412  14.076  0.5206 -0.9008 -1.7762
 5807TIP3    H238913   3.683   5.530  13.996  0.2421 -0.3091 -0.7504
 5808TIP3   OH238914   6.396   4.112  11.215 -0.5961  0.2599 -0.5995
 5808TIP3    H138915   6.418   4.024  11.184  0.1620  1.0541 -2.4817
 5808TIP3    H238916   6.481   4.153  11.232 -0.9614  0.4489  0.8595
 5809TIP3   OH238917   5.451   5.609   0.629 -0.1047 -0.2864  0.2857
 5809TIP3    H138918   5.371   5.619   0.576  0.5939 -0.3741 -0.8209
 5809TIP3    H238919   5.434   5.534   0.686 -0.3801 -1.0424 -0.7668
 5810TIP3   OH238920   4.117   5.468  15.536  0.0766  0.7891 -0.2840
 5810TIP3    H138921   4.191   5.410  15.517 -0.5550  0.1855 -0.9633
 5810TIP3    H238922   4.157   5.544  15.580  0.7646 -0.8643  2.2046
 5811TIP3   OH238923   4.086   2.638   1.255 -0.4219 -0.3559  0.3373
 5811TIP3    H138924   4.142   2.680   1.189 -1.0470 -1.0535 -0.6623
 5811TIP3    H238925   4.014   2.699   1.268  0.2834  0.3226  1.2738
 5812TIP3   OH238926   5.677   4.583  14.382  1.1688 -0.8698 -0.0624
 5812TIP3    H138927   5.684   4.570  14.287 -1.0238  2.2224 -0.8167
 5812TIP3    H238928   5.621   4.511  14.412 -0.2107 -0.5156 -1.6327
 5813TIP3   OH238929   3.878   6.766   0.613  0.6075  0.1966  0.4016
 5813TIP3    H138930   3.919   6.789   0.696  0.6509  1.7654 -0.0297
 5813TIP3    H238931   3.927   6.815   0.547  0.7299 -1.2023 -0.5984
 5814TIP3   OH238932   2.236   6.239  14.799 -0.4069  0.2415  0.3738
 5814TIP3    H138933   2.182   6.282  14.734  0.1250  0.6810  0.2131
 5814TIP3    H238934   2.311   6.297  14.810  0.0984 -0.4192  0.4915
 5815TIP3   OH238935   4.891   5.823   3.376 -0.5190  0.8252 -0.3477
 5815TIP3    H138936   4.942   5.905   3.380 -0.9815  1.0972  0.1180
 5815TIP3    H238937   4.804   5.848   3.407 -0.4916  0.0216  0.4117
 5816TIP3   OH238938   5.194   2.857  14.420  0.0805 -0.2995  0.4054
 5816TIP3    H138939   5.231   2.770  14.434  0.2023 -0.3346 -0.1343
 5816TIP3    H238940   5.152   2.853  14.334  1.5304  0.6546 -0.3913
 5817TIP3   OH238941   2.735   3.320   5.325 -0.0998  0.1178 -0.3492
 5817TIP3    H138942   2.813   3.310   5.379 -1.6858 -0.7973  1.9253
 5817TIP3    H238943   2.737   3.246   5.264  0.6195 -0.0912 -0.0704
 5818TIP3   OH238944   5.549   5.278  11.320  0.5175 -0.7087 -0.1287
 5818TIP3    H138945   5.560   5.334  11.397  1.0775  2.2533 -2.1978
 5818TIP3    H238946   5.457   5.287  11.297  0.4842 -1.1252 -0.1699
 5819TIP3   OH238947   2.293   3.401  15.055  0.0130 -0.2196  0.1405
 5819TIP3    H138948   2.319   3.400  14.963  1.3679  0.6837  0.4883
 5819TIP3    H238949   2.319   3.487  15.086  0.5786 -0.8936  1.6373
 5820TIP3   OH238950   5.076   3.418  12.826 -0.0426  0.1779  0.2934
 5820TIP3    H138951   5.062   3.489  12.763  1.1087 -0.1216 -0.3273
 5820TIP3    H238952   5.171   3.410  12.832 -0.1543 -1.1840  0.5085
 5821TIP3   OH238953   4.974   6.477   4.066  0.4682  1.0762  0.0765
 5821TIP3    H138954   4.932   6.401   4.106  0.5301 -0.3234 -2.2985
 5821TIP3    H238955   4.901   6.528   4.031  0.4888 -0.8077 -3.1085
 5822TIP3   OH238956   2.709   2.877   1.433 -0.6228  0.0096 -0.0449
 5822TIP3    H138957   2.750   2.832   1.359 -0.9933 -0.4980  0.0468
 5822TIP3    H238958   2.628   2.827   1.449 -0.0463 -0.5145  1.3529
 5823TIP3   OH238959   1.802   3.905   3.585  0.2482  0.1865 -0.2348
 5823TIP3    H138960   1.870   3.969   3.606  1.1404 -0.5752 -0.7294
 5823TIP3    H238961   1.831   3.825   3.628 -1.5758  0.4183  1.5925
 5824TIP3   OH238962   1.377   2.221   6.439 -0.1012  0.1934 -0.1517
 5824TIP3    H138963   1.417   2.153   6.384 -0.7263  1.5306 -2.4072
 5824TIP3    H238964   1.335   2.172   6.510  1.0069 -1.6229 -0.6620
 5825TIP3   OH238965   4.435   5.082  12.258  0.2532  0.4702  0.2511
 5825TIP3    H138966   4.361   5.138  12.280 -0.2082  0.0747 -0.2623
 5825TIP3    H238967   4.406   5.032  12.181  0.5717 -0.6219  0.8214
 5826TIP3   OH238968   1.204   1.737   1.152  0.2158  0.0470 -0.1917
 5826TIP3    H138969   1.214   1.700   1.065 -0.4385  1.4806 -0.9165
 5826TIP3    H238970   1.116   1.774   1.153  0.1874 -0.0045  1.1073
 5827TIP3   OH238971   1.531   3.917   0.509 -0.3207  0.0955  0.4998
 5827TIP3    H138972   1.486   3.975   0.571 -1.9493  0.9738 -1.4078
 5827TIP3    H238973   1.475   3.840   0.503 -0.1694  0.0138  0.1100
 5828TIP3   OH238974   1.612   2.474  13.619  0.1258 -0.4693  0.5537
 5828TIP3    H138975   1.660   2.411  13.566 -0.4566  0.2882 -0.9547
 5828TIP3    H238976   1.582   2.424  13.695  0.8889 -1.6315  0.1216
 5829TIP3   OH238977   5.628   5.620   6.602 -0.5451 -0.3872 -0.1113
 5829TIP3    H138978   5.629   5.715   6.593  0.9824 -0.5337 -2.1541
 5829TIP3    H238979   5.536   5.596   6.597 -1.1103  1.0523  1.9715
 5830TIP3   OH238980   5.593   4.719   3.101  0.1384  0.1395  0.1758
 5830TIP3    H138981   5.686   4.698   3.104  0.1836  0.3940  0.7956
 5830TIP3    H238982   5.561   4.699   3.189 -0.3319  0.3455  0.0573
 5831TIP3   OH238983   1.241   1.332   1.566  0.8012  0.0547 -0.3485
 5831TIP3    H138984   1.259   1.414   1.522  2.2402 -1.2706 -2.3964
 5831TIP3    H238985   1.146   1.332   1.578  0.4758  1.0229 -2.4302
 5832TIP3   OH238986   5.961   3.531  15.321  0.0339  0.5279 -0.4084
 5832TIP3    H138987   5.995   3.563  15.405  2.6952  1.0147 -1.5591
 5832TIP3    H238988   5.866   3.540  15.328  0.1680  0.6765  2.4729
 5833TIP3   OH238989   6.616   5.765   4.914  0.3659 -0.1051  0.0915
 5833TIP3    H138990   6.542   5.740   4.859 -1.2229  2.0065  1.0915
 5833TIP3    H238991   6.602   5.859   4.931  3.4486  0.4472  0.1127
 5834TIP3   OH238992   0.019   1.541  14.400  0.1499 -0.1320 -0.5332
 5834TIP3    H138993   0.065   1.483  14.461  0.8866  0.4545 -0.5067
 5834TIP3    H238994   0.059   1.522  14.315 -1.2761 -1.3642 -0.9653
 5835TIP3   OH238995   1.198   4.445  16.516  0.1272  0.2888 -0.0965
 5835TIP3    H138996   1.272   4.490  16.555 -0.6062  0.9394  0.5640
 5835TIP3    H238997   1.228   4.355  16.505  1.6655  0.9395 -1.5949
 5836TIP3   OH238998   6.141   3.354  15.243 -0.9176 -0.2301 -0.1648
 5836TIP3    H138999   6.105   3.430  15.289  1.1443  1.1019 -0.6191
 5836TIP3    H239000   6.129   3.375  15.150  1.0223  0.3223 -0.3387
 5837TIP3   OH239001   0.915   2.916  12.823  0.2059  0.5482 -0.0961
 5837TIP3    H139002   0.871   2.864  12.890  0.2645  0.7705  0.1120
 5837TIP3    H239003   0.855   2.915  12.748  0.8061 -1.0223 -0.6181
 5838TIP3   OH239004   6.658   4.625  16.698  0.4409  0.5549  0.1848
 5838TIP3    H139005   6.747   4.639  16.731  0.1457 -0.2414  1.4006
 5838TIP3    H239006   6.615   4.574  16.767 -0.8420  0.5914 -0.5602
 5839TIP3   OH239007   5.448   6.577  14.433  0.0868 -0.1356  0.1707
 5839TIP3    H139008   5.412   6.666  14.431  1.8063  0.5760 -0.9355
 5839TIP3    H239009   5.443   6.547  14.343  2.3771  0.0743 -0.0777
 5840TIP3   OH239010   5.228   2.521   4.844 -0.2805 -0.4019  0.2413
 5840TIP3    H139011   5.301   2.532   4.783 -0.5126 -4.2369 -1.0453
 5840TIP3    H239012   5.209   2.427   4.840 -4.4236  0.1930  1.5299
 5841TIP3   OH239013   1.853   4.159   5.880 -0.4303  0.4553  0.5074
 5841TIP3    H139014   1.887   4.078   5.919 -0.1123  1.1074  1.6484
 5841TIP3    H239015   1.800   4.130   5.806 -2.3337 -0.9790  2.2993
 5842TIP3   OH239016   5.614   5.939  15.333  0.3045 -0.4398  0.1596
 5842TIP3    H139017   5.660   6.017  15.302 -0.1855  0.1590  0.8966
 5842TIP3    H239018   5.678   5.892  15.386  0.3656 -0.1158  0.3766
 5843TIP3   OH239019   5.452   6.497  15.508 -0.1669  0.2836 -0.0805
 5843TIP3    H139020   5.396   6.487  15.431  1.2338 -2.8417 -0.8617
 5843TIP3    H239021   5.423   6.428  15.567  1.4966 -0.0668  0.3634
 5844TIP3   OH239022   2.850   5.818  16.328  0.0118 -0.0926  0.0767
 5844TIP3    H139023   2.837   5.873  16.251 -2.1210  0.3624  0.6896
 5844TIP3    H239024   2.892   5.876  16.392  0.0740  0.0782 -0.1191
 5845TIP3   OH239025   0.080   2.816  14.339 -0.2767  0.2573 -0.0997
 5845TIP3    H139026   0.077   2.911  14.333 -0.9560  0.1778 -1.4666
 5845TIP3    H239027   0.031   2.786  14.262  1.2293 -1.2031 -0.5377
 5846TIP3   OH239028   2.825   1.558  16.515  0.8257  0.6690 -0.5222
 5846TIP3    H139029   2.835   1.521  16.603 -0.7609  1.4176  0.0228
 5846TIP3    H239030   2.897   1.621  16.507  0.2479  1.5634  0.8068
 5847TIP3   OH239031   3.063   0.630  15.624  0.2560  0.0440  0.0176
 5847TIP3    H139032   3.020   0.706  15.587 -0.0905 -0.2816 -0.2614
 5847TIP3    H239033   3.058   0.643  15.719 -1.2137 -0.3844  0.0233
 5848TIP3   OH239034   0.942   1.826   4.285  0.3519  0.0167 -0.1036
 5848TIP3    H139035   0.966   1.874   4.364  2.5084 -0.4167 -0.4203
 5848TIP3    H239036   1.022   1.826   4.232  0.0732 -2.8167 -0.6732
 5849TIP3   OH239037   0.137   6.418   6.457 -0.2614  0.0803  0.6436
 5849TIP3    H139038   0.163   6.493   6.511  1.5695 -0.4158  0.5156
 5849TIP3    H239039   0.096   6.458   6.380  2.3277  1.1610 -0.3295
 5850TIP3   OH239040   4.975   2.370   3.314  0.3325  0.0772 -0.2112
 5850TIP3    H139041   5.069   2.385   3.308  0.1753  0.6373 -1.6957
 5850TIP3    H239042   4.949   2.412   3.396  1.3075  0.2558  0.0178
 5851TIP3   OH239043   6.419   0.421   6.663  0.0891 -0.1003  0.5850
 5851TIP3    H139044   6.488   0.461   6.717 -0.2793  0.4797  0.6333
 5851TIP3    H239045   6.465   0.388   6.586  0.1418  2.3821 -0.5483
 5852TIP3   OH239046   1.541   0.387   2.556 -0.3492 -0.0400  0.0691
 5852TIP3    H139047   1.571   0.324   2.622 -1.3641 -0.4915  0.1248
 5852TIP3    H239048   1.450   0.361   2.538  0.3471 -0.8977 -2.6256
 5853TIP3   OH239049   6.268   4.422   2.481  0.0323 -0.0732  0.7143
 5853TIP3    H139050   6.198   4.393   2.539 -0.2752 -1.2196 -0.2039
 5853TIP3    H239051   6.313   4.342   2.454 -0.4646  0.2968 -1.4064
 5854TIP3   OH239052   3.997   3.981  12.549  0.0303 -0.3468  0.0522
 5854TIP3    H139053   3.904   3.972  12.526  0.2329 -0.2698 -0.8463
 5854TIP3    H239054   4.004   4.072  12.580 -0.1475 -0.2767 -0.1066
 5855TIP3   OH239055   2.473   5.773   4.525  0.3543  0.4850  0.1243
 5855TIP3    H139056   2.456   5.807   4.437  1.0385  0.6911  0.0640
 5855TIP3    H239057   2.389   5.779   4.570  0.5583  2.9203  0.3379
 5856TIP3   OH239058   1.272   0.338  16.071 -0.0461  0.0905  0.2801
 5856TIP3    H139059   1.250   0.427  16.100  0.6212  0.2885  0.1987
 5856TIP3    H239060   1.204   0.283  16.109  1.6450  0.0980  3.7049
 5857TIP3   OH239061   5.797   1.914   5.355 -0.1284 -0.6219 -0.4972
 5857TIP3    H139062   5.783   1.924   5.449  0.3898  3.3924 -0.6926
 5857TIP3    H239063   5.884   1.951   5.339 -0.2173 -1.1738 -2.5777
 5858TIP3   OH239064   0.115   5.871  14.049  0.5454 -0.2249  0.0478
 5858TIP3    H139065   0.198   5.870  14.096 -0.2055 -0.7127  1.4326
 5858TIP3    H239066   0.117   5.794  13.992  1.2243  0.0410 -0.2943
 5859TIP3   OH239067   0.075   6.759  15.801 -0.5239  0.1344 -0.1624
 5859TIP3    H139068   0.033   6.837  15.835 -3.2009 -1.4039  0.3180
 5859TIP3    H239069   0.097   6.707  15.878  0.7219  0.1183 -0.4979
 5860TIP3   OH239070   5.190   0.558   4.591 -0.1766  0.2666  0.7121
 5860TIP3    H139071   5.279   0.593   4.584  0.5348 -1.6666 -0.8345
 5860TIP3    H239072   5.202   0.464   4.601 -2.0146 -0.4518 -2.4400
 5861TIP3   OH239073   5.356   0.877   6.444 -0.4878  0.5633 -0.4763
 5861TIP3    H139074   5.346   0.794   6.490 -1.2218  0.5020 -0.7156
 5861TIP3    H239075   5.450   0.890   6.437 -0.3664  0.1484  0.2662
 5862TIP3   OH239076   5.593   0.753   0.321 -0.0451 -0.1350 -0.3936
 5862TIP3    H139077   5.528   0.685   0.306 -1.0912  1.0242 -1.3296
 5862TIP3    H239078   5.558   0.806   0.393  1.4521 -1.3644  1.3336
 5863TIP3   OH239079   1.837   2.813  15.517 -0.0778  0.2147  0.4165
 5863TIP3    H139080   1.744   2.817  15.494 -0.2587  0.2468  1.1111
 5863TIP3    H239081   1.866   2.728  15.485 -1.1087 -1.1333  2.8241
 5864TIP3   OH239082   5.213   5.102  17.086  0.5626  0.3513  0.5080
 5864TIP3    H139083   5.128   5.099  17.130 -0.1638  1.4443 -0.7433
 5864TIP3    H239084   5.229   5.195  17.072  0.6128  0.0427 -1.7849
 5865TIP3   OH239085   2.355   2.852   2.340 -0.4006  0.0594 -0.5004
 5865TIP3    H139086   2.426   2.844   2.276 -0.5058  2.2971 -0.9618
 5865TIP3    H239087   2.281   2.809   2.298 -0.2391  0.7656 -1.5400
 5866TIP3   OH239088   5.470   2.869   3.991 -0.3597  0.3008  0.5926
 5866TIP3    H139089   5.462   2.779   3.960  0.5888  0.0054  1.1738
 5866TIP3    H239090   5.380   2.898   4.005 -0.6410 -0.8470  1.2082
 5867TIP3   OH239091   4.804   1.639  15.992 -0.0061  0.3556 -0.7938
 5867TIP3    H139092   4.826   1.569  16.053 -0.3657  1.5175  0.7524
 5867TIP3    H239093   4.872   1.635  15.925  0.3419 -1.0433 -0.3869
 5868TIP3   OH239094   6.082   5.321   1.937 -0.5014  0.3544  0.7528
 5868TIP3    H139095   6.084   5.235   1.897 -0.6073  0.7830 -0.1977
 5868TIP3    H239096   6.171   5.333   1.972 -0.8549 -0.6663  2.0872
 5869TIP3   OH239097   0.684   6.282  13.538 -0.4638 -0.2049  0.0047
 5869TIP3    H139098   0.779   6.287  13.527 -0.6007 -0.4976 -1.4810
 5869TIP3    H239099   0.654   6.231  13.463 -2.3358  4.2198 -2.6745
 5870TIP3   OH239100   5.314   4.592   1.510 -0.3159  0.3292 -0.0973
 5870TIP3    H139101   5.323   4.601   1.415 -1.3681  1.5828 -0.1171
 5870TIP3    H239102   5.399   4.562   1.540  0.2332  0.5438 -1.3709
 5871TIP3   OH239103   1.323   4.662  12.807 -0.1920  0.5510  0.5608
 5871TIP3    H139104   1.295   4.572  12.796 -0.6030  0.6195  1.0226
 5871TIP3    H239105   1.357   4.667  12.896  0.6426  0.6475  0.2557
 5872TIP3   OH239106   3.203   4.683   1.605  0.2426 -0.2964  0.9880
 5872TIP3    H139107   3.151   4.694   1.685  0.5937  1.0271  1.0500
 5872TIP3    H239108   3.263   4.611   1.625 -0.0995 -0.3894  1.6944
 5873TIP3   OH239109   3.314   1.307  13.631  0.0829  0.1154  0.1109
 5873TIP3    H139110   3.274   1.239  13.685  2.2254 -0.9253  0.4941
 5873TIP3    H239111   3.269   1.387  13.656 -2.1140 -1.0457  0.0804
 5874TIP3   OH239112   3.251   2.278   1.745  0.6469 -1.0679 -0.1120
 5874TIP3    H139113   3.251   2.287   1.840  1.1232 -0.9307 -0.1262
 5874TIP3    H239114   3.308   2.348   1.714 -0.2370 -0.5148 -0.5533
 5875TIP3   OH239115   5.800   5.044   5.539 -0.0970  0.1910 -0.0427
 5875TIP3    H139116   5.794   5.054   5.634 -0.6443  0.9375 -0.1384
 5875TIP3    H239117   5.851   5.120   5.511 -2.1617  1.4607 -0.5768
 5876TIP3   OH239118   5.332   5.318   0.147 -0.2130  0.0884  0.5274
 5876TIP3    H139119   5.420   5.356   0.137 -0.5991  0.4836 -1.9717
 5876TIP3    H239120   5.273   5.390   0.125 -1.1822 -0.3312  1.6653
 5877TIP3   OH239121   4.763   3.112   3.917 -0.4338  0.0015  0.3417
 5877TIP3    H139122   4.783   3.027   3.876 -0.4603  0.3014 -0.2953
 5877TIP3    H239123   4.776   3.096   4.011 -0.8121 -0.8100  0.2631
 5878TIP3   OH239124   3.470   6.712   2.195 -0.3301  0.0657  0.0303
 5878TIP3    H139125   3.481   6.621   2.168 -1.3233  0.0443 -0.3448
 5878TIP3    H239126   3.400   6.745   2.138 -0.7763  0.7239  0.9361
 5879TIP3   OH239127   0.622   1.165  10.768 -0.2351  0.1838 -0.3374
 5879TIP3    H139128   0.701   1.216  10.788  0.8783 -0.7005 -2.1522
 5879TIP3    H239129   0.633   1.141  10.676 -1.6400 -1.7042 -0.0544
 5880TIP3   OH239130   2.428   2.829   1.949  0.3009  0.8441 -0.0302
 5880TIP3    H139131   2.367   2.763   1.981  2.0968  0.2114  2.3316
 5880TIP3    H239132   2.493   2.780   1.899  0.0902  1.2506 -0.7266
 5881TIP3   OH239133   1.707   2.721   3.149  0.3810  1.0666  0.2956
 5881TIP3    H139134   1.783   2.764   3.188  1.0769  1.3372 -1.2621
 5881TIP3    H239135   1.731   2.710   3.057 -0.0611 -2.0618  0.4644
 5882TIP3   OH239136   5.465   2.036   0.189 -0.6888 -0.1608  0.4055
 5882TIP3    H139137   5.395   1.976   0.213 -0.1766 -0.5982  0.8476
 5882TIP3    H239138   5.545   1.992   0.218 -0.0673 -0.4990 -1.6381
 5883TIP3   OH239139   0.318   5.174   0.203 -0.2023  0.2853 -0.2458
 5883TIP3    H139140   0.313   5.110   0.132  0.0129  1.4827 -1.3880
 5883TIP3    H239141   0.395   5.148   0.253 -0.5860 -0.8177 -0.1950
 5884TIP3   OH239142   4.658   5.232  12.212  0.1894 -0.7630 -0.6143
 5884TIP3    H139143   4.733   5.206  12.267 -0.8460 -0.5014  0.9866
 5884TIP3    H239144   4.604   5.153  12.208 -0.1933 -0.5068 -0.4851
 5885TIP3   OH239145   2.417   5.843  15.783 -0.1350 -0.1150 -0.0309
 5885TIP3    H139146   2.350   5.847  15.715 -0.1428 -1.2683 -0.1215
 5885TIP3    H239147   2.492   5.890  15.747 -1.0619  1.6837  0.2924
 5886TIP3   OH239148   2.026   1.057  16.270 -0.5225 -0.2212  0.5106
 5886TIP3    H139149   2.096   1.076  16.208  0.3967 -0.9442  1.2910
 5886TIP3    H239150   2.070   1.015  16.344 -1.5576  0.8430  1.7728
 5887TIP3   OH239151   0.861   4.618  14.952  0.3336 -0.6988  0.4627
 5887TIP3    H139152   0.827   4.606  15.041 -2.1326 -0.9704 -0.4574
 5887TIP3    H239153   0.952   4.589  14.958  0.6552  0.5198  3.1766
 5888TIP3   OH239154   1.368   2.024   2.392 -0.0178 -0.2264 -0.1441
 5888TIP3    H139155   1.430   2.060   2.456 -0.8332 -0.7485  0.9783
 5888TIP3    H239156   1.345   2.099   2.337  0.9138  0.1754 -0.0017
 5889TIP3   OH239157   1.932   4.690  12.131  0.0292 -0.2174  0.0074
 5889TIP3    H139158   1.837   4.686  12.123 -0.1573  0.7091  1.3294
 5889TIP3    H239159   1.957   4.607  12.171 -0.0466 -0.9987 -1.4886
 5890TIP3   OH239160   4.978   0.460  14.928  0.3232  0.0031 -0.6542
 5890TIP3    H139161   5.014   0.401  14.862  0.2033 -0.1816 -0.5536
 5890TIP3    H239162   5.018   0.545  14.908  0.5258 -0.1185 -0.7737
 5891TIP3   OH239163   0.959   0.702  16.745  0.2617  0.1247 -0.1820
 5891TIP3    H139164   0.945   0.680  16.653  1.4640 -1.4172 -0.0437
 5891TIP3    H239165   1.005   0.786  16.742 -0.0712  0.2940 -0.9632
 5892TIP3   OH239166   2.981   2.949  14.373  0.1116  0.3373  0.0297
 5892TIP3    H139167   2.937   3.034  14.375  1.1534  0.8690  1.1525
 5892TIP3    H239168   3.003   2.931  14.464  2.4681  0.2213 -0.5156
 5893TIP3   OH239169   1.848   0.172   5.143  0.3341  0.2278 -0.4659
 5893TIP3    H139170   1.912   0.194   5.075  2.1070 -1.0587  0.7051
 5893TIP3    H239171   1.834   0.078   5.132  1.3822 -0.1884  1.5350
 5894TIP3   OH239172   5.012   3.835   3.473  0.5412 -0.0783 -0.4192
 5894TIP3    H139173   4.921   3.834   3.443  0.5333  0.6956 -0.4415
 5894TIP3    H239174   5.036   3.927   3.472  0.6476 -0.0438  1.6540
 5895TIP3   OH239175   5.644   3.817   5.635  0.2726  0.9478  0.7081
 5895TIP3    H139176   5.631   3.736   5.685  0.4525  0.8150  0.5375
 5895TIP3    H239177   5.739   3.828   5.632  0.2684  0.8571  0.2331
 5896TIP3   OH239178   0.480   2.336   5.112 -0.1488 -0.6431  0.6293
 5896TIP3    H139179   0.416   2.351   5.043 -0.5017 -1.8217  0.6691
 5896TIP3    H239180   0.562   2.320   5.066  0.7062  3.0184  0.6119
 5897TIP3   OH239181   0.979   4.182   2.014  0.1154 -0.0137 -0.1894
 5897TIP3    H139182   1.066   4.160   1.981  0.7164 -1.5916  2.2025
 5897TIP3    H239183   0.920   4.122   1.968  0.7077 -1.0469  0.3679
 5898TIP3   OH239184   5.252   2.693   5.948  0.1400  0.1148  0.4692
 5898TIP3    H139185   5.299   2.661   5.872 -0.3769  0.8493 -0.1777
 5898TIP3    H239186   5.220   2.614   5.992 -1.7585 -0.3038 -1.4856
 5899TIP3   OH239187   1.475   3.574  17.399  0.0822  0.5830  0.1793
 5899TIP3    H139188   1.395   3.565  17.451 -1.0060 -0.0857 -1.5121
 5899TIP3    H239189   1.446   3.561  17.308  2.1562  0.0356 -0.4608
 5900TIP3   OH239190   1.470   2.490  16.064 -0.5771  0.4091  0.5717
 5900TIP3    H139191   1.421   2.408  16.051  1.0066 -0.1641 -2.9922
 5900TIP3    H239192   1.415   2.557  16.024 -0.4788  0.5130  0.6125
 5901TIP3   OH239193   4.519   4.473  15.142  0.2995 -0.0158 -0.3919
 5901TIP3    H139194   4.512   4.479  15.237  0.4460  0.6266 -0.4152
 5901TIP3    H239195   4.514   4.564  15.112 -1.5486 -0.3193 -1.1352
 5902TIP3   OH239196   5.649   5.449  13.678  0.1346  0.1706  0.1771
 5902TIP3    H139197   5.722   5.408  13.724  0.2858  0.7466  0.4599
 5902TIP3    H239198   5.579   5.384  13.682  0.9204 -0.7888 -0.9478
 5903TIP3   OH239199   2.818   3.915   1.196 -0.0691 -0.7696 -0.3214
 5903TIP3    H139200   2.873   3.865   1.256  1.7945 -0.0131 -1.3288
 5903TIP3    H239201   2.860   4.001   1.190 -2.0271  0.2503 -0.2439
 5904TIP3   OH239202   0.823   0.182   5.547 -0.6709  0.3545  0.1538
 5904TIP3    H139203   0.827   0.132   5.466 -1.1884 -1.2226  1.0501
 5904TIP3    H239204   0.853   0.121   5.615 -0.9181  1.3938  1.2475
 5905TIP3   OH239205   5.378   2.373  12.342  0.5718  0.2015  0.5097
 5905TIP3    H139206   5.413   2.344  12.257 -1.5789  1.3424 -0.8522
 5905TIP3    H239207   5.456   2.383  12.397  1.9682 -1.4655 -1.0085
 5906TIP3   OH239208   5.813   5.513  15.563  0.1897 -0.2234 -0.8213
 5906TIP3    H139209   5.726   5.554  15.555  0.4549  0.1986 -1.6231
 5906TIP3    H239210   5.808   5.464  15.645  0.2183  2.2908  0.7899
 5907TIP3   OH239211   5.870   5.917  16.748  0.2082 -0.5177 -0.3423
 5907TIP3    H139212   5.822   5.993  16.716  2.2830  1.3113  0.6368
 5907TIP3    H239213   5.884   5.863  16.670  1.4492  1.7104 -1.7631
 5908TIP3   OH239214   5.840   0.507  12.912 -0.0458  0.3140  0.2874
 5908TIP3    H139215   5.843   0.519  13.007  0.1230 -0.4396  0.3868
 5908TIP3    H239216   5.924   0.541  12.881  0.4760 -0.6849  0.5725
 5909TIP3   OH239217   4.156   4.728  11.957 -0.6300 -0.3858  0.1632
 5909TIP3    H139218   4.162   4.705  12.049  0.2417  0.0205  0.2121
 5909TIP3    H239219   4.063   4.750  11.944 -0.4763  1.1499  1.3294
 5910TIP3   OH239220   0.664   4.350   1.444  0.5537  0.1089  0.3526
 5910TIP3    H139221   0.708   4.415   1.500  1.9549 -0.5255  0.0315
 5910TIP3    H239222   0.722   4.341   1.368 -0.3064 -0.5341 -0.2474
 5911TIP3   OH239223   5.766   6.747   5.372  0.1876 -0.4438 -0.1735
 5911TIP3    H139224   5.806   6.827   5.339 -2.6767  0.1755 -2.5068
 5911TIP3    H239225   5.809   6.676   5.324  1.0286 -0.1608  0.1333
 5912TIP3   OH239226   4.522   1.199   4.362 -0.4150 -0.1222  0.3254
 5912TIP3    H139227   4.448   1.145   4.389 -1.6843  0.7014 -1.3154
 5912TIP3    H239228   4.503   1.285   4.399 -0.5672  0.2249 -0.5320
 5913TIP3   OH239229   0.574   5.191   6.014 -0.3574  0.5068 -0.4453
 5913TIP3    H139230   0.635   5.118   6.025 -0.3593  0.1622 -2.5017
 5913TIP3    H239231   0.488   5.151   6.022 -0.4046  0.9226  2.0045
 5914TIP3   OH239232   3.765   2.595   1.462 -0.1747  0.0845  0.1908
 5914TIP3    H139233   3.711   2.615   1.538 -1.5436  0.1950 -0.7643
 5914TIP3    H239234   3.852   2.577   1.498 -0.9888 -0.7672  1.8589
 5915TIP3   OH239235   3.685   3.430   5.985 -0.2676  0.5305 -0.2208
 5915TIP3    H139236   3.661   3.437   6.077  0.1655 -0.3671 -0.0334
 5915TIP3    H239237   3.772   3.391   5.986 -1.4796 -2.4946 -1.0668
 5916TIP3   OH239238   5.146   5.047   2.747 -0.0832  0.3656  0.0520
 5916TIP3    H139239   5.105   4.962   2.731  1.1175 -0.2710  0.2592
 5916TIP3    H239240   5.217   5.028   2.808  0.8181  1.3555 -0.6556
 5917TIP3   OH239241   3.126   3.186  14.230 -0.4866  0.3149  0.3349
 5917TIP3    H139242   3.137   3.151  14.318 -1.9915 -1.2230 -0.0221
 5917TIP3    H239243   3.032   3.177  14.212 -0.8300  3.6750 -0.2321
 5918TIP3   OH239244   2.555   6.630  15.265  0.0115 -0.2119  0.1513
 5918TIP3    H139245   2.634   6.576  15.271 -1.1370 -2.1402 -1.0048
 5918TIP3    H239246   2.538   6.636  15.171 -1.9069 -0.9195  0.4195
 5919TIP3   OH239247   5.232   4.481  15.300 -0.0288  0.0832  0.3858
 5919TIP3    H139248   5.295   4.523  15.358  0.5940 -0.1658 -0.0982
 5919TIP3    H239249   5.199   4.552  15.245  1.6162 -0.1679 -0.9731
 5920TIP3   OH239250   0.546   0.341  16.433  0.0300  0.3178 -0.6414
 5920TIP3    H139251   0.487   0.402  16.389  0.4458  1.3009  0.1239
 5920TIP3    H239252   0.489   0.273  16.469 -0.5372  0.7311 -0.7519
 5921TIP3   OH239253   0.947   5.358   3.818 -0.2866  0.7038  0.0550
 5921TIP3    H139254   0.875   5.305   3.783  1.5494 -2.0154  0.0870
 5921TIP3    H239255   0.945   5.438   3.765 -3.6095  1.0404  0.4326
 5922TIP3   OH239256   5.697   2.787  11.704  0.5921  0.6727 -0.1330
 5922TIP3    H139257   5.789   2.813  11.703  1.1774 -1.1612  1.4641
 5922TIP3    H239258   5.665   2.815  11.789  0.0518  0.0351 -0.1249
 5923TIP3   OH239259   0.899   5.091   5.719  0.2680 -0.0245 -0.0276
 5923TIP3    H139260   0.809   5.067   5.743  0.2985 -0.8879 -0.6943
 5923TIP3    H239261   0.896   5.186   5.707 -0.0197  0.2902  2.1151
 5924TIP3   OH239262   5.803   1.940   1.142 -0.0410 -0.4235  0.5002
 5924TIP3    H139263   5.715   1.966   1.168  0.1696  1.6786 -0.7117
 5924TIP3    H239264   5.796   1.845   1.128 -2.2354 -0.2443 -0.0317
 5925TIP3   OH239265   1.698   3.349   6.151  0.0832 -0.2308  0.0972
 5925TIP3    H139266   1.707   3.289   6.225  2.4078 -0.0910 -0.0139
 5925TIP3    H239267   1.720   3.435   6.188 -1.2659  0.2791 -0.2081
 5926TIP3   OH239268   0.826   0.899  13.991  0.2446  0.3542  0.9960
 5926TIP3    H139269   0.798   0.813  14.022 -1.0781  0.4624  0.1758
 5926TIP3    H239270   0.788   0.907  13.904  3.0117  0.4593 -0.3411
 5927TIP3   OH239271   5.919   4.668  13.905 -0.2652  0.1257 -0.2105
 5927TIP3    H139272   5.853   4.736  13.897 -1.6870 -1.1779  0.0473
 5927TIP3    H239273   5.870   4.586  13.909  1.3506 -0.8834  0.1954
 5928TIP3   OH239274   0.662   3.396   0.317 -0.1797 -0.0923 -0.1426
 5928TIP3    H139275   0.699   3.373   0.403  0.5460  2.0433  0.1684
 5928TIP3    H239276   0.572   3.422   0.335  0.3823  1.7012  0.2245
 5929TIP3   OH239277   0.654   0.380   3.229 -0.4896 -0.3061 -0.3368
 5929TIP3    H139278   0.650   0.447   3.161 -1.0225  1.1451  1.0799
 5929TIP3    H239279   0.572   0.330   3.218 -2.8215  2.6507  1.8430
 5930TIP3   OH239280   3.722   4.720   2.014  0.4677  0.3733  0.1031
 5930TIP3    H139281   3.737   4.638   1.967  0.9896 -0.8647  2.3062
 5930TIP3    H239282   3.798   4.729   2.071  0.7483  2.7776 -0.5504
 5931TIP3   OH239283   0.699   0.077  15.538 -0.0253  0.0634 -0.1296
 5931TIP3    H139284   0.745   0.024  15.472  1.7797  0.9173  0.3739
 5931TIP3    H239285   0.677   0.015  15.607 -1.9551 -0.8519 -1.4705
 5932TIP3   OH239286   6.704   6.552  11.209  0.1713 -0.0050 -0.0932
 5932TIP3    H139287   6.628   6.609  11.220 -0.7804 -1.2653  0.0313
 5932TIP3    H239288   6.680   6.493  11.138  0.7050 -0.9446  0.4900
 5933TIP3   OH239289   6.215   6.101  11.944  0.2071 -0.5297  0.3526
 5933TIP3    H139290   6.151   6.077  11.877  0.9309 -2.0672  0.1758
 5933TIP3    H239291   6.283   6.148  11.896  0.5637 -1.3415  0.0526
 5934TIP3   OH239292   2.598   0.185  16.969  0.0984 -0.5142 -0.1340
 5934TIP3    H139293   2.560   0.253  17.025 -0.6354 -2.1220  1.4501
 5934TIP3    H239294   2.692   0.201  16.973 -0.1071  1.0249 -0.6905
 5935TIP3   OH239295   3.582   0.896  12.663  0.0769 -0.1592 -0.0528
 5935TIP3    H139296   3.603   0.841  12.587  1.8276 -0.3723  0.5408
 5935TIP3    H239297   3.489   0.880  12.679  0.2186 -1.9043 -0.7474
 5936TIP3   OH239298   6.677   4.126   6.028 -0.2114 -0.1913 -0.0794
 5936TIP3    H139299   6.701   4.033   6.036 -0.9948 -0.5054 -1.1946
 5936TIP3    H239300   6.618   4.129   5.953 -0.0704  1.2459 -0.1513
 5937TIP3   OH239301   3.214   3.403  14.648  0.0673 -0.1447  0.7000
 5937TIP3    H139302   3.273   3.429  14.577  3.7166 -0.3589  3.3836
 5937TIP3    H239303   3.186   3.315  14.624 -1.3023  0.8716 -1.8311
 5938TIP3   OH239304   2.079   1.812  12.611 -0.0503  0.1037  0.8827
 5938TIP3    H139305   2.018   1.787  12.681 -2.3754  0.4281 -0.8999
 5938TIP3    H239306   2.030   1.795  12.530  1.1755  3.0145 -0.5990
 5939TIP3   OH239307   1.440   2.131   2.956 -0.7355 -0.3648 -0.3316
 5939TIP3    H139308   1.351   2.152   2.927 -0.2171 -0.3403 -2.0125
 5939TIP3    H239309   1.432   2.047   3.000 -1.3858 -1.0520 -1.7162
 5940TIP3   OH239310   3.900   5.609  13.508  0.4344  0.6312 -0.4147
 5940TIP3    H139311   3.871   5.526  13.471  1.4528  0.0989 -0.0475
 5940TIP3    H239312   3.820   5.661  13.515 -0.6185 -1.1111  1.4561
 5941TIP3   OH239313   4.378   1.672   0.821  0.1031 -0.7559  0.3475
 5941TIP3    H139314   4.367   1.730   0.896  0.4679  0.1849 -0.3053
 5941TIP3    H239315   4.297   1.621   0.817  0.0465 -0.7536  1.3160
 5942TIP3   OH239316   1.955   2.298  10.935 -0.8265 -0.2031 -0.3985
 5942TIP3    H139317   2.046   2.318  10.914 -0.1988 -2.0110  0.4176
 5942TIP3    H239318   1.910   2.383  10.933  1.5597  1.3142  2.6052
 5943TIP3   OH239319   2.506   4.988  13.021  0.0688 -0.7991 -0.3485
 5943TIP3    H139320   2.503   4.912  12.963  4.1729 -0.9984 -0.6008
 5943TIP3    H239321   2.476   4.955  13.105  1.4649 -2.7209 -0.5256
 5944TIP3   OH239322   3.528   4.723  13.084 -0.4110 -0.4620  0.2876
 5944TIP3    H139323   3.537   4.812  13.052  1.4246 -0.8624 -0.3840
 5944TIP3    H239324   3.574   4.723  13.168 -2.2584 -0.2808  1.3601
 5945TIP3   OH239325   3.378   5.255   1.989  0.6090 -0.4213 -0.3541
 5945TIP3    H139326   3.408   5.312   2.059 -1.3646 -1.5320  1.5197
 5945TIP3    H239327   3.316   5.308   1.939  2.3748  0.5244 -1.6371
 5946TIP3   OH239328   6.190   0.628  14.970 -0.0487  0.0351 -0.3841
 5946TIP3    H139329   6.268   0.598  14.922  0.2382 -0.8284  0.5970
 5946TIP3    H239330   6.225   0.684  15.039 -0.4234  0.8105 -0.8082
 5947TIP3   OH239331   4.552   6.030   1.881  0.5243  0.2232 -0.5220
 5947TIP3    H139332   4.505   5.970   1.939  1.7537 -0.9332 -0.6609
 5947TIP3    H239333   4.484   6.065   1.822 -0.2183 -1.1850 -0.5546
 5948TIP3   OH239334   1.836   5.865  13.656  0.2157 -0.3392  0.1423
 5948TIP3    H139335   1.882   5.856  13.573  0.6669  0.1453  0.3328
 5948TIP3    H239336   1.905   5.882  13.720 -0.3652  2.5804  0.1007
 5949TIP3   OH239337   4.604   1.317   0.059  0.3699 -0.3331  0.2164
 5949TIP3    H139338   4.515   1.349   0.047 -0.2874 -2.4553 -1.2715
 5949TIP3    H239339   4.659   1.395   0.054 -1.1891  0.7198 -1.8983
 5950TIP3   OH239340   0.642   3.385  13.838 -1.0190  0.0581 -0.1538
 5950TIP3    H139341   0.624   3.410  13.748  1.1971  0.1069 -0.6574
 5950TIP3    H239342   0.687   3.461  13.875 -0.5158 -0.5381  0.4900
 5951TIP3   OH239343   3.693   3.571  12.907 -0.4161  0.2391 -0.5435
 5951TIP3    H139344   3.748   3.565  12.985  1.2021 -1.2734 -1.7134
 5951TIP3    H239345   3.605   3.548  12.937  0.1803 -0.3831  0.8172
 5952TIP3   OH239346   1.735   1.197   1.307 -0.6724  0.3983  0.6371
 5952TIP3    H139347   1.655   1.197   1.359 -1.1086  0.3693 -0.0225
 5952TIP3    H239348   1.760   1.105   1.300 -1.2980  0.2729 -0.2144
 5953TIP3   OH239349   2.252   5.414   4.294  0.1880  0.1018 -0.0429
 5953TIP3    H139350   2.279   5.418   4.386  0.7907  0.7711 -0.2474
 5953TIP3    H239351   2.274   5.325   4.267  1.0487  0.2549  0.1411
 5954TIP3   OH239352   6.121   0.856  14.520  0.4877  0.2074 -0.1768
 5954TIP3    H139353   6.148   0.818  14.603  0.4134 -1.8450 -1.0353
 5954TIP3    H239354   6.202   0.886  14.479  0.8475 -1.0171 -0.4016
 5955TIP3   OH239355   5.880   0.493  11.348  0.0564 -0.4233  0.1332
 5955TIP3    H139356   5.790   0.527  11.347  0.3133  0.3771 -2.2952
 5955TIP3    H239357   5.879   0.420  11.286  1.2616  0.2423 -0.7201
 5956TIP3   OH239358   3.739   0.548   5.807 -0.1290 -0.4655 -0.3568
 5956TIP3    H139359   3.667   0.572   5.749 -2.2701 -1.0428  1.8621
 5956TIP3    H239360   3.706   0.569   5.895  2.3164 -1.0545  0.7866
 5957TIP3   OH239361   2.042   4.018  14.899 -0.0397 -0.2358 -0.9812
 5957TIP3    H139362   2.112   3.955  14.879  0.2310  0.1151 -1.1590
 5957TIP3    H239363   1.979   3.968  14.950  0.6941 -0.3744 -0.1794
 5958TIP3   OH239364   0.148   4.614  16.790 -0.0877  0.1874  0.3436
 5958TIP3    H139365   0.230   4.660  16.768 -0.7154  0.9545 -0.5061
 5958TIP3    H239366   0.176   4.528  16.819  0.9889 -0.0123 -1.1271
 5959TIP3   OH239367   3.209   5.354  17.219 -0.3863 -0.4171 -0.1911
 5959TIP3    H139368   3.233   5.443  17.193  0.7667 -0.6055  0.1545
 5959TIP3    H239369   3.293   5.310  17.231 -0.8789 -0.8072  2.1892
 5960TIP3   OH239370   1.558   1.365   2.599  0.4629  0.9056 -0.0601
 5960TIP3    H139371   1.532   1.398   2.685 -1.0995  1.4786 -0.7106
 5960TIP3    H239372   1.515   1.280   2.592 -0.0908  1.2147 -0.5725
 5961TIP3   OH239373   5.900   2.486  13.740 -0.0142 -0.1693  0.0840
 5961TIP3    H139374   5.910   2.403  13.694 -0.1208 -0.2584  0.2201
 5961TIP3    H239375   5.808   2.509  13.728  0.3864  0.7679 -1.3718
 5962TIP3   OH239376   5.311   5.682  11.520  0.0017  0.2116 -0.0496
 5962TIP3    H139377   5.276   5.598  11.549  0.1756  0.1291 -0.0715
 5962TIP3    H239378   5.339   5.666  11.429  1.1480 -0.0520  0.3354
 5963TIP3   OH239379   1.972   6.599   0.129  0.4773  0.6498 -0.1689
 5963TIP3    H139380   1.945   6.508   0.138  0.5431  0.7015  0.6434
 5963TIP3    H239381   1.925   6.645   0.199  2.0922  0.8558  0.8521
 5964TIP3   OH239382   2.277   2.366   6.184  0.4392 -0.0584 -0.2395
 5964TIP3    H139383   2.213   2.426   6.221  0.5494  0.6215 -1.1127
 5964TIP3    H239384   2.275   2.384   6.089  1.8293 -0.0772 -0.2997
 5965TIP3   OH239385   4.086   2.260  13.656 -0.4893  0.1941 -0.1420
 5965TIP3    H139386   4.161   2.292  13.705 -2.0327  1.3641  1.6387
 5965TIP3    H239387   4.091   2.165  13.664  0.6232  0.2715  0.2244
 5966TIP3   OH239388   4.659   1.555   2.994  0.0679 -0.0742  0.3226
 5966TIP3    H139389   4.731   1.601   3.038 -0.8459  1.9178 -0.1596
 5966TIP3    H239390   4.649   1.474   3.043  1.9932  0.0489  0.9990
 5967TIP3   OH239391   1.476   0.987  17.409 -0.3540 -0.0170  0.5122
 5967TIP3    H139392   1.485   1.059  17.471 -1.0394 -0.6043  1.3241
 5967TIP3    H239393   1.559   0.939  17.416  0.3945  1.0646 -0.5612
 5968TIP3   OH239394   2.983   4.792   0.872 -0.1060  0.4352  0.0367
 5968TIP3    H139395   3.051   4.724   0.865 -0.0473  0.6278 -1.6937
 5968TIP3    H239396   2.945   4.797   0.784  0.3649  3.1099 -0.0986
 5969TIP3   OH239397   1.071   6.570   4.230 -0.6710  0.2733  0.0535
 5969TIP3    H139398   1.166   6.581   4.239 -0.5878 -1.4908  2.2774
 5969TIP3    H239399   1.061   6.496   4.170 -0.7913  1.7765 -1.9080
 5970TIP3   OH239400   5.753   5.387   5.276 -0.7434 -0.2124 -0.3766
 5970TIP3    H139401   5.738   5.348   5.362 -0.2008  3.2066  1.4415
 5970TIP3    H239402   5.848   5.383   5.264 -0.8142 -0.6428 -0.8096
 5971TIP3   OH239403   1.612   2.836   0.824 -0.4301  0.1334 -0.1099
 5971TIP3    H139404   1.584   2.927   0.816 -0.0691  0.3174  0.6189
 5971TIP3    H239405   1.594   2.798   0.739 -2.4232  0.3646  0.1685
 5972TIP3   OH239406   3.814   3.441  11.703 -0.2763 -0.1210 -0.7256
 5972TIP3    H139407   3.899   3.434  11.660  0.8333 -2.5653  1.5999
 5972TIP3    H239408   3.803   3.535  11.718  2.1886  0.2383 -0.7567
 5973TIP3   OH239409   1.011   1.667  15.314  0.1354 -0.9808 -0.3806
 5973TIP3    H139410   1.072   1.740  15.325 -0.2244 -0.6265 -0.6728
 5973TIP3    H239411   1.015   1.647  15.220 -1.9612  0.6482 -0.8913
 5974TIP3   OH239412   5.298   4.020   5.865 -0.1058  0.0084 -0.5340
 5974TIP3    H139413   5.279   3.997   5.956 -0.7585 -0.3908 -0.7634
 5974TIP3    H239414   5.213   4.022   5.822  0.2341 -0.3045 -1.2514
 5975TIP3   OH239415   2.522   0.003   5.588 -0.1811  0.2427  0.6842
 5975TIP3    H139416   2.450  -0.035   5.638  0.0586 -1.2094 -0.0106
 5975TIP3    H239417   2.595   0.006   5.649 -0.1640 -0.5892  0.7194
 5976TIP3   OH239418   6.480   3.465   2.684  0.0580 -0.1158 -0.6625
 5976TIP3    H139419   6.569   3.447   2.655  0.2577  2.0835 -1.6322
 5976TIP3    H239420   6.486   3.470   2.779  0.8584 -0.5088 -0.6879
 5977TIP3   OH239421   5.347   0.770  11.506 -0.1871  0.1629 -0.8910
 5977TIP3    H139422   5.362   0.812  11.591 -0.9810  0.3675 -0.8411
 5977TIP3    H239423   5.344   0.843  11.444 -0.2210  0.0652 -1.0049
 5978TIP3   OH239424   6.766   5.923   2.061  0.5017  1.1794 -0.1619
 5978TIP3    H139425   6.842   5.886   2.016  0.1128 -0.7217  0.6570
 5978TIP3    H239426   6.705   5.947   1.991  0.3879 -0.6393 -0.7149
 5979TIP3   OH239427   0.167   3.079   3.251 -1.1404  0.1018  0.1204
 5979TIP3    H139428   0.098   3.031   3.205  0.2775 -1.6491 -0.2696
 5979TIP3    H239429   0.248   3.048   3.211  0.0932 -0.6018  2.9690
 5980TIP3   OH239430   5.023   4.898   1.707 -0.5643  0.0605  1.2651
 5980TIP3    H139431   5.036   4.803   1.711 -1.7772 -0.1499  0.6356
 5980TIP3    H239432   4.985   4.922   1.791 -0.0582  0.0309  1.5060
 5981TIP3   OH239433   3.035   3.808  12.173  0.3917 -0.1230 -0.1685
 5981TIP3    H139434   2.986   3.883  12.207  0.3593  1.1636 -2.7932
 5981TIP3    H239435   2.971   3.737  12.171 -1.2165  1.2720 -2.6271
 5982TIP3   OH239436   1.435   2.853  13.421  0.1679 -0.3382 -0.5541
 5982TIP3    H139437   1.352   2.895  13.444 -0.4680 -0.2080 -2.8300
 5982TIP3    H239438   1.435   2.771  13.470 -1.8428 -0.8608 -1.3274
 5983TIP3   OH239439   1.125   2.639   3.500  0.0177 -0.2937 -0.1445
 5983TIP3    H139440   1.070   2.644   3.578 -1.0695  1.1199 -0.9503
 5983TIP3    H239441   1.175   2.721   3.500 -0.6251  0.1262 -1.3485
 5984TIP3   OH239442   2.513   6.176   1.164 -0.3477  0.1129 -0.1794
 5984TIP3    H139443   2.606   6.171   1.187 -0.2700  0.3382 -0.4443
 5984TIP3    H239444   2.475   6.096   1.201  0.4231 -1.3343 -2.3245
 5985TIP3   OH239445   0.112   0.683   2.572  0.2437 -0.2854  0.2551
 5985TIP3    H139446   0.154   0.628   2.506 -2.4251 -1.7212 -0.4160
 5985TIP3    H239447   0.018   0.673   2.554 -0.4449  2.4691  1.7929
 5986TIP3   OH239448   6.017   3.561  15.849  0.2738 -0.1470  0.0628
 5986TIP3    H139449   6.089   3.588  15.906 -0.2625 -0.8095  1.0889
 5986TIP3    H239450   5.939   3.568  15.904 -0.4318  0.3989 -0.9818
 5987TIP3   OH239451   1.643   1.997  11.645 -0.3032  0.2986 -0.7884
 5987TIP3    H139452   1.594   1.933  11.593  0.6327 -0.3647 -0.8780
 5987TIP3    H239453   1.714   2.026  11.587 -0.9777  1.7891 -0.9174
 5988TIP3   OH239454   2.304   6.565  11.373 -0.0665 -0.0598  0.0392
 5988TIP3    H139455   2.310   6.606  11.286  0.3168 -1.1973 -0.4897
 5988TIP3    H239456   2.351   6.626  11.431  3.5381 -1.2601 -1.3116
 5989TIP3   OH239457   5.850   5.508   1.325  0.3210  0.1155  0.2638
 5989TIP3    H139458   5.903   5.522   1.404  1.3577 -1.0322 -0.1960
 5989TIP3    H239459   5.765   5.478   1.358  0.3755  0.7067  0.9683
 5990TIP3   OH239460   5.177   0.540   5.830  0.2867  0.1797  0.3639
 5990TIP3    H139461   5.267   0.509   5.843 -0.5078 -1.7683  1.6214
 5990TIP3    H239462   5.123   0.475   5.874 -1.6178  2.7390  2.0737
 5991TIP3   OH239463   2.888   5.664  16.049 -0.1894 -0.0295 -0.1635
 5991TIP3    H139464   2.825   5.612  15.998 -0.3945  0.1627 -0.1044
 5991TIP3    H239465   2.835   5.730  16.093 -0.2931 -1.2595  1.7219
 5992TIP3   OH239466   5.048   6.288  12.546  0.1679 -0.1762  0.3387
 5992TIP3    H139467   5.045   6.298  12.641 -0.1112 -0.7863  0.3981
 5992TIP3    H239468   5.083   6.200  12.532 -0.3536 -0.3196 -0.1110
 5993TIP3   OH239469   2.821   0.792  15.968 -0.2712  0.0910 -0.2754
 5993TIP3    H139470   2.792   0.830  16.051  1.9896  0.6865  0.3335
 5993TIP3    H239471   2.830   0.868  15.910  2.1443  0.3047  0.2727
 5994TIP3   OH239472   3.551   1.357  13.882  0.2187 -0.0293 -0.4489
 5994TIP3    H139473   3.460   1.368  13.910  0.9304 -0.2215  2.2029
 5994TIP3    H239474   3.547   1.289  13.815 -1.5679 -0.1129 -0.3234
 5995TIP3   OH239475   6.703   2.411  14.269 -1.1584  0.0808 -0.0130
 5995TIP3    H139476   6.748   2.480  14.220  0.4210  0.1545  1.4499
 5995TIP3    H239477   6.625   2.454  14.304  0.0114  1.3076  1.2270
 5996TIP3   OH239478   5.759   5.603   0.964  0.4899 -0.3048 -0.3594
 5996TIP3    H139479   5.745   5.629   0.873 -1.4373  0.5335  0.1265
 5996TIP3    H239480   5.825   5.665   0.996 -0.8749  1.2640 -0.4425
 5997TIP3   OH239481   1.494   2.927  17.201  0.0547  0.0516  0.6703
 5997TIP3    H139482   1.581   2.914  17.162  0.5404  2.3999  0.8020
 5997TIP3    H239483   1.511   2.981  17.278 -1.5071  0.3958  0.7949
 5998TIP3   OH239484   1.200   0.828  14.839 -0.1001 -0.3293  0.0949
 5998TIP3    H139485   1.120   0.847  14.791 -0.0493 -2.2810 -0.8984
 5998TIP3    H239486   1.257   0.903  14.822 -2.0101  1.5477  1.6324
 5999TIP3   OH239487   3.652   4.845  17.205 -0.0247 -0.6163 -0.0165
 5999TIP3    H139488   3.720   4.778  17.214  1.6416  0.6977 -1.8733
 5999TIP3    H239489   3.583   4.802  17.155  1.6310 -0.6874 -2.4511
 6000TIP3   OH239490   4.141   0.731   1.713  0.1269 -0.2378 -0.3184
 6000TIP3    H139491   4.093   0.788   1.653  1.4690  0.6662 -0.5869
 6000TIP3    H239492   4.098   0.646   1.705 -2.7353  0.9465  0.9892
 6001TIP3   OH239493   5.536   6.512   0.430  0.3149  0.2306  0.6185
 6001TIP3    H139494   5.537   6.594   0.480 -0.6243  0.5461  0.1360
 6001TIP3    H239495   5.468   6.459   0.472  1.0502 -0.3978  1.0513
 6002TIP3   OH239496   1.557   1.823  16.654  0.2072 -0.0435  0.4609
 6002TIP3    H139497   1.646   1.801  16.681  1.3751  2.9058 -0.5440
 6002TIP3    H239498   1.528   1.890  16.716 -1.2772 -0.7785  0.6249
 6003TIP3   OH239499   6.038   1.525   0.020  0.3447  0.2576 -0.1851
 6003TIP3    H139500   6.079   1.459  -0.035  2.0750  2.0610 -1.1905
 6003TIP3    H239501   6.065   1.503   0.109  1.0060 -0.2927 -0.5142
 6004TIP3   OH239502   5.483   4.564   0.298  0.5932  0.2347  0.0892
 6004TIP3    H139503   5.520   4.538   0.213 -0.4284 -1.2140  0.0443
 6004TIP3    H239504   5.410   4.621   0.275 -1.2387 -2.0791 -0.2197
 6005TIP3   OH239505   2.666   1.912  11.483  0.0605  0.4961 -0.1568
 6005TIP3    H139506   2.652   1.946  11.394 -0.4797 -1.0431 -0.6990
 6005TIP3    H239507   2.760   1.896  11.488 -0.1139 -1.1902 -1.1941
 6006TIP3   OH239508   2.143   6.702  16.701 -0.0425  0.9586  0.1548
 6006TIP3    H139509   2.222   6.736  16.744 -0.5863  0.8333  1.2802
 6006TIP3    H239510   2.176   6.632  16.644  0.6180  0.4932  1.0660
 6007TIP3   OH239511   4.166   2.737  13.648 -0.4036  0.0842  0.3920
 6007TIP3    H139512   4.176   2.671  13.717  0.6166 -0.5062 -0.2884
 6007TIP3    H239513   4.196   2.692  13.569 -0.7155  1.0365 -0.2743
 6008TIP3   OH239514   0.145   5.767  16.941  0.0136 -0.5907 -0.0913
 6008TIP3    H139515   0.221   5.739  16.889  1.6085 -2.3090  2.8583
 6008TIP3    H239516   0.179   5.776  17.030 -3.2121 -1.3388  1.3794
 6009TIP3   OH239517   1.341   0.846  10.852  0.0023 -0.1427  0.0884
 6009TIP3    H139518   1.420   0.801  10.881  0.9304  0.2425 -1.6685
 6009TIP3    H239519   1.284   0.775  10.821  0.4373 -0.3052 -0.3594
 6010TIP3   OH239520   3.541   4.809   1.103 -0.6717  0.3414  0.0734
 6010TIP3    H139521   3.510   4.762   1.181  2.2139  1.1634  1.8876
 6010TIP3    H239522   3.550   4.900   1.133 -2.8249  1.4706 -2.3358
 6011TIP3   OH239523   2.149   0.307   4.647 -0.0735 -0.2079 -0.5385
 6011TIP3    H139524   2.179   0.234   4.702  0.5361  0.0561 -0.5138
 6011TIP3    H239525   2.206   0.304   4.570 -1.2345 -0.8802 -1.4121
 6012TIP3   OH239526   0.499   0.846  17.171  0.1427  0.0514 -0.0396
 6012TIP3    H139527   0.566   0.891  17.222 -2.5453  2.5519  1.6047
 6012TIP3    H239528   0.449   0.796  17.236  0.0647 -1.4072 -1.1561
 6013TIP3   OH239529   5.507   2.845   2.510 -0.7617 -0.2036 -0.2275
 6013TIP3    H139530   5.572   2.793   2.463 -1.2549 -1.7559  0.7236
 6013TIP3    H239531   5.505   2.929   2.464  0.2919 -0.9115 -1.6390
 6014TIP3   OH239532   5.838   4.702   3.421 -0.4651  0.2776 -0.0003
 6014TIP3    H139533   5.757   4.745   3.448 -0.9017  0.0621 -0.8900
 6014TIP3    H239534   5.808   4.628   3.367  0.3394  0.9205 -1.3796
 6015TIP3   OH239535   0.014   0.092  11.614 -0.0473 -0.0137  0.2043
 6015TIP3    H139536  -0.010   0.094  11.521 -0.2639 -2.3213  0.1645
 6015TIP3    H239537   0.100   0.050  11.616  0.1214  0.3531  1.0368
 6016TIP3   OH239538   2.967   3.625   2.037  0.5513 -0.1568  0.7034
 6016TIP3    H139539   2.912   3.624   2.115  0.6012 -3.7179  0.8434
 6016TIP3    H239540   2.909   3.652   1.966 -0.9766 -2.0875  1.1549
 6017TIP3   OH239541   2.658   6.245  13.288  0.5054 -0.1260 -0.1912
 6017TIP3    H139542   2.628   6.156  13.306 -1.8480  0.9627  1.9268
 6017TIP3    H239543   2.675   6.282  13.374  0.1351  1.8847 -0.9347
 6018TIP3   OH239544   0.208   6.130  12.047  0.2415 -0.3331  0.0686
 6018TIP3    H139545   0.276   6.136  12.114  1.1159 -0.7344 -0.7781
 6018TIP3    H239546   0.131   6.170  12.089 -0.1288 -3.1890  2.4370
 6019TIP3   OH239547   5.643   2.792   3.490 -0.1099 -0.4572 -0.1888
 6019TIP3    H139548   5.691   2.810   3.571  0.5110 -1.1836 -0.3817
 6019TIP3    H239549   5.707   2.805   3.420 -0.2106 -1.3386 -0.4586
 6020TIP3   OH239550   6.143   2.210  14.276  0.1578 -0.9259 -0.1534
 6020TIP3    H139551   6.132   2.118  14.253  0.0774 -0.8114 -0.5894
 6020TIP3    H239552   6.071   2.230  14.335  0.8473 -1.4494  0.8967
 6021TIP3   OH239553   0.367   1.280  15.001  0.2818  0.0345  0.1414
 6021TIP3    H139554   0.346   1.330  15.079 -0.3428  1.0011 -0.6336
 6021TIP3    H239555   0.328   1.194  15.017  1.6532 -0.3748  1.6221
 6022TIP3   OH239556   1.930   3.957  14.392  0.1091  0.2297  0.4069
 6022TIP3    H139557   1.851   3.998  14.428 -0.2684 -1.6227  1.8335
 6022TIP3    H239558   1.998   3.973  14.457  0.3107 -0.1846  0.3027
 6023TIP3   OH239559   5.866   1.727  17.419 -0.3379  0.2789 -0.4028
 6023TIP3    H139560   5.791   1.668  17.432  0.7051 -0.5613  2.7671
 6023TIP3    H239561   5.942   1.670  17.428  0.7494  2.0092  3.6035
 6024TIP3   OH239562   5.271   3.735   0.786 -0.4850 -0.1873 -0.0110
 6024TIP3    H139563   5.194   3.791   0.773 -1.9607 -2.0013  0.4812
 6024TIP3    H239564   5.298   3.711   0.697 -1.6907 -1.0330 -0.1858
 6025TIP3   OH239565   6.538   4.093  17.291  0.1276 -0.3554  0.2657
 6025TIP3    H139566   6.545   4.188  17.288 -2.5432 -0.0150  1.8513
 6025TIP3    H239567   6.596   4.067  17.363  0.8923  0.0291 -0.1958
 6026TIP3   OH239568   0.768   0.278   2.849  0.4151 -0.7333 -0.2298
 6026TIP3    H139569   0.780   0.349   2.786  0.3835  0.1315  0.7277
 6026TIP3    H239570   0.807   0.310   2.930 -3.9023  0.2911  1.6933
 6027TIP3   OH239571   5.490   3.905  12.644  0.0344  0.2569 -0.5654
 6027TIP3    H139572   5.407   3.930  12.605 -1.4895 -1.2175  1.4759
 6027TIP3    H239573   5.523   3.835  12.588 -1.2399 -0.6533 -0.2238
 6028TIP3   OH239574   4.964   5.069  12.123  0.4056 -0.0655  0.0488
 6028TIP3    H139575   4.907   5.012  12.174  1.1736 -1.0906 -0.1974
 6028TIP3    H239576   5.048   5.068  12.169  0.7452 -0.0203 -0.5463
 6029TIP3   OH239577   6.667   3.066   1.961 -0.3910 -0.0841 -0.8685
 6029TIP3    H139578   6.698   3.001   1.899 -0.0163 -0.6404 -0.1209
 6029TIP3    H239579   6.634   3.015   2.035 -0.6433  0.5595 -0.5226
 6030TIP3   OH239580   3.305   3.067   2.817  0.2249 -0.0599 -0.0695
 6030TIP3    H139581   3.247   3.022   2.879 -0.1210  1.3557  0.6681
 6030TIP3    H239582   3.376   3.005   2.801 -1.0755 -1.5443 -0.3983
 6031TIP3   OH239583   1.661   2.176  16.490 -0.0805  0.3672  0.1673
 6031TIP3    H139584   1.601   2.131  16.430 -0.2692  1.2747 -0.3421
 6031TIP3    H239585   1.604   2.228  16.546  0.2239  1.5041 -0.5412
 6032TIP3   OH239586   3.710   2.341  17.105  0.2677  0.1839 -0.3392
 6032TIP3    H139587   3.658   2.277  17.155  1.2900  0.6311  1.3978
 6032TIP3    H239588   3.725   2.299  17.021  1.2052 -2.0784  0.8423
 6033TIP3   OH239589   2.437   5.543  17.224 -0.7645  0.0560 -0.1759
 6033TIP3    H139590   2.409   5.452  17.211  3.0129 -1.3427  0.2476
 6033TIP3    H239591   2.478   5.568  17.142 -0.0029  0.6226  0.3623
 6034TIP3   OH239592   6.387   4.688   6.527  0.0937  0.2983 -0.0895
 6034TIP3    H139593   6.300   4.650   6.513  0.8820 -1.8277  0.3077
 6034TIP3    H239594   6.396   4.692   6.622  0.3385  0.7097 -0.1313
 6035TIP3   OH239595   0.833   3.290  17.386  0.2491 -0.3824 -0.3216
 6035TIP3    H139596   0.752   3.322  17.425  0.8746  1.2462 -0.2687
 6035TIP3    H239597   0.825   3.313  17.293  0.5985 -0.2975 -0.3314
 6036TIP3   OH239598   1.531   2.900   0.180 -0.0185  0.0578  0.4582
 6036TIP3    H139599   1.436   2.909   0.190  0.0398  0.6589  0.5159
 6036TIP3    H239600   1.567   2.958   0.247  0.3843  0.1601  0.1568
 6037TIP3   OH239601   6.270   0.440   0.087  0.2221 -0.3302 -0.1501
 6037TIP3    H139602   6.310   0.527   0.090  1.9744 -1.0818 -0.7012
 6037TIP3    H239603   6.311   0.397   0.012  0.0752 -1.9554  0.6571
 6038TIP3   OH239604   2.905   4.122  13.529  0.4119  0.2599  0.4803
 6038TIP3    H139605   2.878   4.110  13.438 -1.4423 -1.0858  1.1539
 6038TIP3    H239606   2.999   4.140  13.524  0.3000  0.4805 -1.7014
 6039TIP3   OH239607   1.419   3.802  13.779 -0.5376  0.2368  0.3873
 6039TIP3    H139608   1.417   3.824  13.686 -1.4528 -1.8658 -0.1480
 6039TIP3    H239609   1.404   3.885  13.824  0.3467  1.3687 -1.3088
 6040TIP3   OH239610   1.664   1.486  12.164  0.3054  0.0608 -0.0737
 6040TIP3    H139611   1.632   1.567  12.202  1.4358  0.7218 -0.4671
 6040TIP3    H239612   1.746   1.467  12.211  1.2090  0.3669 -1.4488
 6041TIP3   OH239613   4.343   3.431   2.100  0.0768  0.1636 -0.4353
 6041TIP3    H139614   4.430   3.470   2.095  1.2264 -2.1435  0.5071
 6041TIP3    H239615   4.303   3.473   2.176  0.4024  1.0898 -0.7542
 6042TIP3   OH239616   1.791   3.637   5.044 -0.0348  0.3074  0.4853
 6042TIP3    H139617   1.710   3.685   5.060  0.7799  1.6241  0.8321
 6042TIP3    H239618   1.811   3.654   4.952  0.7042  1.4054  0.8240
 6043TIP3   OH239619   2.642   1.794   6.044 -0.1253 -0.3251  0.2942
 6043TIP3    H139620   2.574   1.803   6.110  0.3786 -3.6439  1.4217
 6043TIP3    H239621   2.665   1.701   6.045  3.5716  0.4184 -0.9035
 6044TIP3   OH239622   3.247   1.195   4.809  0.1874  0.4241 -0.2981
 6044TIP3    H139623   3.274   1.116   4.857 -1.7960 -0.1039  0.0856
 6044TIP3    H239624   3.328   1.237   4.783  1.3126 -1.2115  0.3925
 6045TIP3   OH239625   2.302   1.130   5.053  0.2859 -0.1891  0.0094
 6045TIP3    H139626   2.237   1.069   5.019  0.8784 -0.8078 -0.0270
 6045TIP3    H239627   2.382   1.111   5.003  0.4273  0.7611 -0.1600
 6046TIP3   OH239628   4.027   6.667   0.869  0.3813  0.5242 -0.8930
 6046TIP3    H139629   4.070   6.588   0.903 -0.0553  0.2763 -0.9092
 6046TIP3    H239630   4.098   6.717   0.828  0.5441 -0.2277 -1.5666
 6047TIP3   OH239631   1.990   1.934   1.562 -0.4623  0.0151  0.0901
 6047TIP3    H139632   1.947   2.002   1.510 -0.1768  0.9640  1.0667
 6047TIP3    H239633   1.954   1.945   1.650 -0.0580 -0.7919  0.3655
 6048TIP3   OH239634   0.725   5.534  13.796 -0.2385 -0.1959 -0.4399
 6048TIP3    H139635   0.724   5.612  13.852  0.5489  0.3201 -1.1114
 6048TIP3    H239636   0.800   5.483  13.826 -1.4072 -1.2863  0.7401
 6049TIP3   OH239637   0.804   5.110  16.891 -1.4177 -0.2352 -0.1753
 6049TIP3    H139638   0.775   5.018  16.896 -0.0177 -0.7357 -0.8024
 6049TIP3    H239639   0.845   5.126  16.976  0.5110 -0.9918 -0.9158
 6050TIP3   OH239640   4.542   3.177   3.689  0.6126  0.4424 -0.1074
 6050TIP3    H139641   4.525   3.264   3.653  0.0213  0.6749  0.7004
 6050TIP3    H239642   4.624   3.188   3.738  1.0520  0.2979 -0.8056
 6051TIP3   OH239643   4.362   0.971   0.210 -0.3793  0.4118 -0.1809
 6051TIP3    H139644   4.392   1.020   0.133 -2.2849 -0.9326 -1.8876
 6051TIP3    H239645   4.268   0.986   0.214 -0.7543 -1.6579  0.2417
 6052TIP3   OH239646   2.973   6.439   0.699 -0.0631  0.7200 -0.4871
 6052TIP3    H139647   2.968   6.526   0.659 -3.5391  0.4988 -0.8619
 6052TIP3    H239648   2.902   6.438   0.763  2.3343 -0.6115  2.4045
 6053TIP3   OH239649   5.337   6.734  12.359 -0.1914 -0.2601 -0.2213
 6053TIP3    H139650   5.355   6.782  12.279  0.7934 -0.3090 -0.0444
 6053TIP3    H239651   5.343   6.642  12.334  0.9366 -0.2811  0.0585
 6054TIP3   OH239652   2.289   1.681  12.757 -0.4683  0.0307  0.2470
 6054TIP3    H139653   2.289   1.588  12.782  1.2641  0.7970  3.7087
 6054TIP3    H239654   2.197   1.706  12.760 -0.7839 -1.1209  1.3601
 6055TIP3   OH239655   4.884   0.624   3.977  0.0462 -0.0504  0.1980
 6055TIP3    H139656   4.879   0.675   4.057  0.0249 -0.4394  0.4495
 6055TIP3    H239657   4.920   0.684   3.912  2.5525 -0.4178  1.1002
 6056TIP3   OH239658   0.145   2.720  16.770  0.1064 -0.6008  0.3458
 6056TIP3    H139659   0.233   2.682  16.769  0.1244 -0.8512  3.3665
 6056TIP3    H239660   0.148   2.790  16.705  1.9530 -1.7193 -0.8807
 6057TIP3   OH239661   5.800   4.642   1.779  0.2496  0.8790  0.5200
 6057TIP3    H139662   5.875   4.583   1.786 -0.1050  0.0959 -1.4879
 6057TIP3    H239663   5.753   4.632   1.861  0.6278 -1.0805  0.5375
 6058TIP3   OH239664   1.601   3.034  11.778 -0.4982 -0.4023  0.3345
 6058TIP3    H139665   1.667   3.025  11.846  0.0696 -1.4812 -0.3335
 6058TIP3    H239666   1.632   3.107  11.724  0.3607 -1.1401 -0.1907
 6059TIP3   OH239667   4.741   3.670   5.417 -0.0811 -0.3023 -0.1795
 6059TIP3    H139668   4.702   3.733   5.357  1.4845 -0.2341 -1.1617
 6059TIP3    H239669   4.772   3.723   5.491  0.1268 -0.0769 -0.4264
 6060TIP3   OH239670   4.806   0.641  16.603 -0.0096  0.5507  0.4308
 6060TIP3    H139671   4.777   0.639  16.694  0.3373  0.7813  0.5460
 6060TIP3    H239672   4.803   0.550  16.575  1.5235  0.2454  1.1903
 6061TIP3   OH239673   4.108   1.547   0.838  0.0828 -0.3591 -0.7642
 6061TIP3    H139674   4.061   1.544   0.922  0.5252  2.2712 -0.3535
 6061TIP3    H239675   4.039   1.565   0.773  0.1295  0.6022 -0.5522
 6062TIP3   OH239676   3.427   3.664   1.317  0.2809 -0.0973 -0.2983
 6062TIP3    H139677   3.379   3.745   1.333 -0.7474 -0.9172  0.9883
 6062TIP3    H239678   3.514   3.681   1.353  0.6181  0.9729 -1.5306
 6063TIP3   OH239679   0.910   1.610  13.320 -0.4164  0.0171 -0.2137
 6063TIP3    H139680   0.942   1.696  13.346 -1.0805  0.6299 -1.3330
 6063TIP3    H239681   0.815   1.617  13.323 -0.5285  0.0139 -2.3025
 6064TIP3   OH239682   2.256   0.841   5.021 -0.0209  0.0643  0.5132
 6064TIP3    H139683   2.186   0.800   5.073  0.3395 -1.7666 -0.3737
 6064TIP3    H239684   2.335   0.828   5.074  0.7004 -3.5091 -1.1373
 6065TIP3   OH239685   2.596   1.664   1.180 -0.3801 -0.1327 -0.6081
 6065TIP3    H139686   2.568   1.756   1.183  1.5503  0.6132  4.5888
 6065TIP3    H239687   2.650   1.653   1.258  1.2664 -5.2423 -2.1001
 6066TIP3   OH239688   4.423   1.181  11.782 -0.2382 -0.4553 -0.0724
 6066TIP3    H139689   4.349   1.196  11.724 -0.6175  2.6150  1.0346
 6066TIP3    H239690   4.499   1.178  11.724 -0.7599  1.1674 -0.9090
 6067TIP3   OH239691   5.775   2.532  14.663 -0.5606 -0.1104 -0.4345
 6067TIP3    H139692   5.785   2.437  14.655  0.3030 -0.0345 -0.3346
 6067TIP3    H239693   5.789   2.550  14.756  1.1376  0.2960 -0.7200
 6068TIP3   OH239694   3.045   2.070   5.542 -0.1529 -0.5608 -0.5358
 6068TIP3    H139695   2.966   2.065   5.488  0.1263  0.2163 -1.0319
 6068TIP3    H239696   3.016   2.110   5.624 -0.2625 -0.2154 -0.7421
 6069TIP3   OH239697   6.498   5.129  13.287 -0.4595 -0.0475 -0.3150
 6069TIP3    H139698   6.510   5.050  13.339 -0.8563 -1.2457 -1.9562
 6069TIP3    H239699   6.585   5.148  13.251 -0.6944 -0.8140 -1.3431
 6070TIP3   OH239700   6.456   3.208  14.942  0.2001 -0.1390  0.6763
 6070TIP3    H139701   6.517   3.137  14.921  0.1505 -0.3316  1.1803
 6070TIP3    H239702   6.398   3.213  14.866 -0.4037 -1.2834  1.0569
 6071TIP3   OH239703   2.765   3.185   4.196 -0.0507  0.0383  0.1669
 6071TIP3    H139704   2.846   3.213   4.153 -1.6820 -0.5196 -3.6110
 6071TIP3    H239705   2.701   3.252   4.173 -1.2190 -0.6730  1.1888
 6072TIP3   OH239706   2.794   1.027   2.767  0.6630  0.0025 -0.4452
 6072TIP3    H139707   2.829   1.016   2.856 -1.0963 -0.4519  0.2281
 6072TIP3    H239708   2.846   0.966   2.714  0.7006 -0.8904  0.5787
 6073TIP3   OH239709   5.506   4.560  17.024 -0.1079  0.8026 -0.3990
 6073TIP3    H139710   5.427   4.568  17.077 -1.3386 -0.6727 -1.8817
 6073TIP3    H239711   5.548   4.481  17.055  1.1261  1.8791  0.7534
 6074TIP3   OH239712   6.025   5.231   4.389  0.3846  0.5378 -0.2553
 6074TIP3    H139713   5.976   5.293   4.336  3.2817  1.3093 -2.2859
 6074TIP3    H239714   5.958   5.181   4.437 -2.1772  2.7912 -1.2708
 6075TIP3   OH239715   0.971   1.889  13.454  0.0900  0.2878  0.3259
 6075TIP3    H139716   0.898   1.905  13.394  0.3214 -1.4077 -0.4622
 6075TIP3    H239717   1.027   1.966  13.444 -1.7465  1.8308  1.2614
 6076TIP3   OH239718   1.219   2.175   1.482  0.2275 -0.8636  0.2033
 6076TIP3    H139719   1.198   2.262   1.447 -0.0283 -0.2037  1.8932
 6076TIP3    H239720   1.180   2.114   1.419  1.4996  0.1809 -1.6995
 6077TIP3   OH239721   4.151   0.772   0.613 -0.0897  0.0101  0.4339
 6077TIP3    H139722   4.199   0.849   0.645  0.5322  0.1498 -0.7952
 6077TIP3    H239723   4.206   0.736   0.544 -0.0152 -2.0006  1.4672
 6078TIP3   OH239724   1.238   4.810  15.102  0.3400  0.1880 -0.0864
 6078TIP3    H139725   1.165   4.748  15.104  1.2471 -0.9012  0.4846
 6078TIP3    H239726   1.316   4.755  15.107  1.1742  1.3932  0.7151
 6079TIP3   OH239727   1.889   0.182   3.074 -0.0350  0.1685 -0.0083
 6079TIP3    H139728   1.800   0.169   3.105 -0.2025  2.0652  0.4887
 6079TIP3    H239729   1.944   0.162   3.151 -0.0683 -0.4232 -0.1369
 6080TIP3   OH239730   1.106   5.288  12.951  0.2011 -0.3358  1.2069
 6080TIP3    H139731   1.026   5.317  12.907  0.4440 -2.0699 -0.5543
 6080TIP3    H239732   1.127   5.358  13.012 -1.1254  1.4650 -0.2795
 6081TIP3   OH239733   0.810   1.987   0.910 -0.3499  0.2203  0.8857
 6081TIP3    H139734   0.872   2.026   0.972  0.3335  0.4711  0.0759
 6081TIP3    H239735   0.863   1.971   0.831 -1.2552  0.1511  0.2820
 6082TIP3   OH239736   2.873   0.177  14.870 -0.8061  0.5844  0.2268
 6082TIP3    H139737   2.804   0.131  14.822 -1.0689 -0.6969  1.7534
 6082TIP3    H239738   2.934   0.109  14.896  1.4102  1.7641 -1.5658
 6083TIP3   OH239739   1.438   4.567   4.903 -0.0596 -0.0406 -0.7447
 6083TIP3    H139740   1.389   4.646   4.880  0.2220  0.1454 -0.7117
 6083TIP3    H239741   1.440   4.567   4.999 -1.3156 -0.8658 -0.6990
 6084TIP3   OH239742   3.918   2.476   4.219  0.2094 -0.2754  0.2098
 6084TIP3    H139743   3.999   2.522   4.238 -1.0028  1.9463  0.3448
 6084TIP3    H239744   3.861   2.543   4.180 -1.9482 -1.4305  1.1928
 6085TIP3   OH239745   4.390   5.614  17.273  0.4322  0.3171  0.1339
 6085TIP3    H139746   4.482   5.598  17.255  0.9644 -1.2648  3.4906
 6085TIP3    H239747   4.390   5.663  17.356 -1.7286 -0.1691  0.4801
 6086TIP3   OH239748   0.748   3.440  16.128  0.4117 -0.3385  0.1948
 6086TIP3    H139749   0.840   3.468  16.126  0.7861 -1.1913  2.3037
 6086TIP3    H239750   0.731   3.409  16.039  1.8661  0.6840 -0.4975
 6087TIP3   OH239751   6.365   2.151   6.076  0.2319 -0.4830  0.0512
 6087TIP3    H139752   6.284   2.202   6.082  0.8503  0.6312 -0.8566
 6087TIP3    H239753   6.396   2.145   6.167 -1.1160 -1.3725  0.4793
 6088TIP3   OH239754   0.604   5.452   3.298  0.2144 -0.4199  0.4926
 6088TIP3    H139755   0.581   5.483   3.386 -1.0989  1.5595 -0.4673
 6088TIP3    H239756   0.638   5.530   3.253  0.9096 -1.4060 -0.7413
 6089TIP3   OH239757   0.363   0.126  13.710  0.0338  0.1902 -0.0135
 6089TIP3    H139758   0.285   0.070  13.709  0.2499 -0.1676  1.4015
 6089TIP3    H239759   0.403   0.110  13.795  2.4678 -0.7339 -1.2370
 6090TIP3   OH239760   3.691   6.699  11.794 -0.2341  0.3788  0.2334
 6090TIP3    H139761   3.726   6.625  11.745  0.9863  1.0895  0.0008
 6090TIP3    H239762   3.767   6.752  11.817 -1.1686  2.1534 -0.5532
 6091TIP3   OH239763   4.001   4.945  13.393 -0.4501 -0.4028  0.0118
 6091TIP3    H139764   4.083   4.908  13.427  0.1230  0.2301 -0.6311
 6091TIP3    H239765   4.013   5.040  13.401 -0.6834 -0.2748 -1.0856
 6092TIP3   OH239766   4.210   5.469   1.143  0.4360 -0.5904  0.0486
 6092TIP3    H139767   4.278   5.423   1.093  1.3294  0.0275  0.6807
 6092TIP3    H239768   4.251   5.489   1.227 -0.4035  0.1258  0.3001
 6093TIP3   OH239769   4.130   0.707   3.935  0.4107  0.4108  0.4086
 6093TIP3    H139770   4.116   0.675   3.846  0.8887 -0.7649  0.7253
 6093TIP3    H239771   4.203   0.769   3.927  0.8562 -0.1386  0.0544
 6094TIP3   OH239772   6.138   4.057   0.482 -0.0747 -0.3242  0.1924
 6094TIP3    H139773   6.100   4.004   0.552 -0.9404  0.1846  0.1312
 6094TIP3    H239774   6.169   3.993   0.418 -2.0660 -0.7917 -0.3843
 6095TIP3   OH239775   2.775   0.212   5.569  0.2677  0.1951 -0.1793
 6095TIP3    H139776   2.849   0.173   5.615 -0.6939 -0.2713  0.9935
 6095TIP3    H239777   2.723   0.138   5.538 -0.0017  0.5248 -0.5338
 6096TIP3   OH239778   3.147   2.592   4.111  0.3863 -0.5042  0.2441
 6096TIP3    H139779   3.085   2.526   4.141 -0.1008 -0.6596 -1.0085
 6096TIP3    H239780   3.092   2.664   4.079  0.8400 -0.4817 -0.5336
 6097TIP3   OH239781   2.528   6.742   6.044  0.4034  0.7135  0.7540
 6097TIP3    H139782   2.623   6.754   6.050  0.5291  1.0263 -1.1803
 6097TIP3    H239783   2.500   6.806   5.979 -1.2949  1.2319  1.9131
 6098TIP3   OH239784   4.844   6.205  14.741  0.2939  0.5720  0.6284
 6098TIP3    H139785   4.826   6.263  14.815  0.1468  1.7124 -0.2703
 6098TIP3    H239786   4.796   6.243  14.667 -1.7876 -2.0148  0.4936
 6099TIP3   OH239787   5.525   2.692   5.568 -0.3690 -0.1183 -0.0089
 6099TIP3    H139788   5.477   2.616   5.601 -0.0378 -0.0936  0.5292
 6099TIP3    H239789   5.471   2.724   5.495 -1.6054  0.4031  1.0851
 6100TIP3   OH239790   3.195   5.409  12.222  0.0663  0.6396  0.2024
 6100TIP3    H139791   3.150   5.436  12.142  0.7409  0.1466 -0.3475
 6100TIP3    H239792   3.251   5.336  12.196  3.1410  2.7769  0.2954
 6101TIP3   OH239793   1.262   4.241  16.025 -0.0839 -0.0050 -0.2817
 6101TIP3    H139794   1.312   4.160  16.014 -1.6969 -1.1796  0.6018
 6101TIP3    H239795   1.252   4.276  15.936 -1.0801 -1.8731 -0.9440
 6102TIP3   OH239796   1.357   3.324  17.129  0.0089 -1.0451  0.1208
 6102TIP3    H139797   1.390   3.281  17.050 -1.6389 -2.2189  0.0084
 6102TIP3    H239798   1.262   3.326  17.117 -0.0940  1.2032  0.9029
 6103TIP3   OH239799   4.758   5.875  13.261  0.2157 -0.0289  0.3224
 6103TIP3    H139800   4.851   5.871  13.236  0.7099 -0.6591  2.1113
 6103TIP3    H239801   4.731   5.963  13.238  0.8901 -0.2174 -1.3832
 6104TIP3   OH239802   0.830   3.187   5.577 -0.0838  0.3125  0.2448
 6104TIP3    H139803   0.799   3.130   5.648 -0.4981 -1.0266 -0.9651
 6104TIP3    H239804   0.869   3.127   5.513  0.5916  1.5220 -0.5234
 6105TIP3   OH239805   0.359   0.105  15.752 -0.1955  0.2799  0.0460
 6105TIP3    H139806   0.273   0.063  15.756 -0.2983  0.5846  1.7194
 6105TIP3    H239807   0.419   0.041  15.791  0.2504  0.3067 -0.5780
 6106TIP3   OH239808   0.882   4.574   5.448  0.1960 -0.3216  0.1696
 6106TIP3    H139809   0.797   4.611   5.472  0.5280  0.6969 -0.1481
 6106TIP3    H239810   0.940   4.599   5.520  0.5797  0.4057 -0.3772
 6107TIP3   OH239811   1.800   3.025  11.956  0.1435 -0.0428  0.6913
 6107TIP3    H139812   1.872   2.963  11.971  0.2737 -0.5863 -1.8361
 6107TIP3    H239813   1.815   3.094  12.021  1.3271 -1.4880  2.0485
 6108TIP3   OH239814   0.956   1.421  13.538  0.0770 -0.0097  0.1575
 6108TIP3    H139815   0.968   1.504  13.584  0.3709  0.5829 -0.9466
 6108TIP3    H239816   0.956   1.445  13.445  0.8102 -1.3138 -0.2088
 6109TIP3   OH239817   3.845   1.638   0.872  0.1478  0.1561  0.1751
 6109TIP3    H139818   3.916   1.697   0.900 -0.8001  1.0606  0.7593
 6109TIP3    H239819   3.766   1.681   0.903 -0.6813 -0.7098 -0.7066
 6110TIP3   OH239820   6.073   4.605  12.513  0.0779  0.8135  0.7124
 6110TIP3    H139821   6.110   4.663  12.579 -1.3830  0.9225  1.4662
 6110TIP3    H239822   5.978   4.611  12.525 -0.1628 -0.4768 -0.2752
 6111TIP3   OH239823   1.299   5.000  13.222  0.3595  0.0123 -0.0622
 6111TIP3    H139824   1.212   5.024  13.252 -0.1269 -0.0301 -1.3430
 6111TIP3    H239825   1.311   5.051  13.141  1.9524  0.8162  0.6355
 6112TIP3   OH239826   4.732   1.515  14.683  0.1846 -0.0320 -0.6992
 6112TIP3    H139827   4.640   1.499  14.704  0.1116 -2.1578 -2.1963
 6112TIP3    H239828   4.776   1.435  14.710  0.7378 -1.0937 -4.1972
 6113TIP3   OH239829   2.265   3.739  13.392 -0.1518  0.1240  0.1015
 6113TIP3    H139830   2.359   3.734  13.408 -0.5420 -1.1478  2.5887
 6113TIP3    H239831   2.235   3.813  13.444 -0.8923 -1.5275  2.2232
 6114TIP3   OH239832   4.282   0.190  16.943 -0.0765  0.3645  0.2124
 6114TIP3    H139833   4.329   0.236  17.012  1.4954  1.4165 -1.4515
 6114TIP3    H239834   4.304   0.098  16.956 -0.4521  0.4427  1.5415
 6115TIP3   OH239835   4.529   6.683  15.003  0.4127 -0.3999 -0.4510
 6115TIP3    H139836   4.579   6.644  14.931  0.6049  1.6312 -1.4782
 6115TIP3    H239837   4.450   6.718  14.961 -1.0616 -1.9531  0.8727
 6116TIP3   OH239838   5.772   4.909   0.674 -0.6704  0.1973  0.4256
 6116TIP3    H139839   5.851   4.946   0.635  0.4295 -0.1480  2.2386
 6116TIP3    H239840   5.744   4.842   0.612  1.1191 -0.4657  0.2832
 6117TIP3   OH239841   1.285   2.642  15.943 -0.1877  0.3436 -0.5031
 6117TIP3    H139842   1.209   2.649  15.886  0.1911 -1.0152 -1.2271
 6117TIP3    H239843   1.351   2.699  15.903 -1.2342  2.7118  0.9462
 6118TIP3   OH239844   3.011   5.071  15.996 -0.1162 -0.0875  0.2440
 6118TIP3    H139845   3.063   5.145  16.027  0.1901  0.9827 -2.4698
 6118TIP3    H239846   3.056   4.993  16.029  0.9415  0.8859  1.1796
 6119TIP3   OH239847   0.773   5.772  12.208 -0.1334 -0.2580  0.5819
 6119TIP3    H139848   0.809   5.769  12.297  1.1549  0.0370  0.0899
 6119TIP3    H239849   0.843   5.811  12.155 -0.9040 -0.3741 -0.5549
 6120TIP3   OH239850   5.962   2.067  14.588  0.0491  0.0974 -0.1305
 6120TIP3    H139851   6.057   2.077  14.583  0.1096 -0.4452 -0.0787
 6120TIP3    H239852   5.947   1.974  14.573 -0.3535 -0.1183  1.4962
 6121TIP3   OH239853   2.311   1.908  11.322  0.8227 -0.0620  0.2053
 6121TIP3    H139854   2.278   1.835  11.270 -0.6019  0.9123 -0.3121
 6121TIP3    H239855   2.269   1.897  11.407  0.5433  0.2024  0.1006
 6122TIP3   OH239856   1.295   2.493  17.299  0.0254 -0.3758  0.0810
 6122TIP3    H139857   1.336   2.536  17.224  1.8181  0.1830  1.3136
 6122TIP3    H239858   1.351   2.417  17.316  1.2188  0.9227  2.3864
 6123TIP3   OH239859   2.527   1.645   5.830 -1.0193 -0.0330 -0.1046
 6123TIP3    H139860   2.606   1.636   5.777 -1.3835 -1.0164 -0.4990
 6123TIP3    H239861   2.540   1.727   5.877  0.8025 -0.7442  0.7620
 6124TIP3   OH239862   6.104   4.184   3.670  0.0492  0.1600  0.5611
 6124TIP3    H139863   6.166   4.256   3.656 -0.8928  1.0520  0.7732
 6124TIP3    H239864   6.155   4.116   3.714  0.6696  1.2441  1.5907
 6125TIP3   OH239865   3.778   4.158   1.735  0.1884 -0.3880  0.0090
 6125TIP3    H139866   3.852   4.217   1.722  0.1244 -0.4299 -0.5512
 6125TIP3    H239867   3.774   4.105   1.655 -0.9074  0.1161 -0.2891
 6126TIP3   OH239868   2.994   6.600   1.530 -0.4441  0.0248  0.4787
 6126TIP3    H139869   3.040   6.620   1.612 -0.1812  0.6921  0.1786
 6126TIP3    H239870   2.913   6.651   1.534 -0.0580  0.7037 -0.0180
 6127TIP3   OH239871   6.092   1.692  16.158  0.2809  1.1826  0.1292
 6127TIP3    H139872   6.172   1.743  16.143  0.0857  1.7863  1.0544
 6127TIP3    H239873   6.092   1.675  16.252 -1.0678  1.8547  0.2632
 6128TIP3   OH239874   1.754   3.479  12.098  0.9243  0.2273 -0.0982
 6128TIP3    H139875   1.708   3.395  12.090  0.2589  0.6494 -0.8766
 6128TIP3    H239876   1.822   3.476  12.030  1.2109  0.1275  0.1921
 6129TIP3   OH239877   6.476   1.684   4.481 -0.6177 -0.3644  0.4364
 6129TIP3    H139878   6.461   1.600   4.437 -3.0772 -0.9747  2.1636
 6129TIP3    H239879   6.388   1.719   4.494  0.3479  2.7688 -0.6107
 6130TIP3   OH239880   2.124   4.434   1.450  0.0019  0.4887 -0.4866
 6130TIP3    H139881   2.107   4.473   1.536 -0.0550  1.7993 -1.0661
 6130TIP3    H239882   2.172   4.354   1.470  0.4228  1.0125  0.7513
 6131TIP3   OH239883   6.269   2.773   4.863 -0.2409  0.1562 -0.2381
 6131TIP3    H139884   6.319   2.692   4.872 -1.8057 -0.9936 -1.3225
 6131TIP3    H239885   6.302   2.812   4.781 -2.1230 -1.4487 -1.8731
 6132TIP3   OH239886   5.020   1.703   0.746  0.3515  0.1156 -0.3679
 6132TIP3    H139887   5.063   1.765   0.687 -1.5281  2.0774  0.1760
 6132TIP3    H239888   5.060   1.719   0.831 -0.0029  0.4897 -0.2655
 6133TIP3   OH239889   5.209   0.595  12.737 -0.0874 -0.5559 -0.3479
 6133TIP3    H139890   5.243   0.590  12.648 -0.1964 -0.4053 -0.3989
 6133TIP3    H239891   5.128   0.645  12.728  0.3392  0.1983 -0.0395
 6134TIP3   OH239892   4.361   1.609   5.278 -0.0326 -0.2319  0.0888
 6134TIP3    H139893   4.392   1.560   5.354 -0.6596 -0.3029  0.3037
 6134TIP3    H239894   4.330   1.691   5.313  0.3773  0.0498 -0.1911
 6135TIP3   OH239895   2.263   2.750  15.206 -0.0076 -0.4654  0.2804
 6135TIP3    H139896   2.188   2.693  15.188 -0.1677 -0.1220 -0.1562
 6135TIP3    H239897   2.228   2.839  15.199  0.2824 -0.3044  0.7670
 6136TIP3   OH239898   5.147   4.767  17.028 -0.0619  0.6595  0.1521
 6136TIP3    H139899   5.232   4.806  17.004 -0.1634  0.6128 -0.3012
 6136TIP3    H239900   5.087   4.799  16.961  0.1965 -1.6123 -1.2601
 6137TIP3   OH239901   2.324   6.260  13.208 -0.0397 -0.4131 -0.3586
 6137TIP3    H139902   2.381   6.265  13.284  0.9474 -1.3541 -1.0053
 6137TIP3    H239903   2.235   6.267  13.244  0.4605  1.6591  0.5982
 6138TIP3   OH239904   3.795   4.764  16.841 -0.7262  0.2757 -0.1470
 6138TIP3    H139905   3.846   4.804  16.770 -0.6301 -0.7315 -0.6597
 6138TIP3    H239906   3.848   4.690  16.870 -1.3439 -0.0627  0.1256
 6139TIP3   OH239907   4.265   3.785  11.994  0.1983  0.8772  0.1443
 6139TIP3    H139908   4.304   3.697  11.994  1.1975  1.2975  0.0279
 6139TIP3    H239909   4.229   3.796  12.081  1.6947  1.0116  0.7828
 6140TIP3   OH239910   0.717   0.988   0.890 -0.2698  0.2296  0.3408
 6140TIP3    H139911   0.741   0.990   0.798  0.4553 -2.2976  0.3951
 6140TIP3    H239912   0.774   0.921   0.928 -2.7472 -1.1023  1.9403
 6141TIP3   OH239913   1.278   0.860  17.251 -0.1411 -0.0298 -0.3052
 6141TIP3    H139914   1.337   0.911  17.307  1.7222 -2.5596  0.2653
 6141TIP3    H239915   1.221   0.814  17.312  1.1381 -1.9132 -0.4256
 6142TIP3   OH239916   6.005   0.476   2.270 -0.6446  0.2188 -0.1217
 6142TIP3    H139917   6.038   0.524   2.194 -2.0280  0.9084 -0.3155
 6142TIP3    H239918   6.074   0.413   2.290 -0.3170 -0.1047 -2.0668
 6143TIP3   OH239919   2.981   6.069  12.745  0.0480  0.4728  0.4070
 6143TIP3    H139920   2.892   6.068  12.782  0.3843  0.4715  1.2340
 6143TIP3    H239921   2.972   6.023  12.661 -0.4305 -1.0024  1.2138
 6144TIP3   OH239922   5.824   1.427  12.933 -0.5176 -0.2809 -0.0792
 6144TIP3    H139923   5.842   1.517  12.908  1.4004 -0.0442  1.8427
 6144TIP3    H239924   5.865   1.374  12.865  1.2478  0.3346  0.4564
 6145TIP3   OH239925   1.142   0.712  15.750 -0.2773 -0.1043  0.0878
 6145TIP3    H139926   1.137   0.621  15.719  0.7411 -0.3727  0.6583
 6145TIP3    H239927   1.218   0.749  15.704  1.6084 -0.6718  2.5317
 6146TIP3   OH239928   2.479   6.451  14.120 -0.3793 -0.1422 -0.0067
 6146TIP3    H139929   2.489   6.368  14.166 -2.2680 -0.0522  0.6868
 6146TIP3    H239930   2.483   6.517  14.189  1.6183  0.4273 -0.6102
 6147TIP3   OH239931   5.107   0.119   2.993  0.6169 -0.5520  0.0651
 6147TIP3    H139932   5.029   0.065   2.980  1.0814 -1.0508 -0.7675
 6147TIP3    H239933   5.179   0.055   3.000  1.0185 -0.0806  0.2719
 6148TIP3   OH239934   4.700   0.903   3.208  0.2247  0.6811  0.3095
 6148TIP3    H139935   4.667   0.829   3.157  2.0457 -1.5917  2.1626
 6148TIP3    H239936   4.633   0.918   3.275  0.0071  0.4539  0.1431
 6149TIP3   OH239937   0.547   0.776  15.686  0.1457  0.3811  0.0864
 6149TIP3    H139938   0.549   0.835  15.762  0.1062 -0.5949  0.8602
 6149TIP3    H239939   0.464   0.798  15.642  0.1036  0.8604  0.3953
 6150TIP3   OH239940   4.183   6.251  12.156  0.3405 -0.4340 -0.0632
 6150TIP3    H139941   4.125   6.232  12.230  0.3855  3.0079  0.9897
 6150TIP3    H239942   4.147   6.198  12.084  0.1587 -3.7454  2.2083
 6151TIP3   OH239943   4.601   2.020   5.457 -0.2486  0.4693 -0.2851
 6151TIP3    H139944   4.619   1.971   5.537 -2.9668 -1.6769 -0.8207
 6151TIP3    H239945   4.622   2.110   5.478  0.4220 -0.2261  2.3722
 6152TIP3   OH239946   2.822   6.050   2.090  0.3906 -0.1208  0.0205
 6152TIP3    H139947   2.903   6.038   2.139  0.6914  1.5931  0.0061
 6152TIP3    H239948   2.755   6.011   2.146  1.1588 -1.3393  0.1478
 6153TIP3   OH239949   2.915   0.842  16.662  0.7683 -0.0604 -0.2736
 6153TIP3    H139950   2.959   0.825  16.746 -1.7181 -0.9916  0.9464
 6153TIP3    H239951   2.845   0.777  16.659 -1.0034  1.7991 -1.7118
 6154TIP3   OH239952   6.009   0.902  13.071  0.4022 -0.0246  0.0911
 6154TIP3    H139953   5.916   0.880  13.074  0.2626  0.4290 -0.8502
 6154TIP3    H239954   6.029   0.912  12.978  0.8728  2.0649  0.3653
 6155TIP3   OH239955   6.699   6.082  12.920  0.2803  0.1680 -0.5483
 6155TIP3    H139956   6.730   5.995  12.946 -0.2419  0.0855 -0.2067
 6155TIP3    H239957   6.691   6.076  12.825  0.4126 -0.1000 -0.5443
 6156TIP3   OH239958   0.781   3.807  14.955  0.5506 -0.0627  0.0917
 6156TIP3    H139959   0.801   3.722  14.916 -1.0697 -1.3926  1.9720
 6156TIP3    H239960   0.701   3.836  14.911 -0.0212 -0.5100  0.7976
 6157TIP3   OH239961   0.596   5.020  11.220 -0.0080  0.1341 -0.7302
 6157TIP3    H139962   0.530   4.987  11.282 -1.2696  0.7434 -1.6962
 6157TIP3    H239963   0.546   5.038  11.140  1.6493 -1.0169 -2.0835
 6158TIP3   OH239964   3.785   1.678   6.361  0.5480  0.0608  0.0268
 6158TIP3    H139965   3.758   1.768   6.345  1.4297  0.7772  2.3124
 6158TIP3    H239966   3.776   1.666   6.455  2.1915 -1.6636  0.0193
 6159TIP3   OH239967   3.432   1.680  14.579  0.3795 -0.3331  0.0790
 6159TIP3    H139968   3.367   1.693  14.510 -0.0258 -2.7884 -0.0992
 6159TIP3    H239969   3.387   1.709  14.659  0.1290  0.6637 -0.4087
 6160TIP3   OH239970   0.416   0.280  12.748  0.0395  0.0123 -0.0882
 6160TIP3    H139971   0.474   0.347  12.712  0.8246 -0.0327  1.0388
 6160TIP3    H239972   0.379   0.236  12.672  0.2363  1.1070 -0.8415
 6161TIP3   OH239973   5.449   0.432   2.185 -0.0793 -0.2895  0.4367
 6161TIP3    H139974   5.539   0.452   2.208 -0.3012  0.8198  0.4062
 6161TIP3    H239975   5.397   0.478   2.250 -0.6346 -0.8250  0.3857
 6162TIP3   OH239976   3.335   0.164   2.589  0.6635 -0.0006 -0.1457
 6162TIP3    H139977   3.383   0.163   2.506  1.0578  0.5225  0.0777
 6162TIP3    H239978   3.396   0.125   2.652  0.3709 -0.3787 -0.0899
 6163TIP3   OH239979   4.002   2.225  16.021  0.2568 -0.1726  0.1545
 6163TIP3    H139980   4.068   2.231  15.952 -1.0257  0.8394 -1.0500
 6163TIP3    H239981   3.966   2.137  16.013 -1.1153  0.4909 -1.7248
 6164TIP3   OH239982   6.620   2.752  12.401  0.2630  0.0481  0.2024
 6164TIP3    H139983   6.539   2.778  12.444  0.5059 -0.4101  0.9632
 6164TIP3    H239984   6.681   2.824  12.420 -0.0262  0.5048 -0.5716
 6165TIP3   OH239985   6.250   3.598   1.261 -0.4138  0.4222  0.1788
 6165TIP3    H139986   6.334   3.552   1.255 -0.4957  0.4285 -1.5258
 6165TIP3    H239987   6.191   3.548   1.204 -1.0614  1.4817 -0.1180
 6166TIP3   OH239988   0.457   1.249  14.173  0.7449  0.6210 -0.5232
 6166TIP3    H139989   0.409   1.329  14.154 -3.4209 -1.1419  1.3891
 6166TIP3    H239990   0.433   1.189  14.102 -1.1153 -0.6946  1.1326
 6167TIP3   OH239991   1.764   0.472   5.672 -0.4390 -0.2132 -0.1078
 6167TIP3    H139992   1.842   0.527   5.670  1.5649 -2.8368 -0.0633
 6167TIP3    H239993   1.736   0.468   5.580  1.3433 -1.5803 -0.6521
 6168TIP3   OH239994   5.268   3.607   2.998  0.0191 -0.2212 -0.3766
 6168TIP3    H139995   5.246   3.580   3.087  0.0180 -0.1457 -0.3536
 6168TIP3    H239996   5.183   3.630   2.958 -0.0522 -0.8892 -0.6107
 6169TIP3   OH239997   1.770   2.633  16.973 -0.1550  0.0888  0.1758
 6169TIP3    H139998   1.758   2.641  17.067  0.2027 -1.5971  0.3863
 6169TIP3    H239999   1.770   2.724  16.941 -1.6576  0.6397  1.5983
 6170TIP3   OH240000   1.164   6.129  14.706 -0.1373  0.2395  0.1625
 6170TIP3    H140001   1.184   6.222  14.716 -0.3854  0.3766 -0.5742
 6170TIP3    H240002   1.094   6.113  14.769  0.5742  0.3189  0.9939
 6171TIP3   OH240003   3.547   1.384   0.442  0.2861  0.6969 -0.0227
 6171TIP3    H140004   3.564   1.314   0.378 -0.4430 -0.7103  1.2489
 6171TIP3    H240005   3.474   1.434   0.405  1.1057  1.0946 -1.1635
 6172TIP3   OH240006   1.263   6.420  13.828  0.1272 -0.2848  0.6160
 6172TIP3    H140007   1.197   6.355  13.851 -0.0306 -0.2410  0.2973
 6172TIP3    H240008   1.297   6.451  13.912  0.4135 -0.9878  0.7630
 6173TIP3   OH240009   2.053   6.067   5.159  0.1560 -0.3953 -0.2320
 6173TIP3    H140010   2.001   6.088   5.082  2.1279 -0.9684 -1.8303
 6173TIP3    H240011   2.068   6.151   5.202 -0.7626 -0.0291 -0.6055
 6174TIP3   OH240012   3.519   1.376  15.322 -0.1215 -0.6831 -0.3774
 6174TIP3    H140013   3.489   1.303  15.376  2.2206 -0.7735  0.9246
 6174TIP3    H240014   3.472   1.452  15.357 -0.8271 -1.2054 -0.1757
 6175TIP3   OH240015   2.599   0.583  14.148  0.1174 -0.1964  0.1208
 6175TIP3    H140016   2.641   0.658  14.190 -0.5681  1.2827 -1.6898
 6175TIP3    H240017   2.507   0.610  14.140 -0.1216 -1.2135 -0.6398
 6176TIP3   OH240018   1.923   0.692   3.370 -0.6838 -0.4019  0.6854
 6176TIP3    H140019   1.892   0.774   3.408  0.6367  1.0417 -1.1454
 6176TIP3    H240020   1.993   0.662   3.428 -1.8089 -0.7898  1.8855
 6177TIP3   OH240021   1.466   0.178  12.205  0.0948  0.5203  0.0997
 6177TIP3    H140022   1.461   0.159  12.299  0.1575  0.8629  0.1747
 6177TIP3    H240023   1.413   0.256  12.193 -1.9512 -0.8776 -0.5606
 6178TIP3   OH240024   4.419   3.738  10.904 -0.6138 -0.2625 -0.3271
 6178TIP3    H140025   4.408   3.833  10.904  0.4964 -0.1039  0.7063
 6178TIP3    H240026   4.486   3.722  10.838  1.9703  0.1243  2.0164
 6179TIP3   OH240027   5.174   4.707  11.456  0.8592 -0.0212  0.0323
 6179TIP3    H140028   5.207   4.709  11.546  1.2781 -2.4889  0.0079
 6179TIP3    H240029   5.234   4.764  11.408  0.5316  1.4691  1.3060
 6180TIP3   OH240030   5.103   1.847  15.366  0.1582  0.9050  0.1386
 6180TIP3    H140031   5.011   1.832  15.386  0.1228 -1.9957 -1.5680
 6180TIP3    H240032   5.104   1.863  15.271  1.4980 -1.3248 -0.3016
 6181TIP3   OH240033   4.264   1.019   5.131 -0.2093 -0.2969 -0.7365
 6181TIP3    H140034   4.282   1.094   5.075  0.7391 -0.9635 -1.3424
 6181TIP3    H240035   4.348   0.973   5.139  0.2425  0.7937  2.7956
 6182TIP3   OH240036   0.800   2.822  16.829  0.2038 -0.3020 -0.0209
 6182TIP3    H140037   0.880   2.842  16.780  0.5114 -0.9276  0.2075
 6182TIP3    H240038   0.821   2.845  16.919  0.0689 -0.2994  0.0101
 6183TIP3   OH240039   0.303   4.734  17.051 -0.9052 -0.2437 -0.0434
 6183TIP3    H140040   0.387   4.776  17.070 -0.6769 -0.9648  0.6381
 6183TIP3    H240041   0.243   4.772  17.115 -1.1955  0.5254 -0.7551
 6184TIP3   OH240042   2.846   6.522   3.699 -0.1059  0.3015 -0.3051
 6184TIP3    H140043   2.902   6.596   3.677  0.9730  0.2383  2.0052
 6184TIP3    H240044   2.878   6.451   3.644  2.2225  0.2430  1.0127
 6185TIP3   OH240045   2.407   1.571  14.297 -0.3396  0.0615  0.1449
 6185TIP3    H140046   2.475   1.555  14.363 -0.7035  1.2147  0.8341
 6185TIP3    H240047   2.455   1.608  14.222 -0.0774 -0.0985  0.2315
 6186TIP3   OH240048   4.569   4.297  16.401  0.3390  0.4051 -0.0161
 6186TIP3    H140049   4.497   4.337  16.352 -0.0241 -1.6276 -1.2133
 6186TIP3    H240050   4.645   4.352  16.382 -0.1909  0.6753 -1.4208
 6187TIP3   OH240051   5.172   4.159  15.558  0.2518  0.3056 -0.3023
 6187TIP3    H140052   5.095   4.147  15.613 -0.5083  2.2276 -0.8560
 6187TIP3    H240053   5.140   4.207  15.481  1.8797  0.5747 -0.8665
 6188TIP3   OH240054   1.893   6.648   2.788  0.5002 -0.5614  0.1149
 6188TIP3    H140055   1.961   6.714   2.773 -2.3953  2.8183  0.6001
 6188TIP3    H240056   1.879   6.607   2.703  0.3919  1.6126 -0.9815
 6189TIP3   OH240057   0.500   2.537   3.756  0.0516 -0.2178  0.6376
 6189TIP3    H140058   0.503   2.495   3.842  0.7014  0.4133  0.9301
 6189TIP3    H240059   0.532   2.626   3.771 -0.0401 -0.0300 -0.2178
 6190TIP3   OH240060   6.681   4.019   1.679  0.4924 -0.1576  0.1933
 6190TIP3    H140061   6.665   4.077   1.604 -0.9037  1.4901  1.6734
 6190TIP3    H240062   6.639   3.937   1.654  0.0929  0.3471 -0.8611
 6191TIP3   OH240063   0.603   4.263  11.343 -0.0225 -0.1183  0.0907
 6191TIP3    H140064   0.612   4.175  11.307  0.2067 -0.1674  0.2603
 6191TIP3    H240065   0.616   4.321  11.268  1.2930 -0.1992  0.2203
 6192TIP3   OH240066   2.650   4.643  17.441 -0.0351  0.2819  0.0083
 6192TIP3    H140067   2.636   4.695  17.362 -2.9347  0.2414  0.3891
 6192TIP3    H240068   2.686   4.560  17.409 -2.4490 -0.2925 -1.5594
 6193TIP3   OH240069   6.604   0.413  13.504 -0.2632 -0.1910 -0.2101
 6193TIP3    H140070   6.603   0.361  13.584  0.4753  2.9404  1.9794
 6193TIP3    H240071   6.665   0.484  13.521 -0.2737  0.7710 -3.4894
 6194TIP3   OH240072   2.096   1.425  12.614 -0.3023 -0.0149  0.5160
 6194TIP3    H140073   2.056   1.425  12.701 -2.0255 -3.3035 -0.1029
 6194TIP3    H240074   2.036   1.373  12.560  2.6506 -1.5097 -1.6318
 6195TIP3   OH240075   4.898   2.247   4.493  0.9760 -0.0917 -0.0606
 6195TIP3    H140076   4.832   2.267   4.427  0.2478 -0.5533  0.5167
 6195TIP3    H240077   4.892   2.153   4.505 -1.5318  0.3096  3.3082
 6196TIP3   OH240078   3.295   1.174  13.042 -0.7487 -0.3636 -0.3477
 6196TIP3    H140079   3.334   1.098  12.998 -0.2234 -0.3628  0.1138
 6196TIP3    H240080   3.201   1.161  13.032 -0.6861 -1.4219  0.2792
 6197TIP3   OH240081   5.829   4.445  13.577  0.5045 -0.1231 -0.1754
 6197TIP3    H140082   5.806   4.535  13.600 -0.2066 -0.4631  0.4734
 6197TIP3    H240083   5.818   4.396  13.658  1.9374 -0.6168 -0.2458
 6198TIP3   OH240084   6.312   5.011   2.658 -0.6502  0.6589  0.3613
 6198TIP3    H140085   6.294   4.986   2.567  0.3809 -0.2165  0.3847
 6198TIP3    H240086   6.314   4.928   2.706  1.0692  0.8958  0.7641
 6199TIP3   OH240087   0.899   0.364  15.165  0.2987  0.1831  0.2209
 6199TIP3    H140088   0.898   0.360  15.069  2.0690  0.9531  0.1423
 6199TIP3    H240089   0.942   0.282  15.191 -4.2235 -2.3939  0.6716
 6200TIP3   OH240090   2.303   5.684  14.445 -0.0670  0.0819 -0.4062
 6200TIP3    H140091   2.246   5.682  14.368 -1.2160  0.0372  0.4328
 6200TIP3    H240092   2.257   5.632  14.511 -0.7065  2.7229  1.3892
 6201TIP3   OH240093   1.815   2.579  13.053  0.1691 -0.2916 -0.6170
 6201TIP3    H140094   1.760   2.634  13.109 -2.2622 -1.4006 -1.7458
 6201TIP3    H240095   1.862   2.523  13.114 -0.2495  0.4346  0.4059
 6202TIP3   OH240096   4.951   5.454  14.325  0.5129 -0.3447  0.0505
 6202TIP3    H140097   5.000   5.403  14.389 -1.3952 -1.1746  0.9589
 6202TIP3    H240098   4.893   5.390  14.282 -0.5676  0.7193 -0.1446
 6203TIP3   OH240099   6.602   3.867   4.322  0.5855  0.0439 -0.0650
 6203TIP3    H140100   6.627   3.928   4.252 -0.6306  0.0774 -0.4908
 6203TIP3    H240101   6.625   3.781   4.288  0.2729  0.0842 -0.3740
 6204TIP3   OH240102   6.527   6.299   5.743 -0.1962 -0.2074  0.1676
 6204TIP3    H140103   6.552   6.383   5.782  0.9442 -0.0701 -0.8048
 6204TIP3    H240104   6.601   6.274   5.689 -0.1779 -2.2570  1.0286
 6205TIP3   OH240105   3.098   0.783  14.604 -0.1545  0.1465  0.1621
 6205TIP3    H140106   3.188   0.774  14.573 -1.0111  1.6774 -3.1873
 6205TIP3    H240107   3.059   0.697  14.593  0.5834 -0.2353  0.5265
 6206TIP3   OH240108   2.996   4.419   0.136 -0.1418  0.1440 -0.9336
 6206TIP3    H140109   2.913   4.465   0.149  0.0692  0.2911 -0.0913
 6206TIP3    H240110   3.055   4.455   0.202  0.3923 -0.4519 -1.0736
 6207TIP3   OH240111   2.637   5.369  12.963 -0.7982  0.2416  0.1440
 6207TIP3    H140112   2.568   5.422  13.002 -0.8405  0.5921 -0.3912
 6207TIP3    H240113   2.606   5.353  12.873  0.2332  1.1810 -0.3977
 6208TIP3   OH240114   1.494   4.333  14.258  0.6600 -0.0884 -0.0450
 6208TIP3    H140115   1.406   4.364  14.276  1.0348  1.2224 -0.3967
 6208TIP3    H240116   1.534   4.322  14.344 -0.2879 -2.1497  0.2015
 6209TIP3   OH240117   0.812   2.557  11.422 -0.0204  0.1809 -0.4155
 6209TIP3    H140118   0.767   2.633  11.458  1.1438  0.9703 -0.5655
 6209TIP3    H240119   0.834   2.582  11.333  1.1709  0.0424 -0.1781
 6210TIP3   OH240120   2.821   1.429   0.465  0.0583 -0.1347 -0.0191
 6210TIP3    H140121   2.786   1.363   0.405 -1.0128 -1.7889  2.2387
 6210TIP3    H240122   2.769   1.507   0.448  0.2889 -0.3240 -1.7149
 6211TIP3   OH240123   2.927   5.070  12.709 -0.1155 -0.0681 -0.2024
 6211TIP3    H140124   2.917   4.995  12.766  1.1165  1.2152  1.8380
 6211TIP3    H240125   2.996   5.045  12.648 -2.6956 -2.1492 -2.5106
 6212TIP3   OH240126   3.810   0.796  13.477  0.3244  0.2514 -0.6098
 6212TIP3    H140127   3.869   0.771  13.406  0.1744 -0.2076 -0.5734
 6212TIP3    H240128   3.868   0.816  13.550  0.5487  1.7835 -1.1651
 6213TIP3   OH240129   6.725   3.973   4.078  0.4881 -0.8005  0.8576
 6213TIP3    H140130   6.715   4.000   3.986  0.4011  0.8399  1.3187
 6213TIP3    H240131   6.812   4.003   4.103  0.1195 -0.3226  1.5980
 6214TIP3   OH240132   1.142   4.938   2.059 -0.2827  0.1820  0.4147
 6214TIP3    H140133   1.235   4.962   2.061 -0.0871 -0.4848 -0.3496
 6214TIP3    H240134   1.138   4.852   2.101 -0.7784  0.8401  1.7872
 6215TIP3   OH240135   0.848   5.575  15.595  0.1960  0.4935  0.0451
 6215TIP3    H140136   0.809   5.649  15.549 -3.0441 -0.3134  1.1808
 6215TIP3    H240137   0.821   5.498  15.545  1.2569 -0.0999  0.3350
 6216TIP3   OH240138   1.224   6.550  12.173  0.2301  0.5010 -0.2058
 6216TIP3    H140139   1.283   6.501  12.231 -0.8144 -1.5295 -0.7436
 6216TIP3    H240140   1.203   6.487  12.104 -1.3162  1.7045 -0.8641
 6217TIP3   OH240141   5.363   1.331  14.878  0.4644  0.0828 -0.1239
 6217TIP3    H140142   5.379   1.251  14.829  0.2782 -0.8878  1.3527
 6217TIP3    H240143   5.324   1.391  14.814 -0.5350 -1.4106 -0.9789
 6218TIP3   OH240144   5.515   1.672   2.905 -0.0553  0.3679  0.5848
 6218TIP3    H140145   5.584   1.622   2.950  0.2586  0.1099 -0.1556
 6218TIP3    H240146   5.469   1.718   2.974 -0.4923 -1.1288  1.3212
 6219TIP3   OH240147   1.765   3.489  13.250 -0.1105  0.7570 -0.1848
 6219TIP3    H140148   1.846   3.442  13.271  0.5024 -0.1506 -3.8899
 6219TIP3    H240149   1.696   3.430  13.278  0.5599  0.0928  0.1215
 6220TIP3   OH240150   2.314   6.193   0.899  0.2503 -0.0766  0.4056
 6220TIP3    H140151   2.386   6.252   0.876  0.8510 -1.0353 -0.2814
 6220TIP3    H240152   2.356   6.109   0.917 -0.6301 -0.4587  0.7653
 6221TIP3   OH240153   1.238   2.256  10.635  0.0836  0.2154 -0.1163
 6221TIP3    H140154   1.305   2.295  10.691 -1.0377  2.2461 -0.0786
 6221TIP3    H240155   1.157   2.267  10.684 -0.5243 -0.5939 -0.9077
 6222TIP3   OH240156   3.180   2.478  12.951  0.0709  0.1840  0.2722
 6222TIP3    H140157   3.185   2.571  12.929  2.0114 -0.0760 -0.5655
 6222TIP3    H240158   3.271   2.447  12.949 -0.5438 -1.8064  0.2517
 6223TIP3   OH240159   1.240   1.406   0.369 -0.6733 -0.2465 -0.1340
 6223TIP3    H140160   1.159   1.457   0.360 -0.7412  0.0721  1.8838
 6223TIP3    H240161   1.309   1.472   0.377 -0.4514 -0.5035  0.0903
 6224TIP3   OH240162   5.895   3.132   6.845  0.2624 -0.1216 -0.4292
 6224TIP3    H140163   5.938   3.196   6.788 -0.0618 -0.8850 -1.5535
 6224TIP3    H240164   5.802   3.151   6.836  0.2058 -0.2858 -0.1941
 6225TIP3   OH240165   0.952   2.063   4.814  0.3762 -0.1676 -0.3892
 6225TIP3    H140166   1.020   2.131   4.811 -0.3508  0.5743 -0.7047
 6225TIP3    H240167   0.870   2.113   4.819 -0.1053 -1.0355  1.2915
 6226TIP3   OH240168   1.620   3.922   2.549 -0.2060 -0.2544  0.0681
 6226TIP3    H140169   1.566   3.853   2.587 -2.3049  1.6983  0.9065
 6226TIP3    H240170   1.560   3.997   2.540  1.6844  1.1584 -1.7297
 6227TIP3   OH240171   1.355   5.222   0.415 -0.0935  0.5899 -0.1946
 6227TIP3    H140172   1.382   5.131   0.401 -0.5475  0.3109  0.6417
 6227TIP3    H240173   1.283   5.235   0.352  1.2055  0.9921 -1.6537
 6228TIP3   OH240174   2.830   2.479  16.378 -0.0017 -0.4492 -0.1224
 6228TIP3    H140175   2.748   2.527  16.393 -0.3113 -1.1267  0.4248
 6228TIP3    H240176   2.897   2.534  16.417 -0.3693 -0.4957  0.5953
 6229TIP3   OH240177   5.028   0.823  14.980  0.3922 -0.2352 -0.0108
 6229TIP3    H140178   5.033   0.794  14.889  1.0568  1.3174 -0.5034
 6229TIP3    H240179   5.052   0.916  14.977 -0.6391  0.1272  1.6137
 6230TIP3   OH240180   1.339   0.451   3.957  0.4815 -0.1372 -0.9198
 6230TIP3    H140181   1.259   0.427   3.909 -0.6566  0.2700  0.6692
 6230TIP3    H240182   1.393   0.496   3.893 -0.1833 -1.2082 -2.2686
 6231TIP3   OH240183   4.818   0.689  11.379  0.9131 -0.4305  0.5574
 6231TIP3    H140184   4.889   0.636  11.415  1.4933  0.8948  1.4285
 6231TIP3    H240185   4.860   0.770  11.351 -0.4365  1.0733  2.5934
 6232TIP3   OH240186   4.772   1.085   4.434 -0.1869  0.3967  0.0691
 6232TIP3    H140187   4.727   1.164   4.405  0.4760  0.7002 -0.1633
 6232TIP3    H240188   4.784   1.033   4.354  0.0453  0.4091  0.0940
 6233TIP3   OH240189   3.245   2.298  14.551  0.0437 -0.2533 -0.0179
 6233TIP3    H140190   3.318   2.360  14.547 -1.6710  1.9310  0.7189
 6233TIP3    H240191   3.171   2.346  14.514 -1.0364 -2.4493 -0.8842
 6234TIP3   OH240192   3.606   4.121   3.346  0.5628 -0.3743  0.2919
 6234TIP3    H140193   3.526   4.082   3.383  0.6233 -0.1701  0.6350
 6234TIP3    H240194   3.586   4.214   3.337  0.9145 -0.2463  0.7883
 6235TIP3   OH240195   5.582   5.075   5.151 -0.6851  0.4493  0.4991
 6235TIP3    H140196   5.675   5.072   5.131 -0.5117  1.5205  1.0784
 6235TIP3    H240197   5.549   4.989   5.125  0.7663 -0.5736  1.8494
 6236TIP3   OH240198   2.839   6.151   4.312 -0.0974 -0.1506 -0.0043
 6236TIP3    H140199   2.780   6.076   4.311  1.0249 -1.1147  1.2938
 6236TIP3    H240200   2.920   6.119   4.272  0.1810  0.5816 -0.0501
 6237TIP3   OH240201   1.722   5.388   1.300  0.1288  0.3133 -0.4519
 6237TIP3    H140202   1.789   5.373   1.233  1.9096  3.0996  0.5262
 6237TIP3    H240203   1.732   5.314   1.361  0.4672 -0.6859 -1.6668
 6238TIP3   OH240204   2.836   2.127   3.329  0.0634 -0.5280 -0.0389
 6238TIP3    H140205   2.810   2.118   3.237  1.0208 -0.6184 -0.3150
 6238TIP3    H240206   2.800   2.211   3.356 -0.4215 -0.6042 -0.4249
 6239TIP3   OH240207   5.157   5.099   4.349  0.4334 -0.2107  0.2351
 6239TIP3    H140208   5.119   5.175   4.303  0.6533 -1.0160 -1.3570
 6239TIP3    H240209   5.083   5.060   4.395 -0.0754 -0.0926 -0.4631
 6240TIP3   OH240210   6.612   1.325   0.008 -0.0631  0.4923  0.0743
 6240TIP3    H140211   6.638   1.401   0.059  0.6316 -0.4068  1.0975
 6240TIP3    H240212   6.676   1.257   0.031  0.0322 -0.0814 -1.6726
 6241TIP3   OH240213   0.513   4.004  11.722 -0.1341 -0.6704 -0.5054
 6241TIP3    H140214   0.576   4.074  11.704 -1.3780  0.7103  0.2717
 6241TIP3    H240215   0.435   4.029  11.673 -0.8174 -1.1629  0.3007
 6242TIP3   OH240216   1.472   4.838  14.343 -0.0634  0.1299  0.3319
 6242TIP3    H140217   1.385   4.856  14.307  0.3847  0.9283 -0.4038
 6242TIP3    H240218   1.463   4.754  14.388 -1.4590  0.7009  1.1557
 6243TIP3   OH240219   1.518   4.547  16.332  0.4681 -0.0049 -0.5780
 6243TIP3    H140220   1.459   4.525  16.260  0.8327 -0.2420 -0.8093
 6243TIP3    H240221   1.517   4.469  16.388  0.0874  0.2266 -0.2542
 6244TIP3   OH240222   1.213   0.069  16.259 -0.9182 -0.0658 -0.1862
 6244TIP3    H140223   1.302   0.056  16.226 -0.3703 -1.6514  1.7261
 6244TIP3    H240224   1.225   0.113  16.343 -1.7974 -1.5588  0.7773
 6245TIP3   OH240225   1.748   4.823   6.120 -0.2255 -0.0994 -0.5475
 6245TIP3    H140226   1.690   4.825   6.196  0.1330  0.3659 -0.2819
 6245TIP3    H240227   1.747   4.913   6.087 -1.2000 -0.5086 -1.7340
 6246TIP3   OH240228   0.840   4.293  15.936  0.1054 -0.8847  0.4459
 6246TIP3    H140229   0.761   4.243  15.918  0.5488 -1.6197  0.4908
 6246TIP3    H240230   0.886   4.242  16.003  0.3371 -0.1712  0.8400
 6247TIP3   OH240231   6.332   3.181   1.266  0.2553  0.5950 -0.0486
 6247TIP3    H140232   6.348   3.130   1.346 -1.7090  1.0904  0.7164
 6247TIP3    H240233   6.367   3.126   1.195  1.1445 -0.2935  1.0455
 6248TIP3   OH240234   6.416   3.294  15.226 -0.1188  0.0282  0.0664
 6248TIP3    H140235   6.440   3.267  15.137  0.5169 -1.5594  0.7018
 6248TIP3    H240236   6.321   3.309  15.221  0.1455  1.5402 -1.2461
 6249TIP3   OH240237   2.287   3.971   0.068 -0.0925 -0.3793  1.0438
 6249TIP3    H140238   2.347   4.027   0.019 -0.3077  1.6028  2.9226
 6249TIP3    H240239   2.225   3.940   0.002  0.8465  0.4797 -0.2997
 6250TIP3   OH240240   0.263   3.401  16.318  0.7145 -0.2473  0.0938
 6250TIP3    H140241   0.342   3.442  16.284  0.1903  0.7237  0.0252
 6250TIP3    H240242   0.292   3.354  16.396  1.3364  0.2135  0.1439
 6251TIP3   OH240243   1.944   2.920   4.538 -0.1484  0.1226 -0.8987
 6251TIP3    H140244   1.950   2.827   4.516  1.7619 -0.7498  2.5282
 6251TIP3    H240245   2.032   2.953   4.524 -0.1786  0.7474  0.2758
 6252TIP3   OH240246   1.390   6.608   4.947 -0.4144 -0.3045  0.5405
 6252TIP3    H140247   1.341   6.633   5.026 -1.0139  0.6569 -0.1081
 6252TIP3    H240248   1.411   6.691   4.905  1.9641 -0.6915  0.8705
 6253TIP3   OH240249   1.814   1.257  14.135 -0.0416 -0.1378  0.1999
 6253TIP3    H140250   1.787   1.349  14.143 -1.5230 -0.6585  1.7701
 6253TIP3    H240251   1.866   1.240  14.214 -0.1166 -0.7597  0.1206
 6254TIP3   OH240252   1.901   1.294  15.922 -0.9628 -0.0419 -0.2514
 6254TIP3    H140253   1.982   1.283  15.973 -1.0521  1.3158  0.2090
 6254TIP3    H240254   1.860   1.207  15.924 -0.0712 -0.4605  0.4774
 6255TIP3   OH240255   5.089   5.506   0.573 -0.2025 -0.1821 -0.0063
 6255TIP3    H140256   5.004   5.502   0.530  0.3162 -1.1022 -1.0212
 6255TIP3    H240257   5.121   5.594   0.557 -0.8767  0.1104  0.2272
 6256TIP3   OH240258   5.546   1.360   5.623  0.4040 -0.2444 -0.0158
 6256TIP3    H140259   5.627   1.309   5.621  0.3225 -0.3617 -2.0123
 6256TIP3    H240260   5.544   1.406   5.539 -3.3405 -3.0835 -1.7402
 6257TIP3   OH240261   3.893   6.220  11.053  0.2476 -0.0633  0.4633
 6257TIP3    H140262   3.984   6.192  11.037  0.0677 -1.4572  1.6452
 6257TIP3    H240263   3.840   6.162  10.998  0.0708  1.2287 -0.7829
 6258TIP3   OH240264   0.119   5.430   1.669  0.0652 -0.2531  0.0132
 6258TIP3    H140265   0.112   5.494   1.739  0.6000 -1.0674  0.8411
 6258TIP3    H240266   0.132   5.482   1.590  1.7328  0.6679  0.8225
 6259TIP3   OH240267   4.555   2.365   2.608  0.0649  0.5209 -0.1528
 6259TIP3    H140268   4.504   2.288   2.633  2.9058 -1.5834 -0.3286
 6259TIP3    H240269   4.587   2.344   2.520  1.1347  1.7549 -0.0834
 6260TIP3   OH240270   5.252   6.746  13.498 -0.3988  0.0461 -0.8050
 6260TIP3    H140271   5.167   6.722  13.534 -0.7264  0.5787 -1.2091
 6260TIP3    H240272   5.293   6.800  13.565  0.2730 -1.4559  0.0407
 6261TIP3   OH240273   4.405   6.374   3.126 -0.3688 -0.3078  0.1556
 6261TIP3    H140274   4.500   6.377   3.115 -0.2880  1.6474  0.9505
 6261TIP3    H240275   4.391   6.321   3.204  0.2425  1.1748  1.3186
 6262TIP3   OH240276   3.079   5.125   1.300 -0.6887  0.5953 -0.3399
 6262TIP3    H140277   2.985   5.118   1.319 -0.6005 -0.4118 -0.2124
 6262TIP3    H240278   3.085   5.121   1.205 -0.6430 -1.6011 -0.2886
 6263TIP3   OH240279   2.803   4.350  13.988  0.4151 -0.3946 -0.4060
 6263TIP3    H140280   2.737   4.417  13.967 -0.3551 -1.1310 -0.4122
 6263TIP3    H240281   2.876   4.369  13.930  0.3817  0.6955 -0.1102
 6264TIP3   OH240282   1.140   3.223   1.204 -0.2231  0.2935  0.5120
 6264TIP3    H140283   1.130   3.317   1.219  1.2770  0.4258  0.8635
 6264TIP3    H240284   1.081   3.182   1.267  0.8816  0.9864  2.0629
 6265TIP3   OH240285   2.339   3.247   1.741 -0.3009 -0.2777 -0.0757
 6265TIP3    H140286   2.397   3.188   1.693 -0.2837  1.5986 -2.5675
 6265TIP3    H240287   2.385   3.266   1.822  0.6152 -2.0634 -0.1487
 6266TIP3   OH240288   3.412   4.317   3.882 -0.0349 -0.4031  0.4898
 6266TIP3    H140289   3.417   4.299   3.788  0.3628 -1.6242  0.7361
 6266TIP3    H240290   3.401   4.412   3.887  1.4603 -0.1225 -0.7647
 6267TIP3   OH240291   4.099   2.683  16.741  0.0770 -0.4948 -0.1391
 6267TIP3    H140292   4.068   2.774  16.749  0.5058 -0.3568 -0.0078
 6267TIP3    H240293   4.127   2.675  16.650  1.4413 -0.0306  0.2125
 6268TIP3   OH240294   4.895   4.208  12.430  0.1455 -0.0033  0.0806
 6268TIP3    H140295   4.862   4.218  12.519  1.3245 -1.8054  0.7877
 6268TIP3    H240296   4.938   4.292  12.410 -1.4614  0.9782  0.5633
 6269TIP3   OH240297   0.970   3.604   2.973 -0.2350 -0.2111  0.1147
 6269TIP3    H140298   1.013   3.520   2.988 -0.0930 -0.3312 -0.9307
 6269TIP3    H240299   0.966   3.613   2.878 -1.3667  0.3996  0.2082
 6270TIP3   OH240300   6.529   6.473   2.212 -0.6048  0.4504 -0.6900
 6270TIP3    H140301   6.508   6.414   2.284  0.3344  0.8817 -0.0518
 6270TIP3    H240302   6.456   6.535   2.210 -0.2886  0.8614  0.3441
 6271TIP3   OH240303   2.984   4.871  15.100 -0.3002  0.9627  0.4878
 6271TIP3    H140304   2.937   4.930  15.160  0.6930  1.5106  0.7459
 6271TIP3    H240305   3.072   4.864  15.138 -0.3313 -0.5272  0.3479
 6272TIP3   OH240306   5.068   1.002  14.705  0.3350 -0.5493  0.8562
 6272TIP3    H140307   5.079   1.056  14.783  1.8415 -0.7498  0.7969
 6272TIP3    H240308   4.978   0.968  14.713  0.1460  0.1577  2.0231
 6273TIP3   OH240309   3.893   1.307   1.993  0.2469  0.3197 -0.0279
 6273TIP3    H140310   3.968   1.252   2.013  1.3428  1.8015  0.1120
 6273TIP3    H240311   3.823   1.275   2.050  0.5773 -1.4381 -0.5506
 6274TIP3   OH240312   6.710   6.070  12.642  0.1524 -0.2340 -0.3536
 6274TIP3    H140313   6.719   6.159  12.608  0.6063  0.2356  0.9363
 6274TIP3    H240314   6.747   6.014  12.574  0.3237  0.5949 -0.9581
 6275TIP3   OH240315   6.200   5.196   5.963  0.2361 -0.0937 -0.0119
 6275TIP3    H140316   6.179   5.105   5.945 -0.8837  0.0964  0.2205
 6275TIP3    H240317   6.190   5.206   6.057  3.3780 -0.4261  0.4581
 6276TIP3   OH240318   0.179   5.469  13.643  0.7511  0.2432  0.9018
 6276TIP3    H140319   0.225   5.413  13.580  1.5774 -0.1404  1.8179
 6276TIP3    H240320   0.093   5.428  13.653  1.3739 -0.9500  1.6193
 6277TIP3   OH240321   0.591   3.333   0.046 -0.1336  0.0214 -0.0581
 6277TIP3    H140322   0.624   3.362   0.131 -0.5932 -0.6329  0.3473
 6277TIP3    H240323   0.567   3.242   0.059  2.2541 -0.9074 -1.5885
 6278TIP3   OH240324   0.445   2.954   1.130  0.4443 -0.8282 -0.1374
 6278TIP3    H140325   0.458   2.981   1.039  0.3643 -2.1518 -0.5650
 6278TIP3    H240326   0.353   2.929   1.135  0.1572  0.2981  0.6215
 6279TIP3   OH240327   4.012   1.871  11.835  0.3703 -0.5198  0.5409
 6279TIP3    H140328   4.100   1.898  11.864  0.0576 -1.0662  2.0837
 6279TIP3    H240329   3.956   1.945  11.857  0.4424 -0.0549 -0.6996
 6280TIP3   OH240330   0.876   5.189   5.343  0.0758 -0.2409  0.6941
 6280TIP3    H140331   0.811   5.257   5.325  0.0779 -0.4819 -0.2517
 6280TIP3    H240332   0.824   5.111   5.365  0.0602 -0.1695  0.9109
 6281TIP3   OH240333   5.280   4.286   6.809 -0.1570  0.5240  0.3338
 6281TIP3    H140334   5.248   4.369   6.772  0.6969  1.1739  0.9965
 6281TIP3    H240335   5.219   4.220   6.777 -0.6147  1.3509 -0.5613
 6282TIP3   OH240336   4.583   3.295   3.254  0.4336 -0.0138 -0.4300
 6282TIP3    H140337   4.591   3.315   3.347  2.2486 -0.2922 -0.4956
 6282TIP3    H240338   4.571   3.380   3.212  0.0593  0.1507 -0.0013
 6283TIP3   OH240339   4.881   4.765   0.741  0.1707  0.1075  0.2868
 6283TIP3    H140340   4.887   4.841   0.683  0.8546 -0.1593  0.0055
 6283TIP3    H240341   4.884   4.801   0.829 -2.0696  0.6372  0.2266
 6284TIP3   OH240342   0.163   6.046   6.618  0.3160 -0.5367 -0.2971
 6284TIP3    H140343   0.156   6.077   6.528 -0.3626  0.5114  0.0915
 6284TIP3    H240344   0.235   6.097   6.655 -0.0338 -0.2591  0.0131
 6285TIP3   OH240345   5.176   5.960  12.257  0.1119  0.4871 -0.0114
 6285TIP3    H140346   5.235   5.934  12.186  0.3729  1.1481 -0.0374
 6285TIP3    H240347   5.104   5.896  12.253 -0.3401  1.0405 -1.4598
 6286TIP3   OH240348   4.424   3.824  12.772 -0.2756  0.4524  0.4648
 6286TIP3    H140349   4.394   3.906  12.734  0.3533  0.7260  0.5475
 6286TIP3    H240350   4.499   3.848  12.825  0.2094 -0.2424  0.1130
 6287TIP3   OH240351   0.030   4.134  14.075  0.0550 -0.8503  0.1267
 6287TIP3    H140352  -0.015   4.050  14.062 -0.4862 -0.5394 -0.0101
 6287TIP3    H240353   0.024   4.178  13.991 -0.7421 -0.1573  0.5364
 6288TIP3   OH240354   6.358   4.980  15.622  0.1847  0.4649  0.9983
 6288TIP3    H140355   6.299   4.952  15.691  0.1985 -0.3619  0.6883
 6288TIP3    H240356   6.345   4.915  15.552  0.1552  1.2868  0.2218
 6289TIP3   OH240357   1.073   4.475  11.306  0.3812  0.0831 -0.7166
 6289TIP3    H140358   1.012   4.456  11.376  0.0341 -0.3436 -1.1336
 6289TIP3    H240359   1.146   4.415  11.320 -0.3399 -1.0124 -1.5517
 6290TIP3   OH240360   1.687   2.651  17.238 -0.5818 -0.5541  0.2466
 6290TIP3    H140361   1.766   2.603  17.263  0.5345  1.1687  0.2236
 6290TIP3    H240362   1.679   2.719  17.305 -2.1709 -0.8094  0.3418
 6291TIP3   OH240363   4.447   1.100  17.455 -0.3652 -0.2448  0.3955
 6291TIP3    H140364   4.473   1.096  17.364 -2.5272 -0.0479 -0.2932
 6291TIP3    H240365   4.466   1.190  17.482 -2.0624  0.4938 -0.6903
 6292TIP3   OH240366   4.123   6.177   5.799 -0.2536 -0.2731  0.1625
 6292TIP3    H140367   4.124   6.136   5.885  1.2857  0.9928  0.7952
 6292TIP3    H240368   4.177   6.119   5.745 -0.8663 -0.8413  0.1475
 6293TIP3   OH240369   1.121   4.741   6.309 -0.5439  0.7620 -0.0710
 6293TIP3    H140370   1.162   4.660   6.339 -1.2286  0.9539  1.4788
 6293TIP3    H240371   1.038   4.744   6.355 -1.8623  0.9291 -2.3043
 6294TIP3   OH240372   5.085   4.283  13.687 -0.2763  0.1216 -0.9305
 6294TIP3    H140373   5.171   4.276  13.730  0.7673 -1.0753 -3.0393
 6294TIP3    H240374   5.062   4.375  13.695  0.8043  0.3101  0.3969
 6295TIP3   OH240375   0.607   4.462  14.471 -0.0999 -0.3695  0.1916
 6295TIP3    H140376   0.652   4.480  14.554  1.9689  0.0412 -0.9642
 6295TIP3    H240377   0.662   4.398  14.427 -1.4057 -0.9224 -0.6928
 6296TIP3   OH240378   3.828   1.405   1.744  0.4874 -0.7595  0.0981
 6296TIP3    H140379   3.890   1.479   1.739  0.2942 -0.6693 -2.2147
 6296TIP3    H240380   3.828   1.380   1.836 -0.5195  3.0293  1.2992
 6297TIP3   OH240381   4.761   0.829  13.766 -0.8073  0.2533  1.0953
 6297TIP3    H140382   4.730   0.880  13.691 -1.6684 -0.6666  0.8019
 6297TIP3    H240383   4.800   0.894  13.825  0.2946  0.9461 -0.3327
 6298TIP3   OH240384   5.630   3.185  16.119 -0.0800 -0.1167  1.0001
 6298TIP3    H140385   5.552   3.181  16.174 -0.9841  0.5020 -0.1883
 6298TIP3    H240386   5.638   3.278  16.096  1.0375 -0.1651  1.1451
 6299TIP3   OH240387   4.095   4.860   4.381  0.3051  0.0327 -0.1738
 6299TIP3    H140388   4.114   4.925   4.448  0.9382  1.3888 -1.5978
 6299TIP3    H240389   4.054   4.911   4.310  0.2723 -1.2294 -1.0927
 6300TIP3   OH240390   1.688   0.653   4.074 -0.0766 -0.3701 -0.7492
 6300TIP3    H140391   1.735   0.572   4.094 -0.5601 -1.0895 -2.4097
 6300TIP3    H240392   1.741   0.697   4.008 -0.5102  0.0011 -0.8589
 6301TIP3   OH240393   6.213   1.431   6.689 -0.1534  0.2115  0.5098
 6301TIP3    H140394   6.251   1.519   6.683 -0.3696  0.2247 -1.1139
 6301TIP3    H240395   6.120   1.443   6.668 -0.2719 -0.3408  0.7042
 6302TIP3   OH240396   3.435   2.366  12.938  0.6670 -0.4256 -0.0891
 6302TIP3    H140397   3.478   2.302  12.881  1.6925  0.4140 -0.2788
 6302TIP3    H240398   3.469   2.450  12.910 -1.1242  0.2899 -0.2447
 6303TIP3   OH240399   4.419   5.084  13.481  0.0925 -0.0191 -0.4143
 6303TIP3    H140400   4.502   5.038  13.480 -0.0012 -0.1779 -1.3659
 6303TIP3    H240401   4.440   5.173  13.452 -0.2625 -0.4262 -2.0103
 6304TIP3   OH240402   3.362   6.224  17.032  0.1891  0.1859 -0.5531
 6304TIP3    H140403   3.404   6.293  17.083  2.0329  0.4052 -2.2480
 6304TIP3    H240404   3.278   6.262  17.005 -0.5770  0.2682  1.7162
 6305TIP3   OH240405   3.279   0.660   5.263 -0.2876 -0.2164 -0.0095
 6305TIP3    H140406   3.193   0.624   5.282 -0.2791 -0.8223 -1.0086
 6305TIP3    H240407   3.288   0.652   5.168  1.3118 -1.2351  0.1753
 6306TIP3   OH240408   2.617   2.736   0.252 -0.2672  0.1322  0.4081
 6306TIP3    H140409   2.602   2.704   0.163 -1.8849  0.0759  0.6607
 6306TIP3    H240410   2.538   2.710   0.300  0.8322 -0.3848  2.0256
 6307TIP3   OH240411   4.896   2.999  11.023  0.2877  0.3056 -0.0856
 6307TIP3    H140412   4.965   3.052  10.982  0.9099  1.6023  2.3951
 6307TIP3    H240413   4.823   3.060  11.034  0.5573  0.3504  1.6975
 6308TIP3   OH240414   2.432   0.931   2.094  0.2084 -0.4629 -0.3334
 6308TIP3    H140415   2.414   1.004   2.153 -2.1385 -1.5640  0.4097
 6308TIP3    H240416   2.527   0.920   2.098  0.3496  0.9929  1.4176
 6309TIP3   OH240417   3.837   2.560  13.330  0.8634  0.0373 -0.2470
 6309TIP3    H140418   3.859   2.636  13.385  2.2052  0.1103 -0.8634
 6309TIP3    H240419   3.894   2.490  13.362 -1.2245 -1.1368  1.1499
 6310TIP3   OH240420   3.545   6.539   6.527  0.2557 -0.0935 -0.5340
 6310TIP3    H140421   3.566   6.447   6.540  0.9153  0.3178  1.7405
 6310TIP3    H240422   3.602   6.586   6.587 -1.6604  1.6369  0.0710
 6311TIP3   OH240423   1.152   3.400   2.989 -0.0200  0.6495  0.0651
 6311TIP3    H140424   1.139   3.317   3.033  0.7934 -0.2357 -1.2837
 6311TIP3    H240425   1.220   3.445   3.040 -0.6324  0.6110  0.9301
 6312TIP3   OH240426   5.662   3.969   4.388  0.3178  0.4730  0.3838
 6312TIP3    H140427   5.689   3.976   4.297 -0.6266 -0.6900 -0.0087
 6312TIP3    H240428   5.586   3.911   4.387  1.6515 -1.4597  2.1696
 6313TIP3   OH240429   0.038   3.384  12.064 -0.2921 -0.6060  0.3836
 6313TIP3    H140430  -0.032   3.389  12.000 -0.9104  0.3296  1.1050
 6313TIP3    H240431  -0.004   3.355  12.145 -0.0909  1.0275  1.1145
 6314TIP3   OH240432   5.331   0.754   0.054  0.1736  0.3375 -0.0660
 6314TIP3    H140433   5.422   0.728   0.044 -0.1945 -1.7454  1.2147
 6314TIP3    H240434   5.311   0.735   0.146 -2.1968 -1.7323 -0.8684
 6315TIP3   OH240435   1.945   3.503  13.964 -0.5698 -0.2204 -0.3755
 6315TIP3    H140436   1.886   3.533  13.895  0.6562 -1.6025 -2.1026
 6315TIP3    H240437   1.969   3.414  13.939  1.9579  0.1571  0.4189
 6316TIP3   OH240438   2.016   1.132   2.836 -0.1279 -0.2916  0.4087
 6316TIP3    H140439   2.110   1.135   2.818  0.0633  1.1477  1.4418
 6316TIP3    H240440   2.000   1.042   2.864  1.0842 -0.3948  0.8385
 6317TIP3   OH240441   5.272   6.459   1.427 -0.2564  0.7664 -0.3922
 6317TIP3    H140442   5.225   6.390   1.380 -0.4854  1.5590 -1.3623
 6317TIP3    H240443   5.211   6.533   1.428 -0.4750  0.6091  1.6659
 6318TIP3   OH240444   3.943   4.520   1.953 -0.2103  0.2866 -0.2077
 6318TIP3    H140445   3.985   4.603   1.929 -1.4476  0.7086 -1.0869
 6318TIP3    H240446   3.941   4.470   1.871 -2.6227  0.8771 -0.6043
 6319TIP3   OH240447   4.605   2.110   4.801 -0.3409 -0.2120 -0.3338
 6319TIP3    H140448   4.547   2.186   4.805  0.9362  0.7415  0.8738
 6319TIP3    H240449   4.689   2.145   4.769  0.4222 -0.9808  0.7659
 6320TIP3   OH240450   5.185   2.656  11.847  0.0118  0.1222 -0.3266
 6320TIP3    H140451   5.117   2.604  11.804 -0.2818 -0.2340  0.5448
 6320TIP3    H240452   5.251   2.593  11.873 -1.0235 -0.0983  2.0476
 6321TIP3   OH240453   3.716   4.878  14.335  0.0000 -0.2308 -0.7280
 6321TIP3    H140454   3.695   4.968  14.311 -0.1387 -0.3356 -0.9978
 6321TIP3    H240455   3.777   4.849  14.268  1.2245  0.1518  0.1856
 6322TIP3   OH240456   2.410   1.279   3.530 -0.0680 -0.5336  0.0535
 6322TIP3    H140457   2.364   1.322   3.459  1.8855  0.7196 -0.5146
 6322TIP3    H240458   2.412   1.186   3.505 -1.1583 -0.4247 -0.4832
 6323TIP3   OH240459   2.985   0.036   2.462  0.0710 -0.4528  0.5464
 6323TIP3    H140460   3.060  -0.022   2.472  0.1542 -0.7826 -1.6310
 6323TIP3    H240461   2.968   0.039   2.368  0.3385  3.4192  0.4630
 6324TIP3   OH240462   2.038   4.761   1.034  0.6114  0.1748  0.2200
 6324TIP3    H140463   2.066   4.695   1.097  1.2492  0.2906  0.0717
 6324TIP3    H240464   1.943   4.764   1.042  0.7415  0.7162  1.6947
 6325TIP3   OH240465   3.428   3.587  11.683 -0.2987  0.0769 -0.2880
 6325TIP3    H140466   3.394   3.588  11.594 -0.0381 -0.6589 -0.4032
 6325TIP3    H240467   3.394   3.505  11.720 -1.6393  1.0664  0.7862
 6326TIP3   OH240468   5.862   0.198  13.098  0.1481 -0.2023 -0.3352
 6326TIP3    H140469   5.797   0.254  13.139  0.4431  0.2281 -0.4494
 6326TIP3    H240470   5.943   0.249  13.100  0.9071 -1.3928  1.3404
 6327TIP3   OH240471   3.238   5.190  15.570  0.0707 -0.1660  0.3894
 6327TIP3    H140472   3.319   5.222  15.610 -0.1426  0.5461  0.2666
 6327TIP3    H240473   3.244   5.095  15.576 -0.2569 -0.1082  2.7924
 6328TIP3   OH240474   3.818   1.177  17.212 -0.1444  0.0420  0.3835
 6328TIP3    H140475   3.869   1.241  17.261 -1.3519 -0.1459  1.9837
 6328TIP3    H240476   3.841   1.093  17.251  0.8975 -0.4506 -1.2283
 6329TIP3   OH240477   2.767   6.631  13.312 -0.0767  0.3612 -0.0240
 6329TIP3    H140478   2.770   6.694  13.240 -0.6675  2.7510  1.9018
 6329TIP3    H240479   2.675   6.631  13.339 -0.1455 -1.6125 -0.1350
 6330TIP3   OH240480   5.285   6.348   3.003 -0.4708 -0.0821 -0.1360
 6330TIP3    H140481   5.194   6.336   2.976 -0.5916  2.2434 -1.0486
 6330TIP3    H240482   5.334   6.355   2.921  0.5639 -1.3359  0.3454
 6331TIP3   OH240483   6.681   2.323   3.891  0.0984 -0.0768  0.3394
 6331TIP3    H140484   6.591   2.334   3.859 -0.6188  0.0111  2.2274
 6331TIP3    H240485   6.732   2.303   3.813 -1.5399 -0.0069 -0.8090
 6332TIP3   OH240486   0.916   4.538  13.817 -0.5816 -0.3218  0.6986
 6332TIP3    H140487   0.893   4.597  13.888  1.0613 -1.4998  2.3011
 6332TIP3    H240488   0.988   4.485  13.851 -1.5097 -2.8139 -0.8557
 6333TIP3   OH240489   0.097   3.809   5.772 -0.1789  0.3888  0.9766
 6333TIP3    H140490   0.118   3.897   5.741 -0.3846  0.0523 -0.1602
 6333TIP3    H240491   0.049   3.768   5.699 -0.4112 -0.5355  1.6264
 6334TIP3   OH240492   5.895   1.099  11.400  0.3243 -0.2574 -0.1127
 6334TIP3    H140493   5.865   1.180  11.440  0.1174 -0.2814 -0.2196
 6334TIP3    H240494   5.846   1.030  11.446  0.5215 -0.3247 -0.0005
 6335TIP3   OH240495   6.526   4.671  14.432  0.3789  0.3025 -0.3069
 6335TIP3    H140496   6.543   4.747  14.376 -0.2675  0.6532 -0.0363
 6335TIP3    H240497   6.457   4.700  14.492 -1.3430 -1.1226 -1.5001
 6336TIP3   OH240498   1.387   6.020  16.115  0.3936  0.5854 -0.7055
 6336TIP3    H140499   1.421   5.937  16.150 -1.2898  0.0920 -0.1290
 6336TIP3    H240500   1.434   6.032  16.033  0.5550 -1.0558 -0.8976
 6337TIP3   OH240501   5.922   5.798   3.440  0.0505  0.0323  0.0915
 6337TIP3    H140502   5.851   5.763   3.386 -0.8622  2.6721 -0.5692
 6337TIP3    H240503   5.900   5.771   3.529 -0.8049 -0.6752 -0.3179
 6338TIP3   OH240504   4.481   1.793  15.619 -0.1373 -0.2153 -0.0509
 6338TIP3    H140505   4.511   1.754  15.701 -0.9383  0.9485  0.8313
 6338TIP3    H240506   4.557   1.790  15.561  0.4179 -1.1297  0.7007
 6339TIP3   OH240507   0.263   4.101   3.799 -0.5252  0.6365  0.5178
 6339TIP3    H140508   0.312   4.178   3.829  1.8064  0.2133 -1.8492
 6339TIP3    H240509   0.329   4.046   3.756 -2.6217 -1.3787 -0.3104
 6340TIP3   OH240510   6.727   3.698   3.932  0.6136  0.4670 -0.1507
 6340TIP3    H140511   6.805   3.652   3.963  0.1327 -0.7809 -0.7280
 6340TIP3    H240512   6.720   3.774   3.990  0.1163 -1.4027  2.4254
 6341TIP3   OH240513   3.225   3.841  15.133  0.0596  0.2881 -0.0731
 6341TIP3    H140514   3.284   3.785  15.183 -0.6394  0.2691  0.7507
 6341TIP3    H240515   3.194   3.906  15.196 -0.6664  0.4049 -0.5325
 6342TIP3   OH240516   2.354   6.136  12.980 -0.6123  0.6421 -0.2458
 6342TIP3    H140517   2.409   6.203  12.941 -0.3855 -0.5466 -2.1173
 6342TIP3    H240518   2.333   6.169  13.067  0.5222  2.5212 -0.6354
 6343TIP3   OH240519   5.556   4.142   0.001  0.5708 -0.0864 -0.9157
 6343TIP3    H140520   5.546   4.100   0.086  1.5398  0.1913 -0.6482
 6343TIP3    H240521   5.643   4.181   0.004  0.5225  0.1303 -1.9489
 6344TIP3   OH240522   2.291   3.231   0.680 -0.4416 -0.5018 -0.0963
 6344TIP3    H140523   2.233   3.200   0.750  0.1552 -0.1717  0.5484
 6344TIP3    H240524   2.243   3.304   0.640 -0.0504  0.4594  1.1168
 6345TIP3   OH240525   6.195   3.859  16.851  0.3763  0.6314  0.1379
 6345TIP3    H140526   6.148   3.839  16.770  0.3665 -1.1402  0.5280
 6345TIP3    H240527   6.222   3.950  16.842 -0.6280  0.8177 -1.3454
 6346TIP3   OH240528   5.907   1.703   1.346  0.6916 -0.4656 -0.4609
 6346TIP3    H140529   5.925   1.796   1.357  0.9978 -0.4947 -0.7180
 6346TIP3    H240530   5.813   1.694   1.366  0.6102 -0.0671 -0.6610
 6347TIP3   OH240531   4.640   5.505   0.452  0.3906 -0.0737 -0.2732
 6347TIP3    H140532   4.709   5.439   0.465  1.1364  0.6663 -0.3995
 6347TIP3    H240533   4.564   5.469   0.497  0.6906 -1.1746 -0.6138
 6348TIP3   OH240534   2.040   4.486   3.829  0.0914  0.0641  0.1272
 6348TIP3    H140535   2.073   4.435   3.756  1.4979  0.8465  0.1849
 6348TIP3    H240536   2.014   4.569   3.791 -0.9540 -0.2019  0.2374
 6349TIP3   OH240537   1.842   4.700   0.716 -0.2898 -0.0852 -0.7530
 6349TIP3    H140538   1.922   4.752   0.723 -0.3214 -0.0981 -0.2050
 6349TIP3    H240539   1.808   4.697   0.806 -1.6036  1.0198 -1.1803
 6350TIP3   OH240540   0.450   4.684  16.773  0.6508  0.0225  0.2032
 6350TIP3    H140541   0.517   4.644  16.717  0.8218 -1.3268  1.3318
 6350TIP3    H240542   0.478   4.664  16.862 -1.0679 -0.2417  0.7156
 6351TIP3   OH240543   2.492   4.105   1.951 -0.4364 -0.6269  0.0303
 6351TIP3    H140544   2.578   4.144   1.970  0.1723 -1.4519 -0.9234
 6351TIP3    H240545   2.430   4.155   2.004  0.6550 -0.1108  0.8465
 6352TIP3   OH240546   6.357   5.507   6.388  0.5867  0.3587  0.4182
 6352TIP3    H140547   6.452   5.518   6.386  0.5493  0.7125  0.4406
 6352TIP3    H240548   6.325   5.573   6.327  0.3810 -0.0995  0.0233
 6353TIP3   OH240549   4.356   3.589  11.597  0.1922 -0.4466 -0.6327
 6353TIP3    H140550   4.401   3.506  11.582  3.5374  0.8008  1.3218
 6353TIP3    H240551   4.314   3.578  11.682  2.5449  0.4600  0.7279
 6354TIP3   OH240552   2.646   2.618  14.634 -0.0353 -0.3342 -0.0118
 6354TIP3    H140553   2.739   2.638  14.638 -0.5763  2.4520  1.2072
 6354TIP3    H240554   2.637   2.532  14.674  2.0250 -0.8399 -0.5440
 6355TIP3   OH240555   2.537   2.922   4.783 -0.1683  0.4175  0.4363
 6355TIP3    H140556   2.533   2.827   4.768 -0.9623  0.3983  0.7187
 6355TIP3    H240557   2.547   2.960   4.696  0.8326  0.0486  0.3787
 6356TIP3   OH240558   5.239   3.147   0.666  0.1532 -0.3354 -0.1726
 6356TIP3    H140559   5.232   3.196   0.584  1.4632  0.1861  0.0073
 6356TIP3    H240560   5.304   3.079   0.648 -0.3499 -0.9050  0.1190
 6357TIP3   OH240561   3.920   0.688   2.349  0.3873  0.2091  0.3381
 6357TIP3    H140562   3.943   0.712   2.439 -0.9307  0.5524  0.6142
 6357TIP3    H240563   3.939   0.767   2.298  1.4908 -0.1115  0.2436
 6358TIP3   OH240564   1.944   5.650  13.450  0.3339  0.4899  0.1781
 6358TIP3    H140565   2.006   5.577  13.453  0.5508  0.6327 -0.5795
 6358TIP3    H240566   1.861   5.610  13.423  0.5444  0.5740 -0.6149
 6359TIP3   OH240567   1.033   0.566   5.011 -0.5165 -0.0192 -0.4982
 6359TIP3    H140568   0.965   0.529   5.067 -1.6947  2.0551 -0.4590
 6359TIP3    H240569   1.098   0.496   5.002 -0.9537 -0.8920  2.2897
 6360TIP3   OH240570   3.384   4.807   2.425  0.3889  0.5735  0.6168
 6360TIP3    H140571   3.300   4.839   2.391 -0.4964 -1.1006  1.1061
 6360TIP3    H240572   3.426   4.766   2.349 -0.2869 -0.5932  0.8444
 6361TIP3   OH240573   5.171   4.788   6.198  0.1549  0.4288 -0.2480
 6361TIP3    H140574   5.194   4.776   6.290 -1.3906  2.9755  0.5534
 6361TIP3    H240575   5.125   4.707   6.174  1.5777 -0.7564  0.8262
 6362TIP3   OH240576   4.230   2.075  16.419  0.1516 -0.6187  0.0525
 6362TIP3    H140577   4.149   2.024  16.407 -1.2033  0.8431  2.3568
 6362TIP3    H240578   4.243   2.078  16.513  1.1540  1.8013 -0.0945
 6363TIP3   OH240579   4.815   0.750  10.620 -0.4178 -0.1812 -0.3466
 6363TIP3    H140580   4.863   0.669  10.636  0.4606  0.8481  2.7395
 6363TIP3    H240581   4.881   0.811  10.586 -0.1381  0.3536  1.0864
 6364TIP3   OH240582   0.305   3.308   3.335 -0.4049  0.5938 -0.3034
 6364TIP3    H140583   0.249   3.375   3.297 -1.0381  0.9628  1.2053
 6364TIP3    H240584   0.258   3.226   3.318  0.3344  0.4883 -2.0798
 6365TIP3   OH240585   3.179   1.726   5.367 -0.1596  0.1948 -0.5336
 6365TIP3    H140586   3.095   1.680   5.370 -0.1421 -0.0803 -2.7429
 6365TIP3    H240587   3.171   1.783   5.291  1.4502  0.6021 -0.4120
 6366TIP3   OH240588   4.903   1.251   2.270  0.1586 -0.2043  0.8414
 6366TIP3    H140589   4.899   1.223   2.362 -0.2832  0.7759  1.1322
 6366TIP3    H240590   4.811   1.255   2.242  0.2668 -0.0252  0.5093
 6367TIP3   OH240591   1.144   3.158   0.364 -0.0240  0.3759  0.2609
 6367TIP3    H140592   1.110   3.238   0.324 -0.0741  0.8442  1.2147
 6367TIP3    H240593   1.139   3.093   0.294  2.3344  1.7648 -1.3580
 6368TIP3   OH240594   0.781   0.734   4.821  0.6533  0.2593 -0.6376
 6368TIP3    H140595   0.838   0.692   4.886  0.7143  1.4227  0.0873
 6368TIP3    H240596   0.701   0.681   4.823  1.0631 -0.3640 -0.4097
 6369TIP3   OH240597   2.170   0.026   5.500 -0.3361  0.1651  0.5098
 6369TIP3    H140598   2.117   0.092   5.454 -0.2901  0.2928  0.6364
 6369TIP3    H240599   2.155  -0.055   5.452  1.0654  0.6319 -0.7782
 6370TIP3   OH240600   6.624   6.387  11.718  0.2456  0.3678 -0.4552
 6370TIP3    H140601   6.632   6.334  11.639 -1.3417 -0.2627 -0.2381
 6370TIP3    H240602   6.669   6.336  11.786 -0.2313 -0.1409 -0.5103
 6371TIP3   OH240603   1.842   4.460  11.448 -0.2724  0.0393  0.2308
 6371TIP3    H140604   1.938   4.465  11.448 -0.1550 -1.6437  0.4495
 6371TIP3    H240605   1.815   4.516  11.375  0.9371 -0.2595 -0.4740
 6372TIP3   OH240606   6.082   1.328  15.085 -0.0186  0.1271  0.4525
 6372TIP3    H140607   6.037   1.410  15.104  1.3502  1.1815 -0.6484
 6372TIP3    H240608   6.164   1.333  15.135  1.4966  0.8883 -1.9178
 6373TIP3   OH240609   3.880   4.525   2.985 -0.3708 -0.3048 -0.6348
 6373TIP3    H140610   3.824   4.507   2.910  0.0681  0.8817 -1.2623
 6373TIP3    H240611   3.899   4.619   2.980  0.1402 -0.3166  0.6253
 6374TIP3   OH240612   2.262   2.397   5.908  0.1684  0.1366 -1.0372
 6374TIP3    H140613   2.317   2.461   5.863  0.9181 -0.3214 -0.7904
 6374TIP3    H240614   2.269   2.318   5.855  2.3974 -0.9314  0.6887
 6375TIP3   OH240615   1.254   4.407   0.850  0.1878 -0.2888 -0.1885
 6375TIP3    H140616   1.192   4.371   0.913 -0.6911  1.6675  0.1509
 6375TIP3    H240617   1.336   4.359   0.866  0.1978  0.5841  2.9498
 6376TIP3   OH240618   1.817   6.408   1.244  0.0603 -0.3161 -1.1295
 6376TIP3    H140619   1.873   6.348   1.294 -0.3216  0.1095 -0.1642
 6376TIP3    H240620   1.852   6.404   1.155  1.0762 -0.7146 -0.7369
 6377TIP3   OH240621   3.668   4.179  11.343 -0.1776  0.0062 -0.0685
 6377TIP3    H140622   3.616   4.238  11.397 -0.4120 -1.3939  1.3165
 6377TIP3    H240623   3.759   4.205  11.359 -0.2114 -0.7351  1.4952
 6378TIP3   OH240624   2.629   1.913  10.488  0.1131  0.2172  0.1859
 6378TIP3    H140625   2.661   1.826  10.514 -0.1975 -0.2673 -0.9879
 6378TIP3    H240626   2.703   1.971  10.504  1.3763 -0.7682 -1.7939
 6379TIP3   OH240627   2.854   5.849   1.410 -0.0343  0.2436  0.1392
 6379TIP3    H140628   2.794   5.775   1.397  1.1597 -0.4875 -1.5358
 6379TIP3    H240629   2.801   5.914   1.456 -1.8262 -0.7373 -0.4195
 6380TIP3   OH240630   3.828   5.331   2.385 -0.0599 -0.3440 -0.1614
 6380TIP3    H140631   3.852   5.287   2.466 -3.3245 -0.7130  0.7775
 6380TIP3    H240632   3.822   5.260   2.321  0.7778 -0.3149 -0.2796
 6381TIP3   OH240633   6.542   3.705  16.798 -0.2880  0.2384  0.1062
 6381TIP3    H140634   6.518   3.640  16.732  0.4086 -0.0302  0.1045
 6381TIP3    H240635   6.551   3.786  16.749  0.5040 -0.0184 -0.1892
 6382TIP3   OH240636   1.608   4.122   4.733  0.2854  0.0635 -0.4240
 6382TIP3    H140637   1.577   4.178   4.803 -0.2720 -0.4741 -0.2335
 6382TIP3    H240638   1.702   4.111   4.750  0.2885  0.4937 -0.1607
 6383TIP3   OH240639   6.466   5.337  17.392  0.6898 -0.7077  0.5003
 6383TIP3    H140640   6.464   5.309  17.483  1.6226  1.5068  1.2641
 6383TIP3    H240641   6.399   5.284  17.349 -0.3463 -1.2179  2.6420
 6384TIP3   OH240642   0.588   4.085   5.310 -0.0252 -0.1831  0.1279
 6384TIP3    H140643   0.521   4.021   5.334  1.0589 -0.5114  2.5509
 6384TIP3    H240644   0.629   4.109   5.393  1.0841  2.0314 -0.9723
 6385TIP3   OH240645   4.755   1.834  16.188 -0.6515  0.4181 -0.0938
 6385TIP3    H140646   4.711   1.916  16.167 -0.6732  0.2713 -0.6277
 6385TIP3    H240647   4.728   1.774  16.118  0.6384  0.4130 -0.5989
 6386TIP3   OH240648   4.479   3.345   2.918  0.5276 -0.3020 -0.2176
 6386TIP3    H140649   4.551   3.403   2.944  1.3239 -0.8504 -1.1597
 6386TIP3    H240650   4.493   3.265   2.968 -1.7690  0.9218  2.7466
 6387TIP3   OH240651   0.921   6.543  15.203  0.1431 -0.3778  0.3248
 6387TIP3    H140652   0.898   6.569  15.114  3.2684 -0.6418 -0.6819
 6387TIP3    H240653   0.923   6.448  15.201 -0.4820 -0.4129  0.9167
 6388TIP3   OH240654   1.819   4.729  11.784 -0.1349 -0.5177 -0.1929
 6388TIP3    H140655   1.803   4.750  11.692 -1.3620 -0.1904  0.0776
 6388TIP3    H240656   1.888   4.790  11.811  0.6360 -1.0012 -1.0379
 6389TIP3   OH240657   2.618   3.971   0.239 -0.1270 -0.4203 -0.3674
 6389TIP3    H140658   2.668   3.957   0.319  2.4677 -1.8698 -2.1061
 6389TIP3    H240659   2.611   3.884   0.199 -1.4300  0.2404 -1.6875
 6390TIP3   OH240660   0.659   3.456   3.618  0.0793 -0.5351 -0.4041
 6390TIP3    H140661   0.596   3.388   3.639  0.3124 -0.6306  0.0042
 6390TIP3    H240662   0.735   3.409   3.583  0.0616 -0.4482 -0.5614
 6391TIP3   OH240663   0.364   4.957  13.478 -0.3570  0.4684 -0.0894
 6391TIP3    H140664   0.428   4.958  13.550  1.1514  1.7029 -1.3437
 6391TIP3    H240665   0.351   4.865  13.458  0.6637  0.1718  0.5413
 6392TIP3   OH240666   3.847   2.012   1.736  0.4757  0.4010  0.1401
 6392TIP3    H140667   3.930   1.997   1.782  1.0608 -0.6240 -1.1623
 6392TIP3    H240668   3.796   1.933   1.753 -0.2773  1.0364  0.9532
 6393TIP3   OH240669   4.341   2.335   2.900  0.7251 -0.5060  0.1692
 6393TIP3    H140670   4.390   2.279   2.840  1.0241  0.2623 -0.3183
 6393TIP3    H240671   4.254   2.294   2.904 -0.0875  0.6674 -2.6504
 6394TIP3   OH240672   3.825   4.102   5.203  0.1906 -0.4606  0.5394
 6394TIP3    H140673   3.903   4.059   5.169  0.1924  1.3046 -1.9708
 6394TIP3    H240674   3.755   4.037   5.192  0.7990 -1.0539  0.1155
 6395TIP3   OH240675   6.483   4.407   0.965  0.0843  0.4213 -0.2664
 6395TIP3    H140676   6.400   4.388   0.921  0.6544 -0.6748 -0.9164
 6395TIP3    H240677   6.460   4.424   1.056 -0.6260 -2.3900  0.1574
 6396TIP3   OH240678   5.753   5.181  15.522  0.2007 -0.5648 -0.0254
 6396TIP3    H140679   5.726   5.093  15.496 -0.8668 -0.3662  0.3559
 6396TIP3    H240680   5.824   5.168  15.584  4.4212 -1.0732 -4.3689
 6397TIP3   OH240681   6.478   0.288   3.881  0.1214 -0.3992  0.1343
 6397TIP3    H140682   6.571   0.313   3.887  0.1656 -0.2274 -1.0736
 6397TIP3    H240683   6.476   0.196   3.904  0.9261 -0.9852 -1.9602
 6398TIP3   OH240684   3.951   3.172   4.692  0.7757 -0.6619 -0.0802
 6398TIP3    H140685   4.001   3.149   4.770  0.8387  0.2187  0.1498
 6398TIP3    H240686   3.988   3.256   4.663  0.0425 -0.4474 -0.4355
 6399TIP3   OH240687   6.688   0.963   5.565  0.1704 -0.1112 -0.1357
 6399TIP3    H140688   6.604   0.958   5.521 -0.3078 -0.5861  0.7982
 6399TIP3    H240689   6.753   0.962   5.495 -0.6143  1.0411 -0.9076
 6400TIP3   OH240690   3.064   5.603   4.594  0.3947  0.2579 -0.2272
 6400TIP3    H140691   3.060   5.617   4.689 -1.1248 -2.2413  0.1739
 6400TIP3    H240692   3.152   5.566   4.580  0.7741  1.0012  0.1321
 6401TIP3   OH240693   6.511   4.235  10.850  0.3065  0.6771 -0.2876
 6401TIP3    H140694   6.562   4.154  10.848 -1.3140 -0.4482  1.1015
 6401TIP3    H240695   6.421   4.207  10.863 -0.1596  2.7334  1.5856
 6402TIP3   OH240696   2.952   0.747  12.402 -0.1804  0.2181 -0.1031
 6402TIP3    H140697   2.950   0.819  12.340 -1.2380  0.1255 -0.2012
 6402TIP3    H240698   2.982   0.672  12.351  2.9296  0.9471  0.4490
 6403TIP3   OH240699   5.652   3.475   5.077 -0.4493 -0.6067 -0.1097
 6403TIP3    H140700   5.571   3.522   5.059  0.1317  0.9330  1.0806
 6403TIP3    H240701   5.632   3.421   5.153  0.2590  1.6973  1.8310
 6404TIP3   OH240702   4.490   4.137   6.348 -0.5194 -0.2972 -0.2720
 6404TIP3    H140703   4.503   4.174   6.261  1.4130 -0.0486  0.0692
 6404TIP3    H240704   4.490   4.042   6.334 -1.1769 -0.2417 -0.6531
 6405TIP3   OH240705   4.808   1.422  14.985  0.1195  0.9610 -0.1430
 6405TIP3    H140706   4.769   1.338  14.963 -1.6851  1.4215  1.0972
 6405TIP3    H240707   4.823   1.417  15.080 -0.6285  2.2519  0.0668
 6406TIP3   OH240708   4.144   2.553   0.251 -0.3292 -0.2919  0.0951
 6406TIP3    H140709   4.062   2.583   0.211 -0.7169 -0.4658  0.7489
 6406TIP3    H240710   4.184   2.633   0.285  0.7414  0.0867 -1.9279
 6407TIP3   OH240711   3.199   3.861  15.582 -0.4803  0.4727 -0.2018
 6407TIP3    H140712   3.127   3.864  15.519  0.1945  0.9222 -0.9758
 6407TIP3    H240713   3.274   3.831  15.531 -0.0171  0.4169  0.4990
 6408TIP3   OH240714   5.526   1.078   1.102 -0.0056  0.4467  0.0903
 6408TIP3    H140715   5.571   1.015   1.159 -0.6077  2.6620  3.2668
 6408TIP3    H240716   5.590   1.097   1.033  1.5382 -0.9543  1.0463
 6409TIP3   OH240717   0.008   5.837  13.254 -0.3981 -0.2693  0.2872
 6409TIP3    H140718   0.037   5.772  13.318  1.0413  1.7846  1.8677
 6409TIP3    H240719   0.044   5.807  13.170  0.4912 -1.3310  1.0275
 6410TIP3   OH240720   6.301   1.497  11.246 -0.8273 -0.3807 -0.7162
 6410TIP3    H140721   6.379   1.532  11.203  0.0082 -0.2114  0.8429
 6410TIP3    H240722   6.282   1.416  11.199 -0.4685  0.1953 -1.9030
 6411TIP3   OH240723   0.960   4.260   0.868 -0.0640 -0.1516 -0.3602
 6411TIP3    H140724   0.987   4.314   0.794  1.3484 -0.4668 -0.1102
 6411TIP3    H240725   0.995   4.306   0.945 -0.5418 -0.4155  0.0224
 6412TIP3   OH240726   2.406   2.380   0.203  0.3460 -0.2597 -0.1464
 6412TIP3    H140727   2.351   2.302   0.203 -0.1421  0.0208 -2.5146
 6412TIP3    H240728   2.481   2.357   0.148 -0.3356  1.2094 -1.8033
 6413TIP3   OH240729   4.524   1.356  12.867 -0.5885  0.2737 -0.0624
 6413TIP3    H140730   4.436   1.362  12.830 -0.9546  1.2573  0.9043
 6413TIP3    H240731   4.580   1.402  12.804 -1.1887  1.8507  0.4880
 6414TIP3   OH240732   1.912   4.199  15.405 -0.4585 -0.4295  0.4619
 6414TIP3    H140733   1.959   4.213  15.487 -0.4895 -0.6483  0.5183
 6414TIP3    H240734   1.920   4.105  15.389  0.5901 -0.2051 -0.4198
 6415TIP3   OH240735   4.509   2.971  11.528 -0.0996 -0.7293  0.2643
 6415TIP3    H140736   4.603   2.976  11.511 -0.1150  0.6307  0.5242
 6415TIP3    H240737   4.468   2.982  11.443 -0.0870  2.5597  0.5841
 6416TIP3   OH240738   2.254   1.638   3.215 -0.0433 -0.1459 -0.2590
 6416TIP3    H140739   2.339   1.649   3.171  0.4083  0.3839  0.7146
 6416TIP3    H240740   2.196   1.698   3.168  0.5917  0.9050  0.2386
 6417TIP3   OH240741   3.475   5.219  10.714 -0.1455  0.4500  0.0191
 6417TIP3    H140742   3.540   5.289  10.714  0.0100  0.3076 -0.4275
 6417TIP3    H240743   3.524   5.140  10.740 -0.7950  0.9196  2.9645
 6418TIP3   OH240744   6.092   4.514  16.564 -0.0810  0.0645 -0.5083
 6418TIP3    H140745   6.137   4.458  16.627  1.6666  1.2078 -0.6505
 6418TIP3    H240746   6.140   4.501  16.482  0.6954  2.0602 -0.4284
 6419TIP3   OH240747   5.454   2.697  17.185 -0.4850  0.4028  0.4182
 6419TIP3    H140748   5.406   2.728  17.108 -1.9010 -1.6632  0.3804
 6419TIP3    H240749   5.529   2.650  17.150 -2.0851 -2.1136  0.0891
 6420TIP3   OH240750   5.799   0.727   2.949  0.0927 -0.0040  0.1376
 6420TIP3    H140751   5.787   0.822   2.955 -0.9215 -0.1092  0.0458
 6420TIP3    H240752   5.730   0.691   3.006  1.4456 -0.6703  1.4160
 6421TIP3   OH240753   0.276   0.580  16.814  0.2496 -0.0742 -0.1561
 6421TIP3    H140754   0.335   0.650  16.841 -1.7887  1.7946 -0.2990
 6421TIP3    H240755   0.236   0.611  16.733 -0.2755 -1.6735 -0.5545
 6422TIP3   OH240756   0.463   3.771  16.134 -0.7909 -0.2010  0.1249
 6422TIP3    H140757   0.559   3.774  16.137 -0.8259  0.8020  1.3745
 6422TIP3    H240758   0.440   3.696  16.188 -0.7107 -1.0553 -0.9901
 6423TIP3   OH240759   3.975   1.079  12.757 -0.0776 -0.2120 -0.2727
 6423TIP3    H140760   3.948   1.022  12.686  0.4055  0.2057 -0.8105
 6423TIP3    H240761   4.070   1.067  12.763 -0.1547 -0.4630  0.4996
 6424TIP3   OH240762   2.715   6.408  15.028  0.3112  0.5621  0.2170
 6424TIP3    H140763   2.734   6.456  15.109 -0.1826  1.2096 -0.0406
 6424TIP3    H240764   2.736   6.317  15.049 -0.6157  0.5781  1.3550
 6425TIP3   OH240765   4.684   1.963  13.140 -0.7008 -0.2209  0.4083
 6425TIP3    H140766   4.765   1.961  13.190 -0.5839 -1.6943  0.2235
 6425TIP3    H240767   4.713   1.958  13.049 -0.9892 -0.6901  0.3402
 6426TIP3   OH240768   1.189   5.140   3.819 -0.2820 -0.1065  0.3450
 6426TIP3    H140769   1.147   5.176   3.897  0.9066 -1.8752  1.8604
 6426TIP3    H240770   1.165   5.201   3.749 -0.5037  2.1297  2.2666
 6427TIP3   OH240771   2.724   1.938  12.780  0.5805 -0.2325  0.7534
 6427TIP3    H140772   2.745   1.846  12.769 -3.1849 -1.0778 -1.4820
 6427TIP3    H240773   2.692   1.946  12.870 -0.0995 -1.4025  0.6283
 6428TIP3   OH240774   3.557   0.040  16.934 -0.0243 -0.0678 -0.4391
 6428TIP3    H140775   3.609   0.049  17.014  0.5398  1.4145 -0.9326
 6428TIP3    H240776   3.616   0.069  16.864 -0.7747 -0.5675 -1.3033
 6429TIP3   OH240777   4.508   4.052   6.623 -0.0699 -0.1321 -0.5890
 6429TIP3    H140778   4.505   4.108   6.546 -0.9316 -0.3855 -0.7530
 6429TIP3    H240779   4.419   4.019   6.632 -0.6461  1.7993  1.9374
 6430TIP3   OH240780   5.049   5.918  13.260  0.6066  0.3879 -0.0090
 6430TIP3    H140781   5.068   5.851  13.193 -2.1265  0.0854 -0.6291
 6430TIP3    H240782   5.115   5.986  13.245 -0.0045  0.4487 -3.2490
 6431TIP3   OH240783   0.517   1.104   2.331  0.2246  0.0104 -0.4253
 6431TIP3    H140784   0.441   1.045   2.330  0.7400 -0.6757 -0.4367
 6431TIP3    H240785   0.481   1.190   2.352 -0.4932 -0.3910  0.0311
 6432TIP3   OH240786   2.086   4.759  13.517 -0.7271  0.0419 -0.0897
 6432TIP3    H140787   2.133   4.677  13.532 -0.0483  0.1564 -1.4007
 6432TIP3    H240788   2.043   4.778  13.600  1.0122 -0.4203  0.9596
 6433TIP3   OH240789   0.826   1.214  11.429 -0.0865  0.1666 -0.4555
 6433TIP3    H140790   0.833   1.310  11.436 -1.7136  0.2477  0.6804
 6433TIP3    H240791   0.793   1.198  11.341  0.2248  0.6467 -0.6638
 6434TIP3   OH240792   0.138   5.362   2.793 -0.0334  0.3599 -0.0856
 6434TIP3    H140793   0.079   5.305   2.743  0.0663 -0.5475  0.7789
 6434TIP3    H240794   0.213   5.306   2.813  0.0588  0.7931  0.8172
 6435TIP3   OH240795   6.072   3.578   2.599 -0.2217 -0.3853  0.3918
 6435TIP3    H140796   6.000   3.523   2.630 -2.7051  2.1786 -0.4085
 6435TIP3    H240797   6.035   3.626   2.525  2.8888 -0.1369 -1.1522
 6436TIP3   OH240798   1.715   3.050   4.448 -0.1556  0.0001 -0.3003
 6436TIP3    H140799   1.754   3.130   4.413  0.0019 -0.0592 -0.2596
 6436TIP3    H240800   1.789   2.999   4.482  0.0925 -1.3011 -2.5820
 6437TIP3   OH240801   2.932   5.516  11.120 -0.0394  0.1403 -0.1277
 6437TIP3    H140802   2.936   5.470  11.036 -0.1984  0.9134 -0.5673
 6437TIP3    H240803   2.868   5.585  11.107  1.1005  1.2902  0.1011
 6438TIP3   OH240804   1.767   4.259   3.678 -0.0798 -0.0769 -0.2225
 6438TIP3    H140805   1.851   4.218   3.696  0.6342 -0.0769 -3.0911
 6438TIP3    H240806   1.725   4.203   3.614 -1.5645  0.8029 -0.0888
 6439TIP3   OH240807   2.851   1.032  15.853 -0.0462  0.6024 -0.0936
 6439TIP3    H140808   2.939   1.027  15.816  0.1090 -1.6097  0.3974
 6439TIP3    H240809   2.793   1.029  15.777  0.2942 -2.4716 -0.3648
 6440TIP3   OH240810   3.424   4.152   2.394 -0.1302 -0.2241 -0.1001
 6440TIP3    H140811   3.517   4.138   2.409 -0.0317  0.7425  0.3069
 6440TIP3    H240812   3.381   4.103   2.463  0.1342  0.2258  0.3947
 6441TIP3   OH240813   6.107   0.149  15.691 -0.1976  0.1565  0.2573
 6441TIP3    H140814   6.073   0.155  15.780  0.2829 -0.7424  0.5198
 6441TIP3    H240815   6.075   0.228  15.647 -0.3243  0.6780  1.2605
 6442TIP3   OH240816   6.626   5.525   0.202  0.0535 -0.4043  0.1341
 6442TIP3    H140817   6.631   5.588   0.130 -3.2242  1.7896  1.5869
 6442TIP3    H240818   6.692   5.554   0.265  0.3119  0.0154 -0.3306
 6443TIP3   OH240819   6.146   5.135  12.297 -0.9420 -0.2523 -0.0619
 6443TIP3    H140820   6.180   5.143  12.386 -0.5877 -0.8723 -0.1396
 6443TIP3    H240821   6.090   5.057  12.300  1.5783 -2.2563 -1.1317
 6444TIP3   OH240822   6.480   2.455  14.711  0.0899 -0.2026 -0.0610
 6444TIP3    H140823   6.432   2.508  14.647 -1.3193 -0.1177  1.0039
 6444TIP3    H240824   6.475   2.366  14.677  0.7449  0.0549 -0.8594
 6445TIP3   OH240825   3.972   3.242   0.045 -0.8044  0.8042 -0.3999
 6445TIP3    H140826   4.017   3.245  -0.040  0.2863  1.0891  0.1749
 6445TIP3    H240827   3.960   3.334   0.069 -0.7233  0.7278 -0.0580
 6446TIP3   OH240828   0.767   0.274   3.719  0.3252  0.0510  0.2858
 6446TIP3    H140829   0.846   0.227   3.745  0.5047 -0.7003 -1.4559
 6446TIP3    H240830   0.794   0.365   3.710  0.7745 -0.0600  0.5040
 6447TIP3   OH240831   4.253   0.822   4.299 -0.3639 -0.8184 -0.2353
 6447TIP3    H140832   4.178   0.772   4.267  0.4447 -2.3567  0.1461
 6447TIP3    H240833   4.298   0.762   4.359  2.2902 -0.7259 -1.9538
 6448TIP3   OH240834   2.693   5.019  11.167  0.2249 -0.0081 -0.3078
 6448TIP3    H140835   2.772   4.989  11.212  1.4146  0.1942 -2.1687
 6448TIP3    H240836   2.725   5.067  11.091 -1.6977  0.4751 -0.8726
 6449TIP3   OH240837   3.541   5.206   6.320 -0.7230  0.2337 -0.0879
 6449TIP3    H140838   3.494   5.176   6.243  0.5913  2.7633 -2.0012
 6449TIP3    H240839   3.623   5.157   6.320 -0.0652  1.2838 -1.2388
 6450TIP3   OH240840   2.416   1.557   2.012  0.1497 -0.0240  0.2024
 6450TIP3    H140841   2.350   1.622   1.991  1.3850  0.4510 -2.8120
 6450TIP3    H240842   2.380   1.474   1.981  0.4926  0.0580 -0.4383
 6451TIP3   OH240843   3.528   6.711   3.320 -0.0017 -0.0823 -0.2178
 6451TIP3    H140844   3.610   6.706   3.271 -0.5317  3.4531 -1.7347
 6451TIP3    H240845   3.462   6.675   3.261  0.1208 -0.9363  0.1522
 6452TIP3   OH240846   2.728   5.406   5.736  0.0805  0.1886 -0.7545
 6452TIP3    H140847   2.650   5.367   5.698 -0.6948  0.4848  0.4643
 6452TIP3    H240848   2.735   5.493   5.695  0.5611 -0.3449 -1.8481
 6453TIP3   OH240849   4.306   1.311  13.488 -0.5665  0.1778  0.5508
 6453TIP3    H140850   4.370   1.243  13.470 -2.8468 -1.7270 -0.9673
 6453TIP3    H240851   4.290   1.304  13.582  0.3415 -0.3281  0.6813
 6454TIP3   OH240852   1.862   5.742   4.503 -0.1039 -0.2892  0.1739
 6454TIP3    H140853   1.871   5.815   4.442 -1.2095 -0.6518 -0.4450
 6454TIP3    H240854   1.928   5.679   4.475  1.0754  0.5675  0.9053
 6455TIP3   OH240855   4.495   0.475  12.629  0.3834 -0.2662  0.4446
 6455TIP3    H140856   4.509   0.392  12.674 -0.0249 -0.2789  0.5571
 6455TIP3    H240857   4.402   0.493  12.640  0.8362  1.2622  2.2594
 6456TIP3   OH240858   6.722   6.773   5.157 -0.3464  0.6115  0.5397
 6456TIP3    H140859   6.717   6.693   5.106  0.0339  1.3493 -0.7044
 6456TIP3    H240860   6.684   6.840   5.100 -0.4144  1.3688  1.4489
 6457TIP3   OH240861   2.790   0.495  17.415 -0.1106 -0.1361  0.0356
 6457TIP3    H140862   2.839   0.440  17.355  0.3377  0.8091 -0.4666
 6457TIP3    H240863   2.708   0.514  17.369 -0.5449 -0.8895  0.4679
 6458TIP3   OH240864   0.701   3.783   4.995 -0.2625 -1.0430  0.0957
 6458TIP3    H140865   0.777   3.837   5.016 -0.7942 -0.7579  1.3622
 6458TIP3    H240866   0.634   3.845   4.965 -0.3069 -1.1855 -0.1017
 6459TIP3   OH240867   1.057   6.197  16.716 -0.5429 -0.2080 -0.3636
 6459TIP3    H140868   1.060   6.262  16.786  2.3949  0.7601 -1.2206
 6459TIP3    H240869   1.007   6.239  16.646  0.4976  0.7770 -0.5450
 6460TIP3   OH240870   3.540   4.253   5.269 -0.1432  0.1184  0.7530
 6460TIP3    H140871   3.555   4.174   5.217  0.1542  1.5502 -1.4733
 6460TIP3    H240872   3.446   4.253   5.284 -0.1472 -0.6673  0.8075
 6461TIP3   OH240873   2.979   4.258  12.163  0.1939  0.2832 -0.4177
 6461TIP3    H140874   3.074   4.256  12.171  0.1113  0.7624  1.0382
 6461TIP3    H240875   2.949   4.293  12.247 -1.4867 -4.0083  1.0349
 6462TIP3   OH240876   5.503   2.221  14.219 -0.5401  0.0273 -0.3515
 6462TIP3    H140877   5.565   2.160  14.181 -0.0995  0.4787 -0.3626
 6462TIP3    H240878   5.421   2.203  14.173 -0.0111  0.5789 -1.5467
 6463TIP3   OH240879   0.513   3.321   1.430  0.5000 -0.1680 -0.5882
 6463TIP3    H140880   0.525   3.384   1.501 -2.2242 -0.7337  0.5038
 6463TIP3    H240881   0.469   3.371   1.361 -0.5470 -0.5552 -0.2135
 6464TIP3   OH240882   2.651   4.182  14.518  0.5297  0.0063 -0.4991
 6464TIP3    H140883   2.609   4.112  14.567  0.8305  0.6715  0.7311
 6464TIP3    H240884   2.610   4.178  14.431 -0.8570 -0.4255  0.1470
 6465TIP3   OH240885   2.481   2.249  16.034 -0.2380 -0.8490 -0.2545
 6465TIP3    H140886   2.444   2.332  16.004 -0.6175 -0.9351 -0.0300
 6465TIP3    H240887   2.415   2.184  16.012 -0.2836 -0.9846  0.2716
 6466TIP3   OH240888   5.836   2.697   4.489  0.2466 -0.2665 -0.1467
 6466TIP3    H140889   5.878   2.647   4.559  1.7519  0.3462 -0.5698
 6466TIP3    H240890   5.811   2.631   4.424  1.7493 -0.5657 -0.4685
 6467TIP3   OH240891   6.524   2.045   3.860  0.2275  0.0564  0.0375
 6467TIP3    H140892   6.481   2.117   3.907  1.4252  0.4118  0.6159
 6467TIP3    H240893   6.456   1.977   3.853  0.1637 -0.3082  2.9432
 6468TIP3   OH240894   1.190   4.855  13.600  0.2450 -0.2454 -0.0505
 6468TIP3    H140895   1.136   4.864  13.522 -1.2213 -1.2794  0.8041
 6468TIP3    H240896   1.276   4.888  13.573 -0.3827  0.0031 -1.8985
 6469TIP3   OH240897   4.893   3.749  15.042 -0.5471 -0.0915  1.0115
 6469TIP3    H140898   4.924   3.750  14.951 -2.7565 -2.0487  0.1273
 6469TIP3    H240899   4.896   3.657  15.068 -2.2098  0.0848  2.0225
 6470TIP3   OH240900   5.371   2.209  11.576 -0.2322  0.2217 -0.0344
 6470TIP3    H140901   5.463   2.214  11.553  0.0876 -0.4554  0.9831
 6470TIP3    H240902   5.324   2.239  11.499  0.7884 -0.9019 -1.1367
 6471TIP3   OH240903   0.367   2.339  15.415  0.5961 -0.3904 -0.3620
 6471TIP3    H140904   0.328   2.268  15.466 -0.7640 -1.4897 -2.7555
 6471TIP3    H240905   0.332   2.419  15.454  2.6307 -0.8743  2.7759
 6472TIP3   OH240906   6.129   2.949  17.042 -0.2928  0.5513 -0.2024
 6472TIP3    H140907   6.131   2.980  17.132  0.5486  0.1178 -0.0575
 6472TIP3    H240908   6.155   2.857  17.047  0.7960  0.7876 -0.9673
 6473TIP3   OH240909   5.226   4.553   6.770  0.1662 -0.2867 -0.2139
 6473TIP3    H140910   5.271   4.630   6.738 -2.2962  1.0899 -0.6378
 6473TIP3    H240911   5.195   4.577   6.857 -0.7911 -0.6852 -0.4212
 6474TIP3   OH240912   1.547   0.152  14.941 -0.7113 -0.7054 -0.0703
 6474TIP3    H140913   1.593   0.109  15.013 -0.3158  1.0975  0.8064
 6474TIP3    H240914   1.455   0.154  14.968 -0.5730 -0.0879  0.3912
 6475TIP3   OH240915   3.598   0.741   4.136 -0.2355  0.6448  0.5155
 6475TIP3    H140916   3.607   0.745   4.040 -3.1152  0.9633  0.1875
 6475TIP3    H240917   3.602   0.648   4.156  0.4426  0.5761  0.1268
 6476TIP3   OH240918   6.286   6.480   0.912 -0.5509  0.0381 -0.2178
 6476TIP3    H140919   6.279   6.411   0.978  0.5754 -0.6708 -0.7986
 6476TIP3    H240920   6.316   6.556   0.961 -2.1630  0.2446  0.4946
 6477TIP3   OH240921   5.620   1.381   1.109  0.1486  0.5312 -0.1946
 6477TIP3    H140922   5.574   1.357   1.028 -0.6221 -0.3162  0.4832
 6477TIP3    H240923   5.711   1.357   1.092 -0.0794 -0.0394 -0.6703
 6478TIP3   OH240924   5.103   1.365   5.487 -0.0207  1.0225  0.1792
 6478TIP3    H140925   5.130   1.317   5.565  0.2010 -2.0559 -1.6458
 6478TIP3    H240926   5.019   1.326   5.462 -0.5899  2.6426 -0.6171
 6479TIP3   OH240927   5.342   0.722   2.978 -0.7357 -0.3205 -0.1034
 6479TIP3    H140928   5.372   0.812   2.987  1.6914 -0.9431 -1.0797
 6479TIP3    H240929   5.409   0.669   3.021 -0.4686 -1.7965 -2.1341
 6480TIP3   OH240930   2.999   6.726   2.031  0.0216 -0.0688  0.0642
 6480TIP3    H140931   2.957   6.666   2.093 -0.7009  0.7401  0.3890
 6480TIP3    H240932   2.944   6.805   2.034  1.0043  0.6430 -0.2771
 6481TIP3   OH240933   2.519   2.688  15.113 -0.0778  0.6138 -0.2420
 6481TIP3    H140934   2.436   2.713  15.155 -0.7530  0.7413 -1.5750
 6481TIP3    H240935   2.500   2.694  15.019  1.0694 -0.6190 -0.5740
 6482TIP3   OH240936   6.220   2.294  15.403 -0.2384  0.0465 -0.6228
 6482TIP3    H140937   6.145   2.353  15.401  0.6133  1.2952  1.4098
 6482TIP3    H240938   6.289   2.341  15.356 -0.4683 -0.7770 -1.8339
 6483TIP3   OH240939   4.589   6.701   2.148 -0.5250 -0.3371  0.1521
 6483TIP3    H140940   4.625   6.721   2.062 -0.3847  0.2021  0.3378
 6483TIP3    H240941   4.653   6.735   2.210  0.1627 -2.1249  0.4769
 6484TIP3   OH240942   4.236   3.349  14.353 -0.0751  0.3435  0.1021
 6484TIP3    H140943   4.306   3.292  14.320 -0.7924 -0.4751 -0.0453
 6484TIP3    H240944   4.275   3.395  14.427  0.6754  0.0482 -0.0999
 6485TIP3   OH240945   3.645   0.952   3.055 -0.5248 -0.7187  0.1415
 6485TIP3    H140946   3.736   0.941   3.026 -0.2888 -0.1967  0.6608
 6485TIP3    H240947   3.600   0.988   2.978 -0.2066 -0.6215 -0.0035
 6486TIP3   OH240948   1.435   6.653   1.556  0.3300  0.4439 -0.2651
 6486TIP3    H140949   1.512   6.656   1.499 -0.2532  2.1174 -1.0288
 6486TIP3    H240950   1.461   6.702   1.634  0.3454  0.1995 -0.1165
 6487TIP3   OH240951   2.889   6.410  12.363  0.1687  0.0359 -0.0940
 6487TIP3    H140952   2.829   6.371  12.300 -0.4913  0.3267  0.3316
 6487TIP3    H240953   2.837   6.479  12.405  1.1743  1.1000 -0.5473
 6488TIP3   OH240954   5.887   0.803  13.648 -0.2188  0.2577  0.3345
 6488TIP3    H140955   5.972   0.764  13.626  0.7441  2.4468 -0.0875
 6488TIP3    H240956   5.909   0.877  13.705 -1.8447  0.9060  0.1584
 6489TIP3   OH240957   0.383   1.785  12.979  0.2142  0.5868  0.3039
 6489TIP3    H140958   0.310   1.846  12.969  0.8983  1.2660 -0.7106
 6489TIP3    H240959   0.353   1.704  12.937 -0.3564  0.5080  0.8555
 6490TIP3   OH240960   0.055   6.616   3.111 -0.7337 -0.3301 -0.0580
 6490TIP3    H140961   0.047   6.528   3.074  0.5020 -0.8653  0.8359
 6490TIP3    H240962   0.018   6.608   3.199  1.7896 -0.7266  1.0512
 6491TIP3   OH240963   6.767   0.464  15.004  0.0305 -0.4739  0.3294
 6491TIP3    H140964   6.838   0.419  14.956  0.3857  0.1641  0.2500
 6491TIP3    H240965   6.716   0.392  15.042 -0.6513 -1.0360 -1.5402
 6492TIP3   OH240966   0.153   4.063   5.717  0.2140 -0.0201  0.7002
 6492TIP3    H140967   0.167   4.153   5.746 -1.3035 -0.0093  1.4721
 6492TIP3    H240968   0.072   4.067   5.665  0.4296 -0.8514  0.2823
 6493TIP3   OH240969   1.039   2.452  17.257  0.0896  0.1664  0.0097
 6493TIP3    H140970   1.131   2.465  17.280  0.7260 -3.3796  0.0443
 6493TIP3    H240971   1.001   2.410  17.335 -1.2130  0.3737 -0.4891
 6494TIP3   OH240972   1.697   0.869   0.733 -0.1382  0.1096  0.2789
 6494TIP3    H140973   1.679   0.963   0.740  0.0435  0.1092  0.7863
 6494TIP3    H240974   1.695   0.838   0.823 -1.8879 -0.6962  0.0170
 6495TIP3   OH240975   3.913   1.870  15.409 -0.0081  0.1174  0.2074
 6495TIP3    H140976   3.833   1.902  15.451 -0.6598 -1.6159  0.3705
 6495TIP3    H240977   3.896   1.877  15.315 -0.7211 -1.0014  0.2286
 6496TIP3   OH240978   0.543   1.619   5.505  0.2319  0.7085 -0.1074
 6496TIP3    H140979   0.540   1.714   5.521  2.0552  1.1757 -1.9978
 6496TIP3    H240980   0.624   1.591   5.545 -0.4413 -0.1342  0.6860
 6497TIP3   OH240981   5.313   1.255  16.961  0.5069 -0.6196  0.2432
 6497TIP3    H140982   5.357   1.231  17.042 -1.2703 -2.0215  0.8738
 6497TIP3    H240983   5.230   1.206  16.963 -0.2030  0.3584 -1.7771
 6498TIP3   OH240984   4.707   4.150  16.588 -0.8396 -0.6543 -0.1317
 6498TIP3    H140985   4.655   4.211  16.536 -0.0139  0.9950  0.9094
 6498TIP3    H240986   4.710   4.189  16.675  0.9906 -1.4034  0.1797
 6499TIP3   OH240987   6.367   4.303   3.695  0.9858  0.5145 -0.1919
 6499TIP3    H140988   6.389   4.394   3.674  1.4342  0.8464  1.5939
 6499TIP3    H240989   6.366   4.299   3.790 -2.5739 -0.5205 -0.1519
 6500TIP3   OH240990   3.739   0.301   5.324  0.0869 -0.1296  0.1673
 6500TIP3    H140991   3.678   0.370   5.301 -0.5641 -0.8296 -0.2719
 6500TIP3    H240992   3.700   0.260   5.402 -0.4337 -1.0789 -0.5741
 6501TIP3   OH240993   2.858   2.383  13.225  0.0682  0.9550 -0.0645
 6501TIP3    H140994   2.879   2.441  13.298 -3.2909  1.2777  0.8460
 6501TIP3    H240995   2.870   2.437  13.147  0.4643  1.7216  0.5114
 6502TIP3   OH240996   2.255   2.873  13.530  0.1562  0.6129 -0.0954
 6502TIP3    H140997   2.216   2.879  13.442  1.4308 -1.5500 -0.8963
 6502TIP3    H240998   2.349   2.865  13.514  0.2918 -1.2721  1.3518
 6503TIP3   OH240999   6.466   4.615   5.734 -0.4963 -0.2575  0.5579
 6503TIP3    H141000   6.464   4.600   5.639  0.3640  0.5675  0.3916
 6503TIP3    H241001   6.405   4.687   5.748 -1.2528 -0.9222  0.7558
 6504TIP3   OH241002   3.771   4.271  13.186 -0.3775  0.3008  0.2305
 6504TIP3    H141003   3.755   4.261  13.280 -2.3216  2.0066  0.1478
 6504TIP3    H241004   3.822   4.351  13.179 -0.7642  0.5165 -0.1882
 6505TIP3   OH241005   1.049   5.781  14.514 -0.2302 -0.2677  0.5143
 6505TIP3    H141006   1.006   5.788  14.599 -0.0077 -0.6366  0.6602
 6505TIP3    H241007   1.119   5.716  14.528  0.5595  0.5250  0.3696
 6506TIP3   OH241008   5.547   5.995  12.901 -0.8644 -0.0318 -0.2528
 6506TIP3    H141009   5.633   6.037  12.900 -0.1747 -1.4157 -0.2182
 6506TIP3    H241010   5.521   5.990  12.809 -0.5238 -0.3948 -0.3277
 6507TIP3   OH241011   2.700   5.849   3.475 -0.2692 -0.2600 -0.1283
 6507TIP3    H141012   2.660   5.795   3.544  1.2970 -0.9457  0.2956
 6507TIP3    H241013   2.743   5.786   3.418  0.4215  0.4594 -0.4100
 6508TIP3   OH241014   0.390   5.609  12.454  0.2332  1.0920  0.3807
 6508TIP3    H141015   0.434   5.693  12.469 -0.0264  1.0572  1.4040
 6508TIP3    H241016   0.316   5.631  12.397  0.0300  1.6113  0.8318
 6509TIP3   OH241017   4.336   6.661   0.641 -0.1546 -0.3854  0.1573
 6509TIP3    H141018   4.367   6.653   0.551  0.4620  0.8921  0.2412
 6509TIP3    H241019   4.304   6.751   0.648 -0.1197 -0.4435  1.2306
 6510TIP3   OH241020   6.523   2.205  14.616 -0.3017 -0.6546 -0.0352
 6510TIP3    H141021   6.617   2.207  14.637 -0.6121  1.4381  1.5611
 6510TIP3    H241022   6.514   2.133  14.554  2.3457 -0.9565 -0.2088
 6511TIP3   OH241023   5.021   0.007  11.261  0.1472 -0.8562  0.5469
 6511TIP3    H141024   4.963  -0.019  11.333 -0.0953 -1.2616  0.2068
 6511TIP3    H241025   4.967   0.064  11.206  0.0961 -1.1747  0.2686
 6512TIP3   OH241026   1.798   5.286  12.996  0.0794  0.3760 -0.3150
 6512TIP3    H141027   1.882   5.270  13.039 -0.2629 -0.3744  0.0823
 6512TIP3    H241028   1.775   5.376  13.022 -0.5124 -0.3226  1.7812
 6513TIP3   OH241029   5.893   3.357  14.162  0.2042  0.1281  0.0375
 6513TIP3    H141030   5.831   3.356  14.235 -0.9029  1.8737 -0.8097
 6513TIP3    H241031   5.977   3.376  14.203 -0.0940 -0.6045  1.0323
 6514TIP3   OH241032   2.864   2.578   3.713  0.3300  0.1428 -0.1025
 6514TIP3    H141033   2.845   2.558   3.621 -0.9528  0.6989  0.0187
 6514TIP3    H241034   2.953   2.546   3.727 -0.0526 -1.5041 -1.0900
 6515TIP3   OH241035   5.121   5.972   1.858  0.6111 -0.6036  0.1099
 6515TIP3    H141036   5.116   5.890   1.906  2.2678 -0.6798  0.1891
 6515TIP3    H241037   5.111   5.947   1.766  1.9427 -1.0269  0.0588
 6516TIP3   OH241038   3.961   6.557   5.978 -0.3554  0.5730 -0.3983
 6516TIP3    H141039   4.050   6.525   5.998 -0.2833  0.5766 -0.7131
 6516TIP3    H241040   3.955   6.640   6.025 -0.2621  0.4753 -0.2125
 6517TIP3   OH241041   6.303   6.632  14.149  0.4359 -0.4205  0.0809
 6517TIP3    H141042   6.330   6.553  14.102  1.3699  0.5320 -1.0828
 6517TIP3    H241043   6.381   6.657  14.200  0.0326 -0.4373  0.7146
 6518TIP3   OH241044   5.992   2.126  16.313 -0.2145  0.2468  0.3045
 6518TIP3    H141045   5.997   2.050  16.370  1.0588  0.4986  0.5723
 6518TIP3    H241046   5.899   2.138  16.297 -0.4604 -1.1174  0.5782
 6519TIP3   OH241047   3.314   0.319  12.758 -0.5288  0.1804  0.3695
 6519TIP3    H141048   3.303   0.281  12.671 -3.0868  0.0136  0.6678
 6519TIP3    H241049   3.350   0.247  12.810 -1.0757 -0.4407 -0.0809
 6520TIP3   OH241050   1.429   6.195   0.028 -0.1143  0.3163 -0.4907
 6520TIP3    H141051   1.512   6.242   0.017  0.0969  1.3430  3.6279
 6520TIP3    H241052   1.454   6.112   0.069 -1.0012 -0.4536 -1.4605
 6521TIP3   OH241053   5.017   0.042  14.827 -0.1801  0.5833  0.0082
 6521TIP3    H141054   4.968  -0.030  14.788  0.5828 -0.1938  0.4596
 6521TIP3    H241055   4.996   0.117  14.772 -3.1602  0.6842  1.1048
 6522TIP3   OH241056   2.159   5.763   2.805  0.0446 -0.0749 -0.1388
 6522TIP3    H141057   2.113   5.770   2.889 -1.4791 -0.9775 -0.8601
 6522TIP3    H241058   2.203   5.679   2.808  1.1380  0.4994  0.2862
 6523TIP3   OH241059   0.770   6.383   4.768  0.7095  0.2321  0.8523
 6523TIP3    H141060   0.694   6.360   4.715  1.1891 -0.5530  0.4972
 6523TIP3    H241061   0.831   6.310   4.757  1.2877  0.5877  1.5789
 6524TIP3   OH241062   3.472   5.233   0.071  0.2423 -0.3119  0.1295
 6524TIP3    H141063   3.434   5.178   0.002  0.8853  0.1282 -0.5952
 6524TIP3    H241064   3.472   5.321   0.034  2.7657 -0.4160 -0.2945
 6525TIP3   OH241065   0.793   0.823   5.140  0.1893  0.0406 -0.1480
 6525TIP3    H141066   0.867   0.778   5.182  0.9616  1.2599 -0.1468
 6525TIP3    H241067   0.833   0.874   5.070 -0.6294  0.8343 -0.0534
 6526TIP3   OH241068   1.687   5.190   1.846  0.2501  0.1799  0.1244
 6526TIP3    H141069   1.629   5.239   1.904 -0.4572  0.0765 -0.4822
 6526TIP3    H241070   1.657   5.099   1.854  0.0618  0.1844 -0.4976
 6527TIP3   OH241071   5.268   4.549  17.147  0.0250 -0.3695  0.2980
 6527TIP3    H141072   5.210   4.612  17.104 -0.1947 -0.4127  0.5317
 6527TIP3    H241073   5.216   4.513  17.219  0.9689  1.0164  1.7407
 6528TIP3   OH241074   1.950   6.490   4.416 -0.1676 -0.1471 -0.1527
 6528TIP3    H141075   2.037   6.530   4.423 -0.0116 -0.5869  0.5636
 6528TIP3    H241076   1.943   6.462   4.325  0.1633  0.5168 -0.3829
 6529TIP3   OH241077   2.707   5.098   3.468 -0.5156 -0.3737  0.2403
 6529TIP3    H141078   2.694   5.020   3.522 -0.2030  0.8050  2.1294
 6529TIP3    H241079   2.730   5.064   3.382 -3.3112 -2.4048  0.1337
 6530TIP3   OH241080   5.268   2.186   3.058  0.6123 -0.1682  0.0138
 6530TIP3    H141081   5.219   2.105   3.071  0.0313  0.0368 -0.7868
 6530TIP3    H241082   5.350   2.158   3.017 -0.1206 -0.2662 -1.4607
 6531TIP3   OH241083   3.415   3.453   4.362  0.2717  0.2870  0.3297
 6531TIP3    H141084   3.352   3.511   4.403 -1.5697  0.3977 -2.3931
 6531TIP3    H241085   3.434   3.387   4.429 -1.2524  1.3350  1.8741
 6532TIP3   OH241086   4.698   3.738  12.419  0.0325  0.0265  1.1528
 6532TIP3    H141087   4.694   3.760  12.326 -1.3815 -0.0108  1.1808
 6532TIP3    H241088   4.745   3.811  12.459 -0.1064  0.4672  0.5259
 6533TIP3   OH241089   1.210   6.520  15.291 -0.3020 -0.0577 -0.0916
 6533TIP3    H141090   1.214   6.432  15.254  0.3062 -0.4244  0.7972
 6533TIP3    H241091   1.126   6.555  15.263  0.6108  0.1665 -2.8177
 6534TIP3   OH241092   2.336   3.955  13.067  0.0090  0.2719  0.3186
 6534TIP3    H141093   2.369   3.913  12.987  0.6767 -2.3863  1.8414
 6534TIP3    H241094   2.400   3.931  13.134 -1.7614  0.3077  2.1238
 6535TIP3   OH241095   1.405   2.182   3.778 -0.7762 -0.1312  1.2947
 6535TIP3    H141096   1.398   2.272   3.746 -0.4009 -0.9790 -1.3565
 6535TIP3    H241097   1.497   2.171   3.800 -0.6329 -0.1685  0.6725
 6536TIP3   OH241098   2.358   4.043  16.281 -0.3643 -0.1314  0.6845
 6536TIP3    H141099   2.319   4.092  16.208 -0.8744 -1.7732 -0.2186
 6536TIP3    H241100   2.444   4.016  16.248 -0.8784 -1.4827  0.3607
 6537TIP3   OH241101   5.305   3.566  10.745 -0.5858  0.3561 -0.1431
 6537TIP3    H141102   5.295   3.507  10.819 -1.9536  0.6799 -0.0552
 6537TIP3    H241103   5.361   3.636  10.778 -1.8264  0.9147  0.8589
 6538TIP3   OH241104   0.758   6.591   1.754 -0.6691  0.4252  0.1896
 6538TIP3    H141105   0.665   6.601   1.771 -0.4979  1.9778  0.4252
 6538TIP3    H241106   0.796   6.575   1.841 -0.9808 -3.4193 -0.2220
 6539TIP3   OH241107   3.181   2.682  11.980  0.2963  0.0935 -0.1587
 6539TIP3    H141108   3.126   2.742  12.032 -1.3663  0.3412 -2.0762
 6539TIP3    H241109   3.249   2.739  11.944  0.5098  0.2257  0.4339
 6540TIP3   OH241110   2.009   5.272  12.449 -0.9375  0.4743  0.0623
 6540TIP3    H141111   1.985   5.192  12.496  1.6720  0.5394  1.6978
 6540TIP3    H241112   1.938   5.284  12.386 -0.9234 -3.7679 -1.1303
 6541TIP3   OH241113   0.141   4.483   3.092 -0.3747 -0.1197  0.4744
 6541TIP3    H141114   0.163   4.481   3.185  0.5015  0.9090  0.3077
 6541TIP3    H241115   0.217   4.524   3.050 -0.7489 -0.5745 -0.6981
 6542TIP3   OH241116   3.248   3.525  11.177 -0.6206 -0.3500 -0.0928
 6542TIP3    H141117   3.308   3.599  11.165 -0.9967 -0.0758 -0.3152
 6542TIP3    H241118   3.169   3.551  11.129 -0.0600 -1.7464 -1.8756
 6543TIP3   OH241119   1.392   3.301   3.707  0.6548  0.4549 -0.0873
 6543TIP3    H141120   1.456   3.286   3.638 -0.4278  0.7726 -1.1940
 6543TIP3    H241121   1.359   3.390   3.690 -0.0284  0.3206  0.4980
 6544TIP3   OH241122   6.025   3.302   3.670 -0.7437  0.6080 -0.5480
 6544TIP3    H141123   6.007   3.342   3.585 -1.5126 -0.6657 -1.0230
 6544TIP3    H241124   5.939   3.278   3.704 -0.2982 -1.1878 -0.5957
 6545TIP3   OH241125   4.705   4.910  15.268  0.0800  0.4667  0.5849
 6545TIP3    H141126   4.713   4.847  15.340  1.3268  1.6290  1.5294
 6545TIP3    H241127   4.791   4.908  15.226 -0.5410  0.0325 -0.7113
 6546TIP3   OH241128   0.049   6.642  14.222 -0.0645 -0.0617 -0.0120
 6546TIP3    H141129   0.076   6.550  14.230  1.8431  0.5480  1.2927
 6546TIP3    H241130   0.108   6.689  14.281 -3.0445  1.6591  1.8314
 6547TIP3   OH241131   0.138   1.805  13.953 -0.0689 -0.4723  0.4954
 6547TIP3    H141132   0.216   1.819  14.007  1.2038 -0.3401 -1.3075
 6547TIP3    H241133   0.147   1.717  13.919 -0.2101 -0.1252 -0.4733
 6548TIP3   OH241134   0.674   0.864  13.780 -0.5534  0.3194 -0.0976
 6548TIP3    H141135   0.671   0.790  13.719  1.7453  1.1853 -1.3727
 6548TIP3    H241136   0.633   0.936  13.733  0.4744  0.7702 -0.3369
 6549TIP3   OH241137   6.267   6.013   4.828 -0.0297  0.0546  0.0123
 6549TIP3    H141138   6.334   5.947   4.810  2.6370  2.4997  0.3866
 6549TIP3    H241139   6.237   6.040   4.741  2.0040  1.3172 -0.3506
 6550TIP3   OH241140   5.993   3.969   0.126 -0.0699  0.1847  0.3127
 6550TIP3    H141141   5.905   3.973   0.164  0.6735  1.6022  2.0553
 6550TIP3    H241142   6.022   3.879   0.143 -1.2294 -0.3655 -0.4738
 6551TIP3   OH241143   3.220   5.296  11.299 -0.8973 -0.2398  0.0903
 6551TIP3    H141144   3.154   5.253  11.244 -1.3606 -1.0602  1.2481
 6551TIP3    H241145   3.210   5.255  11.385  1.1967 -0.4434  0.2787
 6552TIP3   OH241146   5.647   4.252  16.096 -0.4512  0.5647  0.4717
 6552TIP3    H141147   5.692   4.333  16.072 -1.0929  1.1782  1.2717
 6552TIP3    H241148   5.583   4.239  16.025 -1.5612  1.7487  1.2108
 6553TIP3   OH241149   4.903   2.216   2.234  0.9721  0.2556 -0.3057
 6553TIP3    H141150   4.908   2.215   2.139  0.7296  0.4279 -0.3228
 6553TIP3    H241151   4.872   2.128   2.258 -1.1549  0.8720 -0.5335
 6554TIP3   OH241152   5.667   1.274  13.763 -0.1990  0.6311 -0.0295
 6554TIP3    H141153   5.693   1.335  13.693 -0.1985  0.5461 -0.1029
 6554TIP3    H241154   5.627   1.201  13.717 -0.3990  0.6755  0.0725
 6555TIP3   OH241155   2.770   1.179   0.343  0.1219 -0.0124  0.4882
 6555TIP3    H141156   2.827   1.102   0.340  1.5520  0.9627  1.3333
 6555TIP3    H241157   2.722   1.170   0.426  1.8540  1.0133  1.6612
 6556TIP3   OH241158   5.338   0.655  12.303  0.0391 -0.2421 -0.1347
 6556TIP3    H141159   5.362   0.700  12.385  0.7668 -0.3268 -0.2990
 6556TIP3    H241160   5.244   0.642  12.311  0.1571 -0.5967  0.8738
 6557TIP3   OH241161   0.572   6.251   2.243 -0.0956 -0.1340 -0.3832
 6557TIP3    H141162   0.654   6.268   2.288 -0.5100 -1.3389  0.9035
 6557TIP3    H241163   0.504   6.280   2.305 -0.6508 -0.3644 -0.8751
 6558TIP3   OH241164   5.693   4.160   1.055  0.1344  0.2651  0.2014
 6558TIP3    H141165   5.616   4.205   1.090 -0.1781  1.1900 -1.5315
 6558TIP3    H241166   5.658   4.104   0.986  1.0990  2.0643 -1.8861
 6559TIP3   OH241167   4.983   0.934  16.608 -0.4229 -0.2665 -0.1553
 6559TIP3    H141168   5.074   0.931  16.637  0.4473 -1.2193 -2.7259
 6559TIP3    H241169   4.936   0.876  16.668  0.5054  0.6887  1.5582
 6560TIP3   OH241170   0.800   6.234  11.042  0.3469 -0.1217 -0.2119
 6560TIP3    H141171   0.710   6.261  11.058 -0.1681 -1.3404 -0.9877
 6560TIP3    H241172   0.811   6.154  11.094  0.8274 -0.2481 -0.4975
 6561TIP3   OH241173   1.390   4.276   3.594 -0.1149  0.0584 -0.1501
 6561TIP3    H141174   1.397   4.340   3.665 -1.9073 -1.0311  1.1066
 6561TIP3    H241175   1.443   4.312   3.524  2.9347  0.5333  2.1780
 6562TIP3   OH241176   1.703   4.399  13.175  0.2220 -0.2227  0.0767
 6562TIP3    H141177   1.674   4.404  13.084  3.1595  0.5392 -0.9265
 6562TIP3    H241178   1.653   4.326  13.211  0.6949 -2.2090 -2.8765
 6563TIP3   OH241179   5.135   4.295  15.918  0.2334  0.1514 -0.0751
 6563TIP3    H141180   5.176   4.332  15.839  1.1881  0.5550  0.5893
 6563TIP3    H241181   5.085   4.368  15.954 -0.2709 -0.0569 -0.3411
 6564TIP3   OH241182   5.756   0.882   0.158 -0.3125  0.1972 -0.8576
 6564TIP3    H141183   5.728   0.814   0.219  2.2752  0.2761  0.5656
 6564TIP3    H241184   5.675   0.924   0.129 -1.9081 -2.7628 -0.9876
 6565TIP3   OH241185   5.190   5.899   6.543 -0.0994 -0.2351 -0.3783
 6565TIP3    H141186   5.244   5.849   6.481 -0.3767  0.6046 -1.3332
 6565TIP3    H241187   5.115   5.843   6.561  0.8283 -1.2032  0.5576
 6566TIP3   OH241188   3.094   5.094   5.222 -0.5122 -0.3411 -0.1907
 6566TIP3    H141189   3.049   5.091   5.137 -2.2141  0.5710  0.6257
 6566TIP3    H241190   3.077   5.009   5.262 -0.2512 -0.5362 -0.4921
 6567TIP3   OH241191   5.185   5.561   2.526 -0.3039  0.2196 -0.5392
 6567TIP3    H141192   5.216   5.589   2.439  2.1568 -1.0975 -0.1800
 6567TIP3    H241193   5.123   5.491   2.507 -0.3908  0.4787 -1.2563
 6568TIP3   OH241194   6.410   3.704  15.625  0.3818  0.4584 -0.3009
 6568TIP3    H141195   6.415   3.773  15.692  2.4603 -0.3103  0.4127
 6568TIP3    H241196   6.460   3.740  15.552 -2.4324  1.5767 -1.8294
 6569TIP3   OH241197   3.000   2.485  11.009  0.1291  1.1940 -0.5968
 6569TIP3    H141198   2.912   2.452  11.026 -0.1093  2.2502  0.4131
 6569TIP3    H241199   3.018   2.462  10.918  0.2009 -2.0583  0.1254
 6570TIP3   OH241200   1.270   3.903   1.261  0.4525 -0.0188  0.9439
 6570TIP3    H141201   1.216   3.824   1.258 -1.0490  0.8356  3.0793
 6570TIP3    H241202   1.324   3.893   1.339 -0.4393  1.4368  1.7917
 6571TIP3   OH241203   3.164   2.096   2.856 -0.0782 -0.1220  0.6846
 6571TIP3    H141204   3.073   2.106   2.886 -0.4252  1.3699 -0.7159
 6571TIP3    H241205   3.197   2.185   2.851  1.0549 -0.5708 -0.0731
 6572TIP3   OH241206   2.897   3.080  14.060 -0.0943  0.0641  0.6010
 6572TIP3    H141207   2.954   3.080  13.983 -2.6940  0.7185 -1.4774
 6572TIP3    H241208   2.863   2.991  14.065  0.2260 -0.0302  1.1404
 6573TIP3   OH241209   3.140   5.999   0.790  0.2585 -0.4083  0.5636
 6573TIP3    H141210   3.142   5.903   0.782  1.8636 -0.4776  1.2420
 6573TIP3    H241211   3.049   6.020   0.811 -0.6427 -1.5531 -1.8360
 6574TIP3   OH241212   4.289   0.431  11.266 -0.5458  0.2358  0.2394
 6574TIP3    H141213   4.243   0.513  11.283 -0.5929  0.3834 -0.5855
 6574TIP3    H241214   4.229   0.380  11.212 -0.5821 -0.4106  0.8755
 6575TIP3   OH241215   1.375   5.546  17.023 -0.5756 -0.2914  0.0641
 6575TIP3    H141216   1.350   5.551  16.931  1.5216  0.4672 -0.5235
 6575TIP3    H241217   1.319   5.478  17.060 -0.7151 -1.3881 -2.0300
 6576TIP3   OH241218   0.553   0.506  17.091  0.2417  0.3616 -0.0965
 6576TIP3    H141219   0.614   0.526  17.020 -0.7419 -0.9298 -1.3749
 6576TIP3    H241220   0.530   0.414  17.078 -0.6129  0.3224  1.4178
 6577TIP3   OH241221   1.673   0.972   4.048 -1.2107  0.2632  0.6633
 6577TIP3    H141222   1.696   1.019   4.128 -1.7271  0.7069  0.5588
 6577TIP3    H241223   1.748   0.983   3.990 -0.4800 -0.7665  1.3857
 6578TIP3   OH241224   1.341   0.453  14.434  0.1005  0.0487  0.0467
 6578TIP3    H141225   1.315   0.388  14.369  1.8671  0.5157 -1.1980
 6578TIP3    H241226   1.354   0.403  14.514 -1.7763 -0.5938  0.0103
 6579TIP3   OH241227   4.466   4.675  11.427  0.2983  0.5547 -0.0705
 6579TIP3    H141228   4.382   4.631  11.419 -0.5673  2.0980  0.1350
 6579TIP3    H241229   4.526   4.622  11.374 -0.2261 -1.8862  1.6332
 6580TIP3   OH241230   2.331   0.962  11.179 -0.0216 -0.5220  0.2072
 6580TIP3    H141231   2.382   1.035  11.143 -0.4587  0.2930  1.1982
 6580TIP3    H241232   2.389   0.886  11.169  0.8234  0.1261  0.0032
 6581TIP3   OH241233   3.908   2.932   0.051 -0.1605 -0.3383  0.2066
 6581TIP3    H141234   3.955   2.999   0.102 -1.2031 -0.2455  1.0785
 6581TIP3    H241235   3.913   2.853   0.104 -1.2320 -0.2475  0.4758
 6582TIP3   OH241236   4.521   3.013   2.586  0.6221  0.4885 -0.4936
 6582TIP3    H141237   4.580   3.070   2.634 -1.8643  1.8100  1.1949
 6582TIP3    H241238   4.493   3.065   2.510  0.5155  0.4437 -0.4858
 6583TIP3   OH241239   1.275   0.223  14.239  1.0008  0.2440 -0.0207
 6583TIP3    H141240   1.343   0.252  14.179  1.6460  0.3426  0.7496
 6583TIP3    H241241   1.212   0.178  14.183  1.1314  1.1171 -0.9007
 6584TIP3   OH241242   3.855   4.077  15.957  0.1597  0.4708  0.1738
 6584TIP3    H141243   3.898   4.086  16.042  0.1199 -1.3013  0.4278
 6584TIP3    H241244   3.843   3.982  15.946 -1.0927  0.7414 -1.1784
 6585TIP3   OH241245   6.056   0.873   3.733  0.0086  0.1044 -0.1956
 6585TIP3    H141246   6.018   0.961   3.728 -0.4664 -0.1329 -0.9386
 6585TIP3    H241247   6.035   0.833   3.648 -0.3746 -0.9648  0.3914
 6586TIP3   OH241248   4.300   5.134  14.986  0.1006 -0.3491  0.5110
 6586TIP3    H141249   4.373   5.128  15.049 -0.1895 -1.8533  0.7520
 6586TIP3    H241250   4.231   5.081  15.026 -0.5867 -0.1716 -0.4301
 6587TIP3   OH241251   3.794   2.466   5.936  0.5034 -0.0804 -0.4177
 6587TIP3    H141252   3.798   2.502   5.848  0.9442  0.6172 -0.1252
 6587TIP3    H241253   3.869   2.406   5.941  0.3331 -0.3095 -0.5937
 6588TIP3   OH241254   6.289   4.932  17.453  0.1437  0.2498  0.0126
 6588TIP3    H141255   6.299   4.869  17.381  2.5622  0.1148  0.3562
 6588TIP3    H241256   6.353   4.902  17.519 -0.2202  1.8126  1.1267
 6589TIP3   OH241257   5.707   1.661   2.320  0.2448 -0.6956  0.3206
 6589TIP3    H141258   5.770   1.709   2.268  1.2720 -0.2324  1.9164
 6589TIP3    H241259   5.623   1.676   2.277  0.7720  1.2305 -0.1071
 6590TIP3   OH241260   1.986   4.969  14.787  0.2284 -0.2104 -0.3368
 6590TIP3    H141261   2.035   4.922  14.854  1.4277  1.2768 -0.1049
 6590TIP3    H241262   1.961   4.902  14.724 -1.6036 -1.7964  1.9148
 6591TIP3   OH241263   0.458   5.414  12.248 -0.2569  0.3020  0.3172
 6591TIP3    H141264   0.381   5.381  12.203 -0.5384 -1.4721  1.9585
 6591TIP3    H241265   0.424   5.452  12.329  0.5796 -1.5313  1.6168
 6592TIP3   OH241266   4.902   0.075  10.996 -0.4159  0.3728 -0.1375
 6592TIP3    H141267   4.814   0.063  10.958 -0.6941 -0.3041  0.6918
 6592TIP3    H241268   4.955   0.006  10.956 -0.3476  0.5400 -0.3425
 6593TIP3   OH241269   4.400   5.451  13.933 -0.0749 -0.0912 -0.2424
 6593TIP3    H141270   4.484   5.434  13.974 -0.6729 -3.0990 -0.0270
 6593TIP3    H241271   4.411   5.421  13.842 -0.5404  0.7478 -0.5876
 6594TIP3   OH241272   5.550   4.576   2.688  0.3994 -0.3989  0.7886
 6594TIP3    H141273   5.635   4.547   2.656  0.0001  0.8292 -1.6062
 6594TIP3    H241274   5.570   4.638   2.758  1.4170 -1.1020  1.1290
 6595TIP3   OH241275   6.047   4.129  15.375  0.2260 -0.3652  0.1798
 6595TIP3    H141276   5.970   4.183  15.388  0.3101 -0.2656  0.2636
 6595TIP3    H241277   6.076   4.150  15.286  0.4743  0.0047  0.3462
 6596TIP3   OH241278   1.695   3.059  16.026 -0.3363  0.2239 -0.0776
 6596TIP3    H141279   1.614   3.109  16.032 -1.4798 -1.5163 -0.0733
 6596TIP3    H241280   1.732   3.081  15.941 -0.3641  1.6676  0.2721
 6597TIP3   OH241281   4.940   3.680  14.330  0.5139 -0.1312 -0.0825
 6597TIP3    H141282   4.997   3.651  14.258 -0.3984  0.5915 -1.1281
 6597TIP3    H241283   4.992   3.743  14.378  2.3296 -2.9081  1.8775
 6598TIP3   OH241284   5.364   1.977  13.621 -0.1276 -0.1911 -0.1421
 6598TIP3    H141285   5.312   2.056  13.608  0.5144  0.0154 -1.6712
 6598TIP3    H241286   5.443   1.991  13.570  1.1143 -0.8269  1.5165
 6599TIP3   OH241287   3.740   1.292   3.279  0.1542 -0.2816  0.0169
 6599TIP3    H141288   3.814   1.276   3.337 -0.1254 -1.2487  0.1315
 6599TIP3    H241289   3.702   1.374   3.310  1.7100  0.7150 -0.6290
 6600TIP3   OH241290   3.304   3.490   0.420 -0.2329 -0.4438 -0.0760
 6600TIP3    H141291   3.313   3.551   0.347  1.2784  1.7143  1.7783
 6600TIP3    H241292   3.213   3.500   0.448 -0.2451  0.2979 -0.3588
 6601TIP3   OH241293   0.873   6.022   5.777 -0.2303  0.3940  0.8823
 6601TIP3    H141294   0.884   5.986   5.689 -1.1497  0.6195  0.6648
 6601TIP3    H241295   0.895   5.950   5.836 -0.2182  0.0565  0.4653
 6602TIP3   OH241296   3.669   6.533  12.853 -0.8296  0.1678  0.1231
 6602TIP3    H141297   3.689   6.479  12.929 -0.9187 -2.1281 -1.3674
 6602TIP3    H241298   3.592   6.584  12.878 -1.8963 -1.7901  1.0477
 6603TIP3   OH241299   5.701   3.039   6.425  0.2811  0.1063 -0.2383
 6603TIP3    H141300   5.745   2.954   6.426  0.1718  0.0524  0.0918
 6603TIP3    H241301   5.767   3.100   6.459 -0.2308 -0.1439  1.2734
 6604TIP3   OH241302   0.761   6.015  12.486  0.2870  0.7476  0.0578
 6604TIP3    H141303   0.840   5.970  12.515 -0.6890 -0.6271  0.6970
 6604TIP3    H241304   0.780   6.108  12.500  0.7617  0.3243  3.0510
 6605TIP3   OH241305   3.034   2.273  14.979  0.3632  0.6141 -0.5326
 6605TIP3    H141306   3.123   2.262  15.011  0.1379  2.9016  1.0860
 6605TIP3    H241307   3.031   2.219  14.899  2.6026 -0.9278  0.3210
 6606TIP3   OH241308   1.476   0.173  16.685  0.1920  0.1144 -0.7170
 6606TIP3    H141309   1.534   0.108  16.644  0.1494 -0.5041  0.1851
 6606TIP3    H241310   1.476   0.246  16.623 -0.9801 -1.3267 -2.5500
 6607TIP3   OH241311   5.221   2.844   6.657  0.6444  0.0496 -0.4941
 6607TIP3    H141312   5.236   2.750   6.668 -0.9885 -0.1591  0.2889
 6607TIP3    H241313   5.308   2.883   6.656  1.3044 -1.3314  0.4991
 6608TIP3   OH241314   5.533   5.035   2.432  0.6908  0.5113 -0.2326
 6608TIP3    H141315   5.538   5.079   2.347 -0.3880  2.2830  0.5710
 6608TIP3    H241316   5.481   5.093   2.486  1.5625 -0.4494  1.7431
 6609TIP3   OH241317   2.654   1.884  11.778  0.0768  0.2966  0.4322
 6609TIP3    H141318   2.642   1.954  11.714 -0.1554  2.0340  2.2792
 6609TIP3    H241319   2.742   1.850  11.760 -1.0875 -1.4264 -2.7232
 6610TIP3   OH241320   1.690   4.096   5.677  0.1537  0.1669  0.2823
 6610TIP3    H141321   1.715   4.072   5.588  1.2906 -1.9459  1.0907
 6610TIP3    H241322   1.599   4.065   5.685  0.1514  0.0793 -0.0554
 6611TIP3   OH241323   1.705   1.580   4.852 -0.1026  0.1516  0.3490
 6611TIP3    H141324   1.630   1.571   4.793 -0.3428  1.6066  0.3917
 6611TIP3    H241325   1.670   1.625   4.928  1.0670  2.1654 -0.2222
 6612TIP3   OH241326   3.913   3.573  12.451 -0.4933  0.5522  0.2072
 6612TIP3    H141327   3.986   3.625  12.484 -1.4455  1.4624  0.9734
 6612TIP3    H241328   3.835   3.621  12.480 -1.4140  0.9425 -2.6509
 6613TIP3   OH241329   3.227   0.460   1.726  0.2295 -0.2274  0.4790
 6613TIP3    H141330   3.271   0.496   1.649 -1.5115  1.9614  0.3939
 6613TIP3    H241331   3.188   0.378   1.695 -2.0401  1.4987 -1.6636
 6614TIP3   OH241332   5.404   4.347  15.567  0.7611  0.3276  0.4103
 6614TIP3    H141333   5.476   4.312  15.515  0.6208  0.1196  0.3575
 6614TIP3    H241334   5.340   4.276  15.571  0.4741  0.5786  0.2988
 6615TIP3   OH241335   0.408   1.974  17.127  0.3310 -0.6159  0.1180
 6615TIP3    H141336   0.379   2.057  17.089  0.1654 -1.1386 -0.9480
 6615TIP3    H241337   0.332   1.916  17.118  0.2936 -0.7662  1.2664
 6616TIP3   OH241338   0.107   0.163   4.288  0.0482 -0.1937 -0.3091
 6616TIP3    H141339   0.014   0.172   4.268  0.0720  0.3533 -0.1751
 6616TIP3    H241340   0.122   0.068   4.288 -1.4196 -0.6103  3.8330
 6617TIP3   OH241341   5.816   2.285  13.125 -0.4920  0.2298 -0.0040
 6617TIP3    H141342   5.806   2.323  13.212 -0.9048  0.2788 -0.0716
 6617TIP3    H241343   5.774   2.348  13.066 -0.0730  0.2767 -0.2582
 6618TIP3   OH241344   5.594   2.133  10.511 -0.1117 -0.3544  0.2941
 6618TIP3    H141345   5.673   2.083  10.495 -1.0329 -2.0775  0.9048
 6618TIP3    H241346   5.523   2.079  10.475 -0.9454  1.7616 -1.5473
 6619TIP3   OH241347   2.671   4.260   0.169  0.9875 -0.3574 -0.0908
 6619TIP3    H141348   2.695   4.237   0.079  0.4202  0.6656 -0.5222
 6619TIP3    H241349   2.676   4.177   0.217  0.5317 -1.0830 -1.2425
 6620TIP3   OH241350   0.471   0.115  13.265 -0.3641  0.5343 -0.8261
 6620TIP3    H141351   0.497   0.047  13.328  3.9792  3.0448  0.5043
 6620TIP3    H241352   0.503   0.083  13.181  0.3792  0.2836 -0.4568
 6621TIP3   OH241353   5.038   5.835   1.601 -0.4085  0.3023  0.0125
 6621TIP3    H141354   5.039   5.761   1.662 -1.0746  0.1228 -0.1850
 6621TIP3    H241355   5.037   5.795   1.514 -0.0484  0.5527 -0.1093
 6622TIP3   OH241356   6.736   4.141  11.591 -0.1371 -0.1028 -0.3667
 6622TIP3    H141357   6.705   4.065  11.640 -0.0305  0.6106  0.8345
 6622TIP3    H241358   6.780   4.196  11.656 -0.7222  1.2818 -1.0906
 6623TIP3   OH241359   4.671   3.754   0.055  0.2139  0.0321  0.4540
 6623TIP3    H141360   4.586   3.784   0.022  0.8984  1.1385 -0.3569
 6623TIP3    H241361   4.650   3.677   0.108 -1.2280 -0.0558 -0.2002
 6624TIP3   OH241362   1.348   2.406  15.802  0.2021 -0.1020 -0.0918
 6624TIP3    H141363   1.270   2.356  15.781  0.3700 -0.5123  0.2529
 6624TIP3    H241364   1.319   2.472  15.865  0.5760 -1.8027  1.9800
 6625TIP3   OH241365   4.892   6.487  11.041 -0.1880 -0.2534  0.4346
 6625TIP3    H141366   4.859   6.529  10.961  0.8923  1.3613  0.7928
 6625TIP3    H241367   4.889   6.393  11.022 -1.7843 -0.0054 -0.7623
 6626TIP3   OH241368   2.693   1.774  15.711  0.0399  0.3293  0.0722
 6626TIP3    H141369   2.760   1.819  15.764  0.7684 -1.4333  0.7013
 6626TIP3    H241370   2.610   1.799  15.751  0.4540  0.6963  0.7225
 6627TIP3   OH241371   1.138   2.881  11.916  0.3813 -0.3381  0.1985
 6627TIP3    H141372   1.098   2.828  11.847  0.8257 -1.6009  0.8760
 6627TIP3    H241373   1.069   2.890  11.983 -1.2987  3.7499 -1.6935
 6628TIP3   OH241374   2.783   3.852  16.960  0.1827  0.2920 -0.2027
 6628TIP3    H141375   2.874   3.882  16.952  0.8925 -1.6761 -0.0685
 6628TIP3    H241376   2.754   3.839  16.870  0.0242  0.9142 -0.2458
 6629TIP3   OH241377   6.268   1.079  15.577  0.4655  0.0646  0.1175
 6629TIP3    H141378   6.234   1.048  15.494  1.6953 -1.4560  0.1435
 6629TIP3    H241379   6.236   1.169  15.584 -0.5915 -0.1604 -1.4505
 6630TIP3   OH241380   2.888   1.488  14.999  0.0649 -0.8661 -0.1715
 6630TIP3    H141381   2.911   1.544  14.925  1.8184 -0.3680  0.7143
 6630TIP3    H241382   2.943   1.411  14.989  1.1197 -0.3255  1.1686
 6631TIP3   OH241383   2.000   5.486  12.634 -0.1523 -0.3789 -0.1997
 6631TIP3    H141384   2.014   5.395  12.608 -0.2345  0.0133 -1.7767
 6631TIP3    H241385   2.085   5.515  12.668 -0.0574 -0.9795  0.0797
 6632TIP3   OH241386   6.191   3.792  14.248 -0.4135  0.3658 -0.2914
 6632TIP3    H141387   6.273   3.791  14.297 -0.7748  0.0044  0.3209
 6632TIP3    H241388   6.130   3.741  14.302 -1.1698  1.0169 -0.5182
 6633TIP3   OH241389   0.204   3.459  15.032 -0.0499  0.3219  0.1367
 6633TIP3    H141390   0.108   3.452  15.035 -0.2404  2.4358  1.6838
 6633TIP3    H241391   0.235   3.382  15.080 -0.6430 -2.8964 -4.0900
 6634TIP3   OH241392   6.331   0.632  12.535  0.3673  0.2454 -0.2280
 6634TIP3    H141393   6.283   0.573  12.592  1.0312 -0.3000 -0.2146
 6634TIP3    H241394   6.419   0.593  12.529  0.3108  0.2825 -1.6164
 6635TIP3   OH241395   4.503   2.681  12.848  0.4163  0.2608  0.1468
 6635TIP3    H141396   4.446   2.748  12.809  0.4234  0.1888  0.0125
 6635TIP3    H241397   4.581   2.682  12.793  0.4267  0.1580  0.1608
 6636TIP3   OH241398   3.775   1.329   4.609 -0.2573  0.0295  0.2486
 6636TIP3    H141399   3.792   1.235   4.599 -0.6728 -0.0797  0.5211
 6636TIP3    H241400   3.824   1.354   4.688  1.2874  0.4314 -0.7971
 6637TIP3   OH241401   4.987   1.890   5.893  0.3462 -0.0088  0.3526
 6637TIP3    H141402   5.072   1.908   5.933  0.2427  0.5291  0.3391
 6637TIP3    H241403   4.973   1.962   5.832 -0.0167 -0.2168  0.1830
 6638TIP3   OH241404   2.584   1.247  16.897  0.4191  0.2269  0.0206
 6638TIP3    H141405   2.596   1.158  16.929 -2.4627 -0.2599  0.0913
 6638TIP3    H241406   2.507   1.279  16.945 -0.7040  1.4704 -2.4147
 6639TIP3   OH241407   2.756   2.664   5.263  0.5141  0.4034 -0.4503
 6639TIP3    H141408   2.694   2.737   5.268 -1.8400 -1.5618  2.5521
 6639TIP3    H241409   2.832   2.695   5.312 -0.7485  0.7177  1.4657
 6640TIP3   OH241410   1.899   3.999   5.001  0.3342 -0.0480 -0.2127
 6640TIP3    H141411   1.958   3.945   5.055 -1.1548 -1.0738  0.4454
 6640TIP3    H241412   1.811   3.969   5.023 -0.5647  2.3749 -0.1513
 6641TIP3   OH241413   2.481   6.364  16.130 -0.3028  0.0016 -0.4607
 6641TIP3    H141414   2.416   6.334  16.194  1.4580 -0.8996  0.9802
 6641TIP3    H241415   2.498   6.287  16.075  0.7236 -0.2631  0.2096
 6642TIP3   OH241416   3.357   0.924  14.037 -0.2759  0.3303 -0.2914
 6642TIP3    H141417   3.293   0.988  14.068  0.9204  0.8649  1.2461
 6642TIP3    H241418   3.440   0.972  14.038  0.5945 -1.1402  0.5288
 6643TIP3   OH241419   4.114   0.946   2.798 -0.0836 -0.3139 -0.0917
 6643TIP3    H141420   4.026   0.951   2.837  0.7692 -2.1324  2.3362
 6643TIP3    H241421   4.104   0.887   2.724 -0.8459 -0.8759  0.4380
 6644TIP3   OH241422   5.179   2.526   0.110  0.5394  0.3006  0.1879
 6644TIP3    H141423   5.259   2.531   0.162  1.6484  2.1390 -1.5577
 6644TIP3    H241424   5.190   2.448   0.055  0.7115  0.0456  0.5828
 6645TIP3   OH241425   5.358   6.362  14.899 -0.1149  0.0104 -0.2225
 6645TIP3    H141426   5.423   6.310  14.851  1.1714  0.5339  0.8889
 6645TIP3    H241427   5.374   6.452  14.871  0.6171  0.3190  1.0675
 6646TIP3   OH241428   6.177   5.104   2.871  0.1497 -0.4436 -0.5563
 6646TIP3    H141429   6.236   5.163   2.919  0.7969 -0.0023 -1.8355
 6646TIP3    H241430   6.229   5.074   2.796 -1.1209 -0.3214 -1.5334
 6647TIP3   OH241431   0.380   3.704   3.563  0.4194 -0.2319 -0.5192
 6647TIP3    H141432   0.364   3.701   3.657 -1.3685 -0.1648 -0.7833
 6647TIP3    H241433   0.444   3.775   3.552 -0.0664  0.4010  0.5669
 6648TIP3   OH241434   6.731   4.085   1.056 -0.0683  0.2265 -0.8742
 6648TIP3    H141435   6.803   4.033   1.021  0.0236  0.5568 -1.1823
 6648TIP3    H241436   6.733   4.166   1.005 -0.2908  0.4789 -0.4871
 6649TIP3   OH241437   0.356   2.394  15.714 -0.3484 -0.1405 -0.1608
 6649TIP3    H141438   0.294   2.452  15.670 -1.1837 -1.2752 -0.5128
 6649TIP3    H241439   0.349   2.417  15.806  0.3864  1.2864 -0.4246
 6650TIP3   OH241440   5.573   1.498  14.675 -0.7995 -0.0618  0.3073
 6650TIP3    H141441   5.602   1.550  14.601 -2.1321 -0.4506 -0.5182
 6650TIP3    H241442   5.480   1.484  14.660 -0.7372 -1.6261  1.1527
 6651TIP3   OH241443   3.855   0.087  15.826 -0.0534 -0.3972 -0.1393
 6651TIP3    H141444   3.796   0.036  15.772  0.3476  0.2214 -1.2067
 6651TIP3    H241445   3.821   0.176  15.822  0.5621 -0.1577 -0.2113
 6652TIP3   OH241446   4.224   1.063   4.199  0.1902 -0.1112  0.0743
 6652TIP3    H141447   4.246   0.974   4.223  0.7987 -0.4588 -1.6491
 6652TIP3    H241448   4.133   1.074   4.228 -0.4187 -1.8254 -1.0373
 6653TIP3   OH241449   5.045   0.956  17.056 -0.2956  0.9008  0.3490
 6653TIP3    H141450   4.956   0.991  17.049  0.2683  2.3528  0.0761
 6653TIP3    H241451   5.060   0.947  17.150 -0.5058  1.2346  0.4148
 6654TIP3   OH241452   6.558   1.674  11.017  0.3181  0.2646  0.0348
 6654TIP3    H141453   6.653   1.659  11.017  0.2632 -0.1095  0.2227
 6654TIP3    H241454   6.521   1.588  11.036 -0.0350  0.5902  0.8714
 6655TIP3   OH241455   1.470   5.629   1.530  0.0954 -0.1659 -0.2700
 6655TIP3    H141456   1.467   5.629   1.435 -0.2913  0.6071 -0.2733
 6655TIP3    H241457   1.482   5.722   1.553  0.7388 -0.4144  0.4171
 6656TIP3   OH241458   6.427   5.750   2.139 -0.1887  0.2171  0.1599
 6656TIP3    H141459   6.372   5.800   2.200 -0.3347  1.0336 -0.6183
 6656TIP3    H241460   6.477   5.690   2.195 -3.0904 -1.8236  0.8028
 6657TIP3   OH241461   3.161   0.820  14.941 -0.0491 -0.2058  0.1158
 6657TIP3    H141462   3.086   0.858  14.896 -1.1806  0.4527  2.3643
 6657TIP3    H241463   3.221   0.894  14.954  0.0495 -0.2808  0.0819
 6658TIP3   OH241464   5.899   5.449  17.229  0.2764  0.1130  0.0068
 6658TIP3    H141465   5.943   5.396  17.296  0.6521  1.3066  0.7524
 6658TIP3    H241466   5.854   5.517  17.279 -0.8759  0.0128 -0.8763
 6659TIP3   OH241467   0.573   4.557   2.046 -0.5710 -0.5325  0.0762
 6659TIP3    H141468   0.498   4.589   1.995  1.0378 -0.5260 -2.4550
 6659TIP3    H241469   0.584   4.622   2.115 -0.6096  1.5709 -1.7888
 6660TIP3   OH241470   2.704   3.960  14.928 -0.1951 -0.2356  0.4992
 6660TIP3    H141471   2.714   3.869  14.900 -1.5904 -0.5292  0.8515
 6660TIP3    H241472   2.761   4.010  14.871 -0.2255 -1.2247 -0.4160
 6661TIP3   OH241473   6.058   4.793   3.585 -0.5602 -0.2547 -0.2810
 6661TIP3    H141474   6.042   4.745   3.666  1.2866 -0.8670 -0.2371
 6661TIP3    H241475   6.005   4.746   3.520  0.2101 -1.5979  0.0147
 6662TIP3   OH241476   5.292   2.289   1.172  0.2097  0.5463 -0.1871
 6662TIP3    H141477   5.260   2.200   1.157  0.6360  0.3418  0.0710
 6662TIP3    H241478   5.263   2.339   1.096  2.5205 -0.5092 -1.9017
 6663TIP3   OH241479   4.916   3.253  17.426 -0.1600 -0.6453 -0.1973
 6663TIP3    H141480   4.995   3.201  17.428 -1.3234 -2.4863  1.7838
 6663TIP3    H241481   4.853   3.200  17.376 -1.1253 -0.8222  1.1612
 6664TIP3   OH241482   3.768   1.247   1.125  0.1529  0.1843 -0.1504
 6664TIP3    H141483   3.736   1.256   1.036 -0.1905  0.2174 -0.0242
 6664TIP3    H241484   3.738   1.327   1.170  0.9304  0.5053 -0.1887
 6665TIP3   OH241485   0.561   0.915  14.140  0.0247  0.4785  0.1125
 6665TIP3    H141486   0.636   0.878  14.094  1.0670  1.7000  0.7692
 6665TIP3    H241487   0.596   0.945  14.223 -1.4001  0.2306  0.8439
 6666TIP3   OH241488   4.488   4.774  16.801 -0.4268 -0.4943  0.2639
 6666TIP3    H141489   4.505   4.776  16.895 -0.3838  1.2295  0.2402
 6666TIP3    H241490   4.404   4.727  16.793  0.1265 -1.6605  1.0430
 6667TIP3   OH241491   1.862   2.358  16.922  0.0872 -0.3625  0.0489
 6667TIP3    H141492   1.950   2.330  16.947 -0.6859 -0.3129  3.2467
 6667TIP3    H241493   1.876   2.415  16.846  2.9770  0.6475  1.1796
 6668TIP3   OH241494   5.251   5.580  12.532 -0.5111  0.3033  0.2903
 6668TIP3    H141495   5.340   5.613  12.527  0.9425 -3.0946  1.0726
 6668TIP3    H241496   5.196   5.658  12.531  2.4621  2.5434  0.2943
 6669TIP3   OH241497   0.179   4.034  15.241  0.5129 -0.5924 -0.3092
 6669TIP3    H141498   0.225   4.000  15.318 -0.0793 -0.7911 -0.0381
 6669TIP3    H241499   0.129   3.960  15.208  1.7668 -0.8654 -1.6615
 6670TIP3   OH241500   2.802   0.570   3.240 -0.4212 -0.0621 -0.4155
 6670TIP3    H141501   2.807   0.609   3.153  3.2028 -1.4186 -0.9591
 6670TIP3    H241502   2.829   0.640   3.300  1.2139 -0.2757 -0.8689
 6671TIP3   OH241503   3.958   3.913   3.883 -0.7295 -0.6003 -0.3822
 6671TIP3    H141504   3.965   3.818   3.893  0.3540 -0.3345  2.0201
 6671TIP3    H241505   3.927   3.944   3.968  0.0587  1.2994 -0.7371
 6672TIP3   OH241506   5.978   6.567   5.831  0.2284 -0.2247 -0.1139
 6672TIP3    H141507   6.017   6.576   5.918 -0.0669  0.0459 -0.0052
 6672TIP3    H241508   5.918   6.493   5.840  4.0759 -3.8846 -1.5245
 6673TIP3   OH241509   2.027   4.530  16.879 -0.9829  0.1807  0.2294
 6673TIP3    H141510   2.114   4.558  16.908 -0.6759  0.5325 -0.9656
 6673TIP3    H241511   1.967   4.582  16.933 -0.5240 -1.1018  2.0896
 6674TIP3   OH241512   1.801   2.317   5.072  0.3682  0.0399 -0.0188
 6674TIP3    H141513   1.793   2.322   5.168 -0.5871 -0.6165 -0.0397
 6674TIP3    H241514   1.853   2.393   5.048 -0.3658  0.8795  0.9309
 6675TIP3   OH241515   2.994   6.543  14.413 -0.3044  0.1391  0.2678
 6675TIP3    H141516   3.049   6.514  14.486 -0.2671  0.4814  0.3756
 6675TIP3    H241517   2.980   6.636  14.428  1.0644  0.6057 -1.0237
 6676TIP3   OH241518   6.327   0.237  11.665  0.1174  0.0596  0.3367
 6676TIP3    H141519   6.325   0.253  11.759 -0.6099  1.2053  0.1498
 6676TIP3    H241520   6.235   0.239  11.638  0.1749 -1.8526 -0.1785
 6677TIP3   OH241521   0.870   2.055  16.472 -0.1793  0.1744  0.3303
 6677TIP3    H141522   0.965   2.042  16.478 -0.4214 -1.1137  2.2101
 6677TIP3    H241523   0.851   2.119  16.541 -0.5307  1.5325 -0.9869
 6678TIP3   OH241524   5.816   6.339   5.899  0.0211 -1.1004  0.2670
 6678TIP3    H141525   5.765   6.259   5.887 -1.3148 -0.5094  1.7428
 6678TIP3    H241526   5.849   6.333   5.988 -0.7256  0.3137  0.6699
 6679TIP3   OH241527   3.613   3.828  17.203  0.9396 -0.2681  0.1314
 6679TIP3    H141528   3.638   3.844  17.112  1.6681 -0.6294  0.2539
 6679TIP3    H241529   3.532   3.877  17.215  2.1576  1.9456  0.0145
 6680TIP3   OH241530   5.870   2.750   6.809  0.2420 -0.3709 -0.7039
 6680TIP3    H141531   5.803   2.814   6.785 -0.9961 -1.8050 -1.2416
 6680TIP3    H241532   5.897   2.774   6.897 -0.7179  0.4573 -0.6292
 6681TIP3   OH241533   1.376   3.062  16.925  0.2346 -0.5634 -0.1965
 6681TIP3    H141534   1.403   2.981  16.881 -0.8754 -1.5543  0.8741
 6681TIP3    H241535   1.302   3.093  16.874  0.5556 -0.2973 -0.5091
 6682TIP3   OH241536   2.502   6.679  15.001  0.2672 -0.6375  0.4009
 6682TIP3    H141537   2.446   6.756  15.013  2.1912  0.8460  0.2672
 6682TIP3    H241538   2.473   6.641  14.918 -0.1512  0.4209  0.0421
 6683TIP3   OH241539   4.224   0.514  12.655  0.0015 -0.3249 -0.1095
 6683TIP3    H141540   4.176   0.592  12.685 -1.5663 -0.0598 -2.9076
 6683TIP3    H241541   4.184   0.441  12.703  1.5808  0.4828  2.6511
 6684TIP3   OH241542   4.138   2.937  11.887 -0.2001  0.2156  0.3526
 6684TIP3    H141543   4.120   2.918  11.795  0.8549 -2.5831  0.6180
 6684TIP3    H241544   4.230   2.963  11.889 -0.7139  2.1757  0.4504
 6685TIP3   OH241545   3.527   3.134   1.898 -0.2964 -0.0731  0.1255
 6685TIP3    H141546   3.453   3.175   1.942 -1.5964 -0.0976 -1.9074
 6685TIP3    H241547   3.495   3.113   1.810  2.0907 -0.1830 -0.8075
 6686TIP3   OH241548   4.063   2.216   5.601  0.4084  0.3719  0.0321
 6686TIP3    H141549   4.006   2.140   5.606 -0.1511  0.6757 -1.1997
 6686TIP3    H241550   4.146   2.187   5.639 -0.7512  0.1532  2.5755
 6687TIP3   OH241551   2.009   3.509   6.175 -0.5651 -0.3557 -0.3181
 6687TIP3    H141552   2.000   3.514   6.080  1.4831 -0.2023 -0.5549
 6687TIP3    H241553   2.080   3.446   6.189  0.3215  0.8704  1.0057
 6688TIP3   OH241554   5.488   2.037   1.701  0.1419 -0.0764  0.2642
 6688TIP3    H141555   5.544   2.090   1.758  0.8642  0.0902 -0.5810
 6688TIP3    H241556   5.433   1.987   1.761  2.1230 -1.2885  1.1885
 6689TIP3   OH241557   6.251   6.224   3.022 -0.4584 -0.3178 -0.3750
 6689TIP3    H141558   6.197   6.300   3.042 -1.9577 -1.0956 -1.2913
 6689TIP3    H241559   6.266   6.183   3.107 -2.3551 -0.7299 -0.1982
 6690TIP3   OH241560   0.189   5.112  12.023  0.7542  0.0502 -0.0748
 6690TIP3    H141561   0.220   5.024  12.045  0.6465  0.4207  1.7017
 6690TIP3    H241562   0.180   5.111  11.927 -1.4999 -2.6491  0.0166
 6691TIP3   OH241563   5.209   6.408   0.674 -0.1059  0.1390  0.0762
 6691TIP3    H141564   5.290   6.357   0.683 -1.0187 -1.4184 -0.2485
 6691TIP3    H241565   5.207   6.433   0.581  0.5122  1.1124  0.3055
 6692TIP3   OH241566   6.096   6.164   0.777  0.0828 -0.4268 -0.2412
 6692TIP3    H141567   6.130   6.078   0.804  2.2733  0.9891  1.9683
 6692TIP3    H241568   6.073   6.207   0.859 -3.1977  0.3533 -1.4231
 6693TIP3   OH241569   5.734   5.266   1.227 -0.0234 -0.5910 -0.1388
 6693TIP3    H141570   5.800   5.325   1.262  2.0827 -0.1244 -4.1952
 6693TIP3    H241571   5.664   5.323   1.197 -0.4819 -0.7004  0.7183
 6694TIP3   OH241572   4.645   1.177   5.633 -0.4925  0.3752  0.6597
 6694TIP3    H141573   4.587   1.245   5.667 -0.8007 -0.3924  1.7138
 6694TIP3    H241574   4.734   1.210   5.651 -0.5482  1.5591 -0.9737
 6695TIP3   OH241575   5.894   4.249   0.587  0.1235 -0.1463  0.1677
 6695TIP3    H141576   5.951   4.174   0.604  1.3689  0.7107 -0.0555
 6695TIP3    H241577   5.839   4.256   0.666 -0.2440 -1.4676  0.0502
 6696TIP3   OH241578   1.147   2.342   4.072  0.2332  0.3076 -0.7992
 6696TIP3    H141579   1.090   2.409   4.033 -0.1283  0.3013 -0.3020
 6696TIP3    H241580   1.234   2.362   4.038 -0.0459  0.3906 -1.4773
 6697TIP3   OH241581   4.637   6.494  16.056  0.4660 -0.2935  0.5423
 6697TIP3    H141582   4.698   6.445  16.112 -0.8442 -1.6433  0.8334
 6697TIP3    H241583   4.550   6.474  16.091 -0.1657  3.5096  1.7236
 6698TIP3   OH241584   0.157   5.455   5.662 -0.2843  0.0254 -0.0239
 6698TIP3    H141585   0.088   5.518   5.637  0.1706  0.9402  0.9542
 6698TIP3    H241586   0.237   5.508   5.666  0.0672 -0.5705  1.0371
 6699TIP3   OH241587   1.417   6.223   3.837  0.1803 -0.6743  0.1390
 6699TIP3    H141588   1.393   6.312   3.811 -0.8331 -0.9812 -0.0044
 6699TIP3    H241589   1.375   6.211   3.922  0.7529 -0.8385  0.4039
 6700TIP3   OH241590   1.596   6.387  15.119 -0.0693 -0.0054 -0.1236
 6700TIP3    H141591   1.561   6.314  15.170 -0.5553  0.8573  0.8113
 6700TIP3    H241592   1.536   6.459  15.136  0.8696  0.8557 -0.3554
 6701TIP3   OH241593   3.696   1.808   1.848 -0.7843 -0.4500 -0.5595
 6701TIP3    H141594   3.658   1.756   1.919 -0.4448 -1.4188 -1.0657
 6701TIP3    H241595   3.778   1.841   1.884 -1.7307  1.1002  0.3094
 6702TIP3   OH241596   5.060   5.365  17.266  0.3232  0.0690 -0.5654
 6702TIP3    H141597   5.134   5.391  17.211 -1.0295  0.2130 -2.4384
 6702TIP3    H241598   4.996   5.435  17.252  0.0446  0.2931  1.5396
 6703TIP3   OH241599   4.503   5.885   4.759 -0.0268 -0.1452  0.3594
 6703TIP3    H141600   4.586   5.857   4.722 -0.0533  1.5872 -1.1332
 6703TIP3    H241601   4.438   5.827   4.721 -0.0517  1.5601 -2.4565
 6704TIP3   OH241602   5.875   0.923  15.967 -0.3445 -0.7239 -0.8366
 6704TIP3    H141603   5.909   0.996  15.915 -1.6642  0.2007 -0.4852
 6704TIP3    H241604   5.947   0.898  16.025  0.9152 -1.3076 -2.5787
 6705TIP3   OH241605   5.126   0.086   4.039  0.1360 -0.0402  0.1682
 6705TIP3    H141606   5.127   0.019   4.107 -0.7518  0.3598  0.6014
 6705TIP3    H241607   5.033   0.101   4.022  0.3321  0.6764 -0.3182
 6706TIP3   OH241608   2.136   2.493   3.556 -0.0536  0.3147 -0.1317
 6706TIP3    H141609   2.078   2.485   3.480  1.6370 -0.1991 -1.4066
 6706TIP3    H241610   2.089   2.445   3.626 -2.0110  1.4901 -0.5550
 6707TIP3   OH241611   5.863   5.500   6.303  0.5210  0.0869  0.2650
 6707TIP3    H141612   5.776   5.471   6.333  0.4585 -1.2292 -1.0534
 6707TIP3    H241613   5.910   5.418   6.286  0.8191  0.7106 -2.3501
 6708TIP3   OH241614   5.910   1.285  14.147  0.3570  0.1220  0.0411
 6708TIP3    H141615   5.874   1.200  14.119  1.0557  0.2757 -1.4031
 6708TIP3    H241616   6.002   1.267  14.162  0.3924  0.5139  0.2922
 6709TIP3   OH241617   6.187   5.690   5.846  0.2755 -0.1775  0.1825
 6709TIP3    H141618   6.097   5.691   5.813  0.6541 -0.8660 -0.9420
 6709TIP3    H241619   6.181   5.647   5.931 -0.5694  0.5157  0.4818
 6710TIP3   OH241620   4.469   2.369  14.181 -0.1634 -0.1887 -0.0481
 6710TIP3    H141621   4.466   2.277  14.205  0.2956  0.5137  3.0366
 6710TIP3    H241622   4.562   2.392  14.184 -0.4015  0.7115  0.6761
 6711TIP3   OH241623   4.511   0.467   1.602 -0.4865  0.3931 -0.2377
 6711TIP3    H141624   4.498   0.477   1.508  1.8179  1.0967 -0.5401
 6711TIP3    H241625   4.603   0.442   1.611 -0.4112  1.2315  1.8824
 6712TIP3   OH241626   0.797   5.384  16.979  1.1334  0.1028 -0.0930
 6712TIP3    H141627   0.791   5.354  17.069  0.6800  1.9848  0.5442
 6712TIP3    H241628   0.860   5.456  16.981 -0.9831  2.0906 -0.6843
 6713TIP3   OH241629   5.913   2.800  11.326  0.2743 -0.7902  0.4622
 6713TIP3    H141630   5.890   2.840  11.242 -3.6998 -1.8111  0.8532
 6713TIP3    H241631   5.888   2.866  11.391  2.5611 -0.3357  0.9744
 6714TIP3   OH241632   6.665   4.182   4.324 -0.5093  0.5750  0.2177
 6714TIP3    H141633   6.571   4.177   4.342 -0.7142  0.7362 -0.7353
 6714TIP3    H241634   6.675   4.260   4.270  0.6551  2.4954  2.9818
 6715TIP3   OH241635   5.754   4.270   0.819  0.3712 -0.2140 -0.3819
 6715TIP3    H141636   5.748   4.239   0.909  0.2558  0.0014 -0.3145
 6715TIP3    H241637   5.759   4.366   0.827 -0.2606 -0.1560 -0.6317
 6716TIP3   OH241638   0.210   0.857  14.456 -0.2868 -0.1400  0.3275
 6716TIP3    H141639   0.270   0.803  14.508  0.1216 -0.4225 -0.4229
 6716TIP3    H241640   0.254   0.866  14.371  0.3268  2.5103  0.8374
 6717TIP3   OH241641   1.442   0.488   3.644 -0.2569 -0.3607 -0.9595
 6717TIP3    H141642   1.389   0.567   3.657  0.0151 -0.0925 -1.4275
 6717TIP3    H241643   1.525   0.508   3.687 -0.9401 -1.2553  0.8414
 6718TIP3   OH241644   3.803   1.313  11.988 -0.2833 -0.3444 -0.2363
 6718TIP3    H141645   3.773   1.274  12.070 -0.5316  0.8177  0.2542
 6718TIP3    H241646   3.722   1.327  11.937 -0.3315  0.5254  0.0587
 6719TIP3   OH241647   4.006   2.286  13.165  0.0109  0.7035  0.3357
 6719TIP3    H141648   3.939   2.219  13.175  0.3960  0.1532 -0.5881
 6719TIP3    H241649   3.976   2.339  13.091  0.7111  0.2722 -0.2808
 6720TIP3   OH241650   6.199   0.779  11.997 -0.2015 -0.3666  0.1191
 6720TIP3    H141651   6.250   0.702  12.025 -0.8071 -1.2241 -1.0479
 6720TIP3    H241652   6.153   0.807  12.076  2.0720  0.4656  1.2311
 6721TIP3   OH241653   0.766   4.614  15.225 -0.2027 -0.2840 -0.1371
 6721TIP3    H141654   0.775   4.630  15.319 -0.0048  0.7941 -0.3292
 6721TIP3    H241655   0.673   4.625  15.208 -0.2811 -0.7500 -0.0259
 6722TIP3   OH241656   3.180   0.939  16.026  0.6386 -0.2642  0.0986
 6722TIP3    H141657   3.102   0.977  16.067  0.8404  0.8819 -0.5315
 6722TIP3    H241658   3.204   0.866  16.083 -2.0166 -1.9054 -0.7097
 6723TIP3   OH241659   0.610   4.632  12.764  0.5766 -0.3860 -0.3806
 6723TIP3    H141660   0.691   4.668  12.799  1.0078 -1.4130 -0.2998
 6723TIP3    H241661   0.599   4.677  12.680  0.3155  1.0002  0.3734
 6724TIP3   OH241662   1.699   4.562   0.914  0.0099  0.4614  0.1714
 6724TIP3    H141663   1.737   4.540   0.999  0.7972 -0.0478 -0.2965
 6724TIP3    H241664   1.605   4.567   0.930  0.1687  0.6110  1.1200
 6725TIP3   OH241665   5.381   3.929   3.218 -0.2437 -0.0112  0.2287
 6725TIP3    H141666   5.331   3.852   3.244 -1.5444 -0.5708 -3.3304
 6725TIP3    H241667   5.319   4.001   3.224 -0.8569 -0.2980 -1.8597
 6726TIP3   OH241668   1.511   1.182  12.957 -0.9407 -0.0099 -0.1307
 6726TIP3    H141669   1.515   1.242  12.883 -0.3459 -1.2640 -1.1580
 6726TIP3    H241670   1.476   1.101  12.920 -0.8631 -0.5869  1.0160
 6727TIP3   OH241671   5.449   1.698   2.242 -0.0381 -0.0476  0.3380
 6727TIP3    H141672   5.395   1.688   2.164 -2.0515  0.3135  1.6107
 6727TIP3    H241673   5.462   1.793   2.250  1.9654 -0.1871 -0.6671
 6728TIP3   OH241674   3.220   4.049  15.317 -0.0396  0.0202 -0.2443
 6728TIP3    H141675   3.195   4.109  15.388  0.0981 -0.1508 -0.0492
 6728TIP3    H241676   3.308   4.021  15.340 -0.3374 -0.7399 -0.0077
 6729TIP3   OH241677   4.545   3.400  13.878  0.0024  0.1865  0.6725
 6729TIP3    H141678   4.584   3.383  13.964 -0.9950  0.6673  1.2482
 6729TIP3    H241679   4.466   3.451  13.898 -0.2825  0.2420 -0.5304
 6730TIP3   OH241680   1.237   1.853   4.966 -0.1266 -0.4431 -0.0383
 6730TIP3    H141681   1.273   1.919   4.908 -0.1819 -0.0332  0.3942
 6730TIP3    H241682   1.253   1.770   4.921  0.6178 -0.2006 -0.2268
 6731TIP3   OH241683   0.114   5.612   2.650  0.3623 -0.0881  0.0147
 6731TIP3    H141684   0.189   5.661   2.684  1.8753 -2.7605  0.8679
 6731TIP3    H241685   0.110   5.534   2.706 -1.6112 -1.1714 -1.5191
 6732TIP3   OH241686   5.045   1.636   1.468 -0.2465  0.9293 -0.1800
 6732TIP3    H141687   5.082   1.554   1.501 -0.7639  0.9153  0.3820
 6732TIP3    H241688   4.951   1.629   1.486 -0.2555  1.7830  0.1833
 6733TIP3   OH241689   1.009   4.607  10.752 -0.2704  0.0434  1.0236
 6733TIP3    H141690   1.082   4.666  10.770  0.4632 -0.9259  1.3483
 6733TIP3    H241691   1.018   4.537  10.817 -0.2514 -1.1809 -0.2330
 6734TIP3   OH241692   0.777   2.989  13.142 -0.4383 -0.6730 -0.1709
 6734TIP3    H141693   0.712   2.993  13.213  0.3490 -2.0356  0.6815
 6734TIP3    H241694   0.841   3.056  13.165 -1.0549  0.0468 -0.5192
 6735TIP3   OH241695   5.084   5.543   6.031  0.1141  0.1574  0.3127
 6735TIP3    H141696   5.117   5.463   6.070  1.2555  1.0844  1.3465
 6735TIP3    H241697   4.989   5.530   6.026  0.3993 -1.8099 -0.9493
 6736TIP3   OH241698   6.460   4.983  12.000  0.2340  0.0133 -0.7474
 6736TIP3    H141699   6.532   4.995  11.939 -0.0979 -1.0569 -1.3922
 6736TIP3    H241700   6.457   4.888  12.014  0.1457  0.2197  0.7519
 6737TIP3   OH241701   6.771   0.301   6.680  0.2366  0.0602  0.4093
 6737TIP3    H141702   6.711   0.283   6.607 -0.7542  0.0697  1.2017
 6737TIP3    H241703   6.736   0.379   6.722  1.0377  0.2948  0.6645
 6738TIP3   OH241704   3.143   2.593  12.455  0.1640  0.5921 -0.0220
 6738TIP3    H141705   3.088   2.567  12.382 -0.1441  0.2086  0.3430
 6738TIP3    H241706   3.125   2.529  12.524  1.4295  0.1601 -0.0649
 6739TIP3   OH241707   2.459   2.017  13.269  0.2664  0.4964 -0.2111
 6739TIP3    H141708   2.481   1.950  13.334  0.3763 -0.7025 -1.4258
 6739TIP3    H241709   2.507   2.095  13.296 -0.2645  0.2589  1.5323
 6740TIP3   OH241710   0.037   5.230   1.501 -0.0643 -0.2247  0.2448
 6740TIP3    H141711   0.071   5.278   1.576  0.6803 -1.7652  0.9364
 6740TIP3    H241712  -0.009   5.296   1.449  1.2347  1.2917  0.9422
 6741TIP3   OH241713   1.717   1.667  11.341 -0.1124  0.3452  0.2211
 6741TIP3    H141714   1.771   1.717  11.402 -2.7537  1.4448  1.8402
 6741TIP3    H241715   1.721   1.717  11.260  0.4973  0.9368  0.5984
 6742TIP3   OH241716   1.177   3.805  13.248  0.2638 -0.1140 -0.2452
 6742TIP3    H141717   1.100   3.769  13.203 -0.2660  1.0664 -0.3019
 6742TIP3    H241718   1.238   3.826  13.177 -0.1612  0.7854 -0.3579
 6743TIP3   OH241719   3.460   2.682   3.479  0.1902 -0.1019  0.2150
 6743TIP3    H141720   3.477   2.668   3.572  1.9121  1.7545  0.2464
 6743TIP3    H241721   3.378   2.731   3.476  0.6966  0.8033  0.8483
 6744TIP3   OH241722   0.600   3.238   2.188 -1.1821  0.0616  0.1651
 6744TIP3    H141723   0.692   3.212   2.182 -1.8181 -2.5286  0.3339
 6744TIP3    H241724   0.558   3.196   2.113 -2.1514  1.8648 -0.3835
 6745TIP3   OH241725   1.467   0.900   4.396 -0.0348  0.4665  0.4895
 6745TIP3    H141726   1.394   0.899   4.334 -0.7040  0.7520  1.2454
 6745TIP3    H241727   1.501   0.989   4.391  0.0515  0.4284  0.3834
 6746TIP3   OH241728   1.814   4.239   2.968  0.3773  0.6499 -0.2637
 6746TIP3    H141729   1.837   4.295   2.894  2.5518  0.0273 -0.1219
 6746TIP3    H241730   1.754   4.174   2.932  0.8959  0.7584 -1.3428
 6747TIP3   OH241731   3.090   3.038   4.828  0.0825 -0.5044 -0.4897
 6747TIP3    H141732   3.073   3.105   4.893  0.1004 -1.2069  0.2583
 6747TIP3    H241733   3.006   3.026   4.784 -0.1455 -0.6047 -0.0343
 6748TIP3   OH241734   3.707   4.229   2.555  0.8717  0.6318 -0.3824
 6748TIP3    H141735   3.693   4.198   2.645 -0.4968  0.1090 -0.7493
 6748TIP3    H241736   3.801   4.218   2.540  0.9169 -0.4455  0.5738
 6749TIP3   OH241737   5.960   0.877  12.797 -0.5328 -0.3792 -0.5254
 6749TIP3    H141738   5.927   0.954  12.751  1.9864  1.7782  0.9392
 6749TIP3    H241739   5.931   0.803  12.745 -1.6984  1.6312 -2.9519
 6750TIP3   OH241740   4.076   5.091  11.022 -0.4850  0.2230  0.5022
 6750TIP3    H141741   4.124   5.052  10.949  0.8047  0.2145  1.3230
 6750TIP3    H241742   4.019   5.156  10.981 -0.1230 -0.1079 -0.5565
 6751TIP3   OH241743   1.046   1.586  14.992  0.6274 -0.1359  0.2797
 6751TIP3    H141744   1.109   1.630  14.935 -0.0233 -0.3964 -0.6621
 6751TIP3    H241745   0.960   1.608  14.954  0.0774  0.9931  2.0785
 6752TIP3   OH241746   5.145   5.077  12.356  0.0503 -0.0796 -0.4706
 6752TIP3    H141747   5.136   5.086  12.451 -0.6727 -0.2149 -0.5206
 6752TIP3    H241748   5.224   5.126  12.335 -0.6334  1.2609  0.0062
 6753TIP3   OH241749   0.807   2.726   1.449  0.1742  0.5842  0.2933
 6753TIP3    H141750   0.719   2.756   1.427 -0.5698 -1.9916 -0.6740
 6753TIP3    H241751   0.809   2.725   1.544 -2.1879 -2.4799  0.4742
 6754TIP3   OH241752   3.511   6.424   5.500 -0.1345  0.1826 -0.2016
 6754TIP3    H141753   3.531   6.338   5.537 -0.2287  1.0454  2.0405
 6754TIP3    H241754   3.421   6.416   5.468 -0.3635 -0.3907  0.5593
 6755TIP3   OH241755   3.197   4.909  12.847 -0.0844  0.1020  0.5316
 6755TIP3    H141756   3.284   4.917  12.806 -0.3977  0.6320 -0.0488
 6755TIP3    H241757   3.215   4.909  12.941  0.4950  1.1273  0.4471
 6756TIP3   OH241758   3.413   2.542   4.253  0.7751  0.4539 -0.2458
 6756TIP3    H141759   3.465   2.463   4.237 -1.9909 -1.8524  1.1504
 6756TIP3    H241760   3.322   2.512   4.249 -0.3967  3.3409  1.4978
 6757TIP3   OH241761   1.314   6.439  15.555 -0.1620  0.1932  0.4394
 6757TIP3    H141762   1.257   6.437  15.478  0.8852  0.4041 -0.3724
 6757TIP3    H241763   1.318   6.348  15.584  0.5016 -0.1278 -0.5900
 6758TIP3   OH241764   4.768   5.862   1.845  0.3311  0.1669  0.4526
 6758TIP3    H141765   4.707   5.797   1.810 -0.5687  1.5440 -0.6697
 6758TIP3    H241766   4.711   5.928   1.885  1.1008  1.2136 -0.1343
 6759TIP3   OH241767   0.270   2.095  14.062  0.1212 -0.2369 -0.0211
 6759TIP3    H141768   0.303   2.159  14.125 -2.6652  0.8667  0.4849
 6759TIP3    H241769   0.275   2.011  14.107  1.7874 -0.0810  0.1416
 6760TIP3   OH241770   3.044   1.581   2.323  0.2331 -0.1081 -0.7211
 6760TIP3    H141771   2.970   1.636   2.352  0.0200 -0.9247  0.3643
 6760TIP3    H241772   3.079   1.626   2.247 -0.9245  0.7006 -0.8060
 6761TIP3   OH241773   2.236   3.087   5.557  0.3805  0.2144  0.4620
 6761TIP3    H141774   2.215   2.996   5.537 -0.1316  0.4197  0.0572
 6761TIP3    H241775   2.332   3.089   5.561  0.4233 -0.1747 -0.3307
 6762TIP3   OH241776   4.420   6.635  17.214  0.1409  0.9819  0.2260
 6762TIP3    H141777   4.471   6.715  17.219 -0.3420  1.4340 -1.4386
 6762TIP3    H241778   4.378   6.628  17.299  0.3919  2.3648  0.4850
 6763TIP3   OH241779   6.774   2.248   1.835  0.4341 -0.3442  0.1790
 6763TIP3    H141780   6.740   2.326   1.880  1.7998 -0.2821  1.1609
 6763TIP3    H241781   6.778   2.181   1.904 -0.3537 -1.1932 -0.5661
 6764TIP3   OH241782   6.584   3.798   5.485  0.3931 -0.1330 -0.0206
 6764TIP3    H141783   6.544   3.714   5.507  0.3508 -0.3411 -0.8681
 6764TIP3    H241784   6.578   3.804   5.390 -1.2203  1.6380  0.1288
 6765TIP3   OH241785   1.292   6.592   2.120 -0.1625 -0.0312 -0.0165
 6765TIP3    H141786   1.355   6.530   2.085 -0.6844 -1.8878  2.0889
 6765TIP3    H241787   1.250   6.545   2.192 -1.6584  2.2714  0.7172
 6766TIP3   OH241788   3.144   0.794  11.470 -0.3298 -0.0576  0.3930
 6766TIP3    H141789   3.169   0.803  11.378  0.7269 -1.4808  0.5074
 6766TIP3    H241790   3.186   0.713  11.498  0.2263  0.8776  2.4191
 6767TIP3   OH241791   4.557   3.180  12.005  0.5879 -0.0437 -0.1704
 6767TIP3    H141792   4.525   3.167  12.094  0.2848 -0.6403 -0.3566
 6767TIP3    H241793   4.487   3.230  11.962  0.7860  0.3433 -0.0412
 6768TIP3   OH241794   6.422   4.110   1.846 -0.3687 -0.8733  0.1260
 6768TIP3    H141795   6.483   4.091   1.775 -0.3753 -1.8251  0.3638
 6768TIP3    H241796   6.372   4.029   1.857 -2.6449  0.2680 -0.9733
 6769TIP3   OH241797   6.591   2.583  11.965 -0.0283  0.4427  0.1649
 6769TIP3    H141798   6.648   2.550  12.034 -1.3381  0.0624  1.1148
 6769TIP3    H241799   6.648   2.594  11.889  1.6295  1.6547  1.5078
 6770TIP3   OH241800   6.767   0.796  14.650 -0.2429 -0.1403  0.0347
 6770TIP3    H141801   6.848   0.839  14.677 -1.2895  0.5788  2.2791
 6770TIP3    H241802   6.795   0.712  14.613  1.4911 -0.2128  1.3875
 6771TIP3   OH241803   0.029   3.828  17.127 -0.3508  0.0517 -0.5965
 6771TIP3    H141804   0.026   3.739  17.091  3.9565  0.0023 -1.3523
 6771TIP3    H241805   0.004   3.818  17.219  0.9118 -2.1545 -0.4391
 6772TIP3   OH241806   1.720   3.103  17.283 -0.0799 -0.1487 -0.0713
 6772TIP3    H141807   1.690   3.191  17.262  1.4430  0.1582 -1.1376
 6772TIP3    H241808   1.738   3.062  17.198  0.5991 -0.9665  0.4438
 6773TIP3   OH241809   2.838   4.630  14.506  0.6037  0.3805  0.7161
 6773TIP3    H141810   2.890   4.619  14.426 -0.7028 -2.1612  0.0975
 6773TIP3    H241811   2.802   4.543  14.523 -0.7947  1.3077  2.9617
 6774TIP3   OH241812   1.953   4.256  15.659  0.2889  0.9182 -0.1539
 6774TIP3    H141813   1.936   4.324  15.724  0.7546  1.6614 -0.8003
 6774TIP3    H241814   2.048   4.245  15.660  0.1931  0.0671  0.1514
 6775TIP3   OH241815   3.070   2.727  15.624 -0.3773  0.0071 -0.3860
 6775TIP3    H141816   3.052   2.781  15.700  2.3187  0.0076  0.3523
 6775TIP3    H241817   3.153   2.685  15.643 -0.0276 -0.6752 -2.9656
 6776TIP3   OH241818   3.683   4.149   2.825 -0.2375 -0.3869  0.6550
 6776TIP3    H141819   3.698   4.203   2.903 -0.6952 -0.3405  0.7092
 6776TIP3    H241820   3.678   4.060   2.859 -2.0590 -0.2162  0.8853
 6777TIP3   OH241821   3.925   6.684  15.544  0.7083 -0.2567 -0.3208
 6777TIP3    H141822   4.017   6.703  15.562  0.5156 -0.7512  1.3331
 6777TIP3    H241823   3.890   6.765  15.506  1.4750  0.4479  0.4401
 6778TIP3   OH241824   2.864   5.656  16.942  0.4446  0.6802  0.0616
 6778TIP3    H141825   2.901   5.586  16.995  1.6594  0.5457 -0.9128
 6778TIP3    H241826   2.926   5.728  16.949 -0.2333  1.2712  0.1691
 6779TIP3   OH241827   2.918   0.711  13.910  0.4926 -0.0221 -0.2503
 6779TIP3    H141828   2.909   0.625  13.869  2.3379  0.1958 -1.2167
 6779TIP3    H241829   3.010   0.716  13.936  0.5147  1.7857 -0.5322
 6780TIP3   OH241830   2.122   3.434  12.831 -0.0169  0.1527 -0.1030
 6780TIP3    H141831   2.067   3.469  12.761 -1.1741  0.9953  1.1616
 6780TIP3    H241832   2.208   3.421  12.791 -1.2025 -1.6809 -2.3006
 6781TIP3   OH241833   3.507   4.944   2.627  0.2364 -0.3765  0.4792
 6781TIP3    H141834   3.459   4.896   2.560  1.2840  0.0886 -0.6583
 6781TIP3    H241835   3.517   5.032   2.590 -0.1403  0.2316  1.7559
 6782TIP3   OH241836   3.511   5.462   6.228  0.6646 -0.9114  0.1473
 6782TIP3    H141837   3.580   5.470   6.163  0.9497 -1.1740  0.4126
 6782TIP3    H241838   3.540   5.391   6.286  1.5126  0.7966  1.9186
 6783TIP3   OH241839   3.365   1.201   3.352  0.1030  0.0881  0.2853
 6783TIP3    H141840   3.332   1.227   3.438 -0.3033  0.6353 -0.0296
 6783TIP3    H241841   3.460   1.194   3.365  0.2203  1.5584  0.4493
 6784TIP3   OH241842   4.269   1.233   3.403  0.4393 -0.2198  0.2917
 6784TIP3    H141843   4.292   1.325   3.392  0.1829 -0.1699  0.1572
 6784TIP3    H241844   4.186   1.223   3.356  0.9800 -0.7528 -0.5699
 6785TIP3   OH241845   2.972   5.597   3.586 -0.4533 -0.1703  0.2268
 6785TIP3    H141846   2.974   5.568   3.677 -0.0500  2.1624  1.0331
 6785TIP3    H241847   3.038   5.543   3.542 -0.2313 -0.9328  1.4506
 6786TIP3   OH241848   4.682   5.544  14.379 -0.0875 -0.5194  0.2592
 6786TIP3    H141849   4.748   5.482  14.348  0.3218  0.0604 -0.0495
 6786TIP3    H241850   4.719   5.630  14.360 -1.4295 -0.1836 -0.9625
 6787TIP3   OH241851   5.872   4.330   1.668 -0.6311  0.0699 -0.2206
 6787TIP3    H141852   5.945   4.364   1.616 -2.2061  1.3763 -1.6893
 6787TIP3    H241853   5.892   4.356   1.758  0.7058  0.3857 -0.5945
 6788TIP3   OH241854   0.386   2.725   2.000 -0.0994  0.3319  0.0565
 6788TIP3    H141855   0.363   2.659   1.935 -2.2916 -0.4726  1.5060
 6788TIP3    H241856   0.330   2.800   1.978 -1.4447 -0.2309  1.3967
 6789TIP3   OH241857   2.540   0.704   4.190  0.1467  0.1303 -0.9864
 6789TIP3    H141858   2.620   0.731   4.234  0.3264  0.6270 -1.6079
 6789TIP3    H241859   2.475   0.769   4.216  0.7507  1.6784 -3.0474
 6790TIP3   OH241860   4.480   3.631  17.300 -0.1770 -0.1216 -0.3486
 6790TIP3    H141861   4.436   3.677  17.372  0.2740  0.5310 -0.4798
 6790TIP3    H241862   4.522   3.556  17.342 -0.0751  0.1475  0.0360
 6791TIP3   OH241863   4.980   3.010   0.471  0.1302 -0.3207 -0.0079
 6791TIP3    H141864   5.063   3.045   0.439 -0.8338  1.0245 -1.1559
 6791TIP3    H241865   4.953   3.072   0.539  0.2352 -0.9882  0.6667
 6792TIP3   OH241866   2.124   6.057  15.639  0.1924 -0.4023  0.5090
 6792TIP3    H141867   2.190   6.073  15.572 -0.5994 -3.0240 -1.0547
 6792TIP3    H241868   2.041   6.077  15.597 -0.2647 -1.1131  1.0372
 6793TIP3   OH241869   3.968   5.065  12.676 -0.0399  0.3254 -0.3489
 6793TIP3    H141870   4.024   5.032  12.746 -1.5593 -0.4872  0.5429
 6793TIP3    H241871   4.010   5.145  12.647  2.6185 -1.2250 -1.0770
 6794TIP3   OH241872   0.660   6.511  16.971 -0.0106  0.1634 -0.0477
 6794TIP3    H141873   0.753   6.533  16.973  0.2344 -0.7349 -0.8790
 6794TIP3    H241874   0.628   6.534  17.058  1.2736 -0.6909  0.6836
 6795TIP3   OH241875   1.088   1.544   4.645  0.2142  0.2826  0.1929
 6795TIP3    H141876   1.059   1.506   4.728  0.1031 -0.2495 -0.0835
 6795TIP3    H241877   1.094   1.469   4.586  1.3056  0.5147 -0.0003
 6796TIP3   OH241878   6.206   6.737   3.477 -0.6900 -0.5904  0.2461
 6796TIP3    H141879   6.147   6.718   3.551  0.4313 -2.7044  0.6740
 6796TIP3    H241880   6.161   6.700   3.401 -1.1189  0.1940  0.1043
 6797TIP3   OH241881   4.866   0.369   3.668  0.1093 -0.5463  0.0147
 6797TIP3    H141882   4.887   0.379   3.761 -3.8301 -0.1715  1.0256
 6797TIP3    H241883   4.826   0.283   3.662  0.2933 -0.5539 -1.3661
 6798TIP3   OH241884   2.436   0.888  13.827 -0.5751  0.2042  0.0536
 6798TIP3    H141885   2.345   0.859  13.819 -0.6987  0.2457  1.1740
 6798TIP3    H241886   2.431   0.983  13.823 -0.4727  0.1813 -0.7977
 6799TIP3   OH241887   5.098   4.203   4.402  0.4575 -0.3644 -0.3458
 6799TIP3    H141888   5.091   4.108   4.410  1.3481 -0.3689  0.6872
 6799TIP3    H241889   5.152   4.217   4.324  0.1071 -0.6938 -0.6494
 6800TIP3   OH241890   4.836   3.468  13.849 -0.5598  0.4769  0.2833
 6800TIP3    H141891   4.849   3.522  13.772  0.2027  1.6459  1.1870
 6800TIP3    H241892   4.756   3.418  13.832  0.9949 -1.3454 -2.3913
 6801TIP3   OH241893   0.790   6.529   5.003 -0.0933 -0.2220  0.0439
 6801TIP3    H141894   0.695   6.540   5.000 -0.2362 -1.1717  0.7191
 6801TIP3    H241895   0.811   6.477   4.925 -0.4274 -1.9301  1.0557
 6802TIP3   OH241896   5.579   3.001  17.229 -0.1108  0.0013  0.0293
 6802TIP3    H141897   5.633   3.067  17.185  0.2414  0.1617  0.6964
 6802TIP3    H241898   5.516   3.051  17.280 -0.2185 -0.1837  0.0794
 6803TIP3   OH241899   5.534   0.559   5.146  0.1575  0.2226 -0.3419
 6803TIP3    H141900   5.463   0.620   5.164  0.2522 -0.3128  2.3589
 6803TIP3    H241901   5.491   0.473   5.139  0.4356 -0.0245  0.7420
 6804TIP3   OH241902   1.854   6.593  15.049 -0.3358 -0.3157 -0.2137
 6804TIP3    H141903   1.833   6.546  14.969 -2.0897 -0.6154  0.3753
 6804TIP3    H241904   1.925   6.543  15.089  2.8732  1.5835 -3.0437
 6805TIP3   OH241905   2.278   0.006  12.310 -0.2307 -0.1842  0.0513
 6805TIP3    H141906   2.278   0.087  12.361 -2.1452  0.9755 -1.6175
 6805TIP3    H241907   2.227  -0.056  12.362  0.5291 -0.0658  0.9572
 6806TIP3   OH241908   2.526   5.563  13.722  0.2720  0.8642  0.4696
 6806TIP3    H141909   2.525   5.476  13.682  0.6371  1.8224 -1.7467
 6806TIP3    H241910   2.436   5.594  13.715 -0.0424  0.3891  2.0085
 6807TIP3   OH241911   5.845   1.666   0.360 -0.2482  0.5860 -0.6410
 6807TIP3    H141912   5.814   1.752   0.332  0.1037  0.8356 -0.2706
 6807TIP3    H241913   5.796   1.647   0.440 -0.1236  0.5672 -0.5681
 6808TIP3   OH241914   3.141   4.877  11.707  0.9540 -0.0084 -0.3144
 6808TIP3    H141915   3.109   4.942  11.770  1.8090  0.9804 -0.8661
 6808TIP3    H241916   3.068   4.816  11.695  1.0884 -0.8392  2.3879
 6809TIP3   OH241917   3.358   3.587  12.798  0.4052  0.2704 -0.0088
 6809TIP3    H141918   3.369   3.681  12.783 -1.1829  0.5595  0.3951
 6809TIP3    H241919   3.268   3.569  12.769  1.0887 -1.3885 -1.2203
 6810TIP3   OH241920   0.872   6.230  12.692  0.2940  0.4135 -0.1150
 6810TIP3    H141921   0.786   6.270  12.704  0.2710  1.0058 -1.9844
 6810TIP3    H241922   0.868   6.149  12.742 -2.1567 -0.6827 -1.8633
 6811TIP3   OH241923   2.069   6.346   1.052 -0.0553 -0.5046 -0.3437
 6811TIP3    H141924   2.099   6.435   1.033  0.9820 -0.2613  2.0178
 6811TIP3    H241925   2.080   6.299   0.970  0.1366  1.3422 -1.4320
 6812TIP3   OH241926   4.164   3.294  16.722 -0.0956  0.1283 -0.3252
 6812TIP3    H141927   4.241   3.249  16.757  1.1330  1.0602 -1.6735
 6812TIP3    H241928   4.119   3.227  16.670 -0.5225 -0.5751  0.9296
 6813TIP3   OH241929   4.038   2.913  16.463 -0.1563  0.1718  0.2904
 6813TIP3    H141930   3.992   2.878  16.387  0.0075 -0.5488  0.5224
 6813TIP3    H241931   4.084   2.990  16.430  1.2310 -1.0606 -0.7171
 6814TIP3   OH241932   3.934   3.560  16.765 -0.0323 -0.2615 -0.3440
 6814TIP3    H141933   4.024   3.564  16.732 -0.1515 -0.2647 -0.6663
 6814TIP3    H241934   3.905   3.471  16.744  0.5262 -0.9167  1.4312
 6815TIP3   OH241935   1.910   3.330   1.967 -0.3141  0.1268  0.0363
 6815TIP3    H141936   1.814   3.331   1.965 -0.3131  1.0128  0.0661
 6815TIP3    H241937   1.932   3.294   2.053 -0.6599  2.6915  1.2850
 6816TIP3   OH241938   4.614   4.828   5.454 -0.2091 -0.3557 -0.1630
 6816TIP3    H141939   4.552   4.803   5.522  0.0497 -0.6091 -0.0243
 6816TIP3    H241940   4.645   4.746   5.417 -0.7145 -0.2244 -0.9239
 6817TIP3   OH241941   3.283   5.954   5.082  0.6740 -0.1402 -0.0825
 6817TIP3    H141942   3.324   6.037   5.104  1.7287 -0.4989 -0.6241
 6817TIP3    H241943   3.292   5.946   4.987  1.2444 -1.1989  0.0385
 6818TIP3   OH241944   0.436   1.673   2.206 -0.4459 -0.0086  0.2158
 6818TIP3    H141945   0.475   1.726   2.137  0.9873 -0.2269  0.8295
 6818TIP3    H241946   0.443   1.727   2.285 -1.0543 -0.2068  0.4152
 6819TIP3   OH241947   6.737   4.790   4.908  0.3342  0.0382 -0.1250
 6819TIP3    H141948   6.738   4.705   4.952 -0.4101 -0.0224 -0.2158
 6819TIP3    H241949   6.671   4.840   4.955  1.2567  0.8114  0.3736
 6820TIP3   OH241950   2.342   5.820  11.705  0.3857  0.0476  0.3053
 6820TIP3    H141951   2.336   5.873  11.626  0.7396  1.3235  1.0980
 6820TIP3    H241952   2.262   5.767  11.705  0.8075 -0.6673 -1.3512
 6821TIP3   OH241953   2.867   1.931  15.861  0.2559 -0.5301 -0.0595
 6821TIP3    H141954   2.898   2.018  15.834  0.3433 -0.7458 -0.6719
 6821TIP3    H241955   2.789   1.949  15.913  1.2248  0.0060  1.2592
 6822TIP3   OH241956   2.211   1.690   6.042  1.1076  0.4097 -0.2360
 6822TIP3    H141957   2.270   1.619   6.067  2.1641  0.6320 -1.9652
 6822TIP3    H241958   2.182   1.727   6.126  2.2843 -0.6162  0.6697
 6823TIP3   OH241959   1.370   0.231   4.856  0.6402  0.1432  0.1884
 6823TIP3    H141960   1.424   0.201   4.929 -0.2759  0.1082  0.8673
 6823TIP3    H241961   1.402   0.182   4.780  1.5199  0.0934  0.5865
 6824TIP3   OH241962   3.564   3.750  13.473  0.2614 -0.8596 -0.2322
 6824TIP3    H141963   3.589   3.838  13.503  1.6201 -1.2847 -0.0326
 6824TIP3    H241964   3.646   3.712  13.441 -0.1179 -2.3806  0.5295
 6825TIP3   OH241965   3.250   2.034  14.885  0.7944  0.4647  0.6899
 6825TIP3    H141966   3.305   1.976  14.937  1.9058  0.3262 -0.6016
 6825TIP3    H241967   3.303   2.055  14.808 -1.1921 -0.1986 -0.9346
 6826TIP3   OH241968   0.567   3.588   4.892  0.3646 -0.1302 -0.2173
 6826TIP3    H141969   0.578   3.668   4.943 -1.6531 -0.2568  0.5177
 6826TIP3    H241970   0.498   3.608   4.829  0.6088 -0.9637 -0.7770
 6827TIP3   OH241971   0.057   2.281   5.915  0.1224 -0.2990 -0.2931
 6827TIP3    H141972   0.083   2.248   5.829 -1.0442 -1.5374 -0.1941
 6827TIP3    H241973  -0.005   2.216   5.949 -0.4485  0.8235  0.9265
 6828TIP3   OH241974   1.945   6.714  17.336  0.2200  0.3699 -0.4324
 6828TIP3    H141975   1.948   6.808  17.353 -0.1634  0.2840  0.1397
 6828TIP3    H241976   1.938   6.674  17.423  0.7032 -0.2052 -0.6462
 6829TIP3   OH241977   2.449   2.682  15.783 -0.1191  0.3652 -0.2059
 6829TIP3    H141978   2.513   2.751  15.766  0.3105 -0.1270 -0.6307
 6829TIP3    H241979   2.388   2.688  15.709  0.7230 -0.6082 -1.0100
 6830TIP3   OH241980   1.807   0.320   2.293  0.5439  0.2064 -0.0246
 6830TIP3    H141981   1.803   0.415   2.292  1.0992  0.2349  0.3609
 6830TIP3    H241982   1.728   0.292   2.245  0.4267  0.8536 -0.2117
 6831TIP3   OH241983   6.483   5.172   1.675 -0.6257 -0.0314  0.4169
 6831TIP3    H141984   6.522   5.117   1.608 -1.2174 -1.1914  0.9912
 6831TIP3    H241985   6.491   5.121   1.756 -3.7412 -0.6094  0.5018
 6832TIP3   OH241986   0.479   3.511   3.101 -0.4533  0.3058  0.0085
 6832TIP3    H141987   0.385   3.522   3.118 -0.1877  2.7842  0.1638
 6832TIP3    H241988   0.522   3.546   3.179  0.6170 -0.4123 -0.2437
 6833TIP3   OH241989   1.862   3.576   2.336  0.0846  0.1653 -0.5789
 6833TIP3    H141990   1.845   3.648   2.397  1.6300 -0.0261  0.1317
 6833TIP3    H241991   1.850   3.497   2.389 -0.2400 -0.0628 -0.9909
 6834TIP3   OH241992   4.336   0.998   6.550 -0.1863 -0.7427  0.8850
 6834TIP3    H141993   4.330   0.906   6.578  0.0673 -0.1603  2.9975
 6834TIP3    H241994   4.419   1.029   6.586 -1.2115  0.8614  1.9921
 6835TIP3   OH241995   5.976   6.545   4.724 -0.1983 -0.3179 -0.1453
 6835TIP3    H141996   6.051   6.496   4.758 -1.6668 -1.1773  2.1530
 6835TIP3    H241997   5.958   6.610   4.791 -0.0276  1.5595 -1.8486
 6836TIP3   OH241998   2.059   1.643   0.792 -0.0079  0.3769 -0.2400
 6836TIP3    H141999   2.074   1.722   0.844  0.9945  0.7046 -0.9996
 6836TIP3    H242000   1.993   1.669   0.728  0.1197  0.5183 -0.3151
 6837TIP3   OH242001   4.225   4.003  13.780 -0.0096 -0.1047 -0.1537
 6837TIP3    H142002   4.251   4.075  13.722 -2.0306  0.8954  0.0981
 6837TIP3    H242003   4.142   3.972  13.744  1.4600 -3.3592 -1.1126
 6838TIP3   OH242004   5.199   0.119   2.250  0.1946  0.1333  0.1347
 6838TIP3    H142005   5.226   0.109   2.159  2.3836  0.9568  0.6406
 6838TIP3    H242006   5.143   0.197   2.250  1.1906  0.8657 -0.3327
 6839TIP3   OH242007   3.305   2.717  12.903 -0.2945 -0.0760  0.0035
 6839TIP3    H142008   3.399   2.697  12.899 -0.3742 -0.6769  0.7877
 6839TIP3    H242009   3.291   2.783  12.835  0.8968  0.7989  0.5756
 6840TIP3   OH242010   1.246   0.883  16.104 -0.0880 -0.6813 -0.3426
 6840TIP3    H142011   1.178   0.945  16.129  1.9930  1.5291  0.1573
 6840TIP3    H242012   1.275   0.913  16.018  0.2187 -1.6358 -0.5826
 6841TIP3   OH242013   5.412   4.371   4.684 -0.0738  0.3906 -0.6303
 6841TIP3    H142014   5.317   4.357   4.679 -0.2079  0.9961  0.0723
 6841TIP3    H242015   5.448   4.312   4.617 -0.8606 -0.7376 -0.1061
 6842TIP3   OH242016   6.063   1.536   1.196  0.0528 -0.4464 -0.4584
 6842TIP3    H142017   6.072   1.455   1.246 -0.0676  0.5660  1.2524
 6842TIP3    H242018   6.003   1.590   1.247 -1.8437 -0.1734 -2.7970
 6843TIP3   OH242019   6.167   1.636  11.435 -0.4636 -0.6676  0.2415
 6843TIP3    H142020   6.208   1.589  11.362  1.1547 -1.1978  1.4198
 6843TIP3    H242021   6.153   1.569  11.501  0.8489  0.2517  1.5331
 6844TIP3   OH242022   6.532   3.970   3.720 -0.1517  0.1261  0.1746
 6844TIP3    H142023   6.614   3.933   3.752  0.2786  0.3490 -0.6317
 6844TIP3    H242024   6.558   4.050   3.674 -1.0256  1.2193  1.5122
 6845TIP3   OH242025   0.222   0.908  12.594  0.3008  0.5437 -0.4553
 6845TIP3    H142026   0.254   0.898  12.504  0.3099  1.1690 -0.5294
 6845TIP3    H242027   0.137   0.864  12.594  1.2950 -1.4653 -0.1561
 6846TIP3   OH242028   2.188   0.109  11.371 -0.2260 -0.0283 -0.0730
 6846TIP3    H142029   2.131   0.038  11.342 -1.0291 -0.6003  2.6274
 6846TIP3    H242030   2.171   0.117  11.465  1.0033  2.6985  0.0261
 6847TIP3   OH242031   4.674   3.558   3.773  0.1810 -0.3095  0.1534
 6847TIP3    H142032   4.709   3.571   3.684 -1.7909 -0.7209 -0.7282
 6847TIP3    H242033   4.742   3.507   3.817  0.9698 -0.5786 -1.2897
 6848TIP3   OH242034   6.570   3.064  12.884 -0.1062  0.2623  0.3019
 6848TIP3    H142035   6.492   3.096  12.928 -0.1023  0.6526  0.0316
 6848TIP3    H242036   6.574   3.114  12.802  0.0132 -0.2828 -0.0355
 6849TIP3   OH242037   2.299   4.192  13.922  0.1959 -0.2778 -0.5704
 6849TIP3    H142038   2.264   4.126  13.981  3.0530 -1.3786  0.0676
 6849TIP3    H242039   2.350   4.250  13.978  1.7344 -0.4734 -1.6769
 6850TIP3   OH242040   1.359   2.641  15.567  0.8762 -0.0383  0.1129
 6850TIP3    H142041   1.398   2.557  15.594 -0.2942 -0.1953  1.4178
 6850TIP3    H242042   1.429   2.685  15.518  2.2123 -0.9166  1.1480
 6851TIP3   OH242043   1.120   1.634   3.276 -0.5138 -0.0088 -0.0290
 6851TIP3    H142044   1.065   1.568   3.320 -0.7453  0.2188  0.0271
 6851TIP3    H242045   1.141   1.595   3.192 -0.0337 -0.4673  0.3002
 6852TIP3   OH242046   3.271   0.190   2.117 -0.2493 -0.1597 -0.0594
 6852TIP3    H142047   3.253   0.098   2.097  0.9999 -0.1090 -1.6407
 6852TIP3    H242048   3.283   0.231   2.032 -1.5821  1.6810  0.5756
 6853TIP3   OH242049   2.438   4.299  14.963 -0.8161 -0.1600 -0.1580
 6853TIP3    H142050   2.498   4.314  14.890 -0.7902  1.4425  0.1603
 6853TIP3    H242051   2.490   4.249  15.026  0.1889  1.1125  0.0671
 6854TIP3   OH242052   6.275   4.874   4.610  0.6075  0.0705  0.1485
 6854TIP3    H142053   6.345   4.809   4.611  0.6455  0.1048 -0.2169
 6854TIP3    H242054   6.194   4.823   4.611  0.6174  0.0368  1.6297
 6855TIP3   OH242055   2.059   6.507   3.619 -0.4498  0.0458  0.9488
 6855TIP3    H142056   2.071   6.569   3.691  0.2716 -0.1474  1.0059
 6855TIP3    H242057   1.964   6.492   3.615 -0.5968  0.9112  1.1307
 6856TIP3   OH242058   4.136   0.472   3.173  0.3473  0.1622 -0.3691
 6856TIP3    H142059   4.127   0.504   3.263  1.4118  0.9895 -0.5304
 6856TIP3    H242060   4.228   0.446   3.167 -0.1280 -1.5565 -0.7143
 6857TIP3   OH242061   6.067   5.804  14.147 -0.0519  0.6645 -0.0350
 6857TIP3    H142062   5.980   5.766  14.136  1.2314 -1.9989 -2.5082
 6857TIP3    H242063   6.057   5.895  14.120 -2.3270  0.8607  1.2450
 6858TIP3   OH242064   4.864   6.328  11.599  0.2052  0.4705  0.1557
 6858TIP3    H142065   4.845   6.278  11.519  1.2621 -0.3562  0.3910
 6858TIP3    H242066   4.940   6.382  11.575  0.7862 -0.0824  0.6901
 6859TIP3   OH242067   4.906   0.535   2.449 -0.1026  0.1214 -0.0707
 6859TIP3    H142068   4.828   0.543   2.504 -1.0441  2.2314 -1.5964
 6859TIP3    H242069   4.976   0.573   2.502 -0.4649 -0.1620  0.6238
 6860TIP3   OH242070   4.307   0.206   3.328 -0.0467 -0.2306  0.6509
 6860TIP3    H142071   4.282   0.144   3.260 -1.0712 -0.1653  0.9433
 6860TIP3    H242072   4.402   0.215   3.320 -0.2082  0.2664 -1.1851
 6861TIP3   OH242073   6.299   6.493   0.398  0.3453  0.8019  0.6248
 6861TIP3    H142074   6.280   6.524   0.486  0.9381 -1.1527  1.4902
 6861TIP3    H242075   6.370   6.551   0.368  0.1830  1.4500  1.4494
 6862TIP3   OH242076   0.339   5.482   5.338  0.3589 -0.0271  0.0271
 6862TIP3    H142077   0.385   5.488   5.421  0.7614  0.1823 -0.2075
 6862TIP3    H242078   0.373   5.555   5.286 -1.0592  0.8189  0.2492
 6863TIP3   OH242079   4.324   1.404  10.853 -0.7018  0.0306  0.0878
 6863TIP3    H142080   4.300   1.402  10.945 -0.7521  0.6866  0.0899
 6863TIP3    H242081   4.302   1.316  10.821  1.2708 -0.9279  1.1744
 6864TIP3   OH242082   2.632   3.763  16.678  0.0931  0.3157 -0.0291
 6864TIP3    H142083   2.605   3.729  16.592  1.5090  0.2215 -0.4481
 6864TIP3    H242084   2.693   3.698  16.712 -1.0220 -0.0412  1.4289
 6865TIP3   OH242085   5.203   5.547  15.891  0.0456 -0.4089 -0.7311
 6865TIP3    H142086   5.199   5.454  15.913 -1.0136 -0.9839 -3.0988
 6865TIP3    H242087   5.252   5.552  15.810  0.4918  1.1770 -0.4084
 6866TIP3   OH242088   3.473   3.406   0.950 -0.1621  0.6503  0.5570
 6866TIP3    H142089   3.431   3.360   0.877 -0.1404  0.5617  0.6001
 6866TIP3    H242090   3.566   3.402   0.930 -0.0375 -0.5983  1.2909
 6867TIP3   OH242091   0.901   5.473   2.350 -0.1211 -0.3509 -0.0367
 6867TIP3    H142092   0.809   5.449   2.361  0.2940 -1.9707  0.0207
 6867TIP3    H242093   0.899   5.569   2.342 -1.6884 -0.2399  1.1351
 6868TIP3   OH242094   6.087   1.923  15.842 -0.9802 -0.0331  0.0240
 6868TIP3    H142095   6.035   2.000  15.820 -1.9652 -0.3422  1.1571
 6868TIP3    H242096   6.028   1.868  15.894 -0.2518 -1.4793 -0.6155
 6869TIP3   OH242097   5.616   6.146   1.473  0.1796 -0.3776  0.0209
 6869TIP3    H142098   5.638   6.233   1.441 -2.7198  0.2177 -0.6774
 6869TIP3    H242099   5.612   6.155   1.568 -1.0511  0.5774 -0.0938
 6870TIP3   OH242100   2.896   6.091  15.555 -0.1179  0.1138  0.4060
 6870TIP3    H142101   2.894   6.047  15.641  0.2708 -0.9989 -0.1401
 6870TIP3    H242102   2.875   6.022  15.493 -1.0719  1.0611 -0.3585
 6871TIP3   OH242103   2.104   1.349  13.639 -0.0863 -0.2345 -0.3086
 6871TIP3    H142104   2.028   1.369  13.584  0.6210  0.9627 -0.8935
 6871TIP3    H242105   2.174   1.331  13.576  0.7893  1.3535  0.1701
 6872TIP3   OH242106   5.921   0.062  12.410 -0.2397  0.4362 -0.2722
 6872TIP3    H142107   5.886   0.098  12.329  0.9167  1.4528 -0.3474
 6872TIP3    H242108   5.856   0.083  12.477 -0.7820  0.3621 -0.7786
 6873TIP3   OH242109   2.877   2.181   4.351  0.2008 -0.3979 -0.4509
 6873TIP3    H142110   2.862   2.088   4.335  0.8000 -0.4324 -0.8613
 6873TIP3    H242111   2.952   2.183   4.410 -0.0936 -0.1877 -0.0866
 6874TIP3   OH242112   4.367   0.633   4.468  0.0306 -0.0639 -0.0138
 6874TIP3    H142113   4.416   0.577   4.409  1.3614  0.7885  0.2447
 6874TIP3    H242114   4.413   0.627   4.551 -2.1248 -1.6650  1.1594
 6875TIP3   OH242115   0.972   3.451  12.744 -0.1239  0.1950 -0.1631
 6875TIP3    H142116   1.021   3.509  12.803  0.3422  1.1851 -1.4909
 6875TIP3    H242117   1.036   3.387  12.714 -0.1008  0.3495 -0.4416
 6876TIP3   OH242118   4.725   3.883   0.894  0.0413 -0.5172  0.6449
 6876TIP3    H142119   4.639   3.880   0.937  0.5072 -0.0731  1.6443
 6876TIP3    H242120   4.710   3.934   0.814 -0.5381 -0.0289  1.0499
 6877TIP3   OH242121   4.153   4.321   6.224 -0.1899  0.2784 -0.2987
 6877TIP3    H142122   4.074   4.276   6.255 -0.1948  1.0328  0.8245
 6877TIP3    H242123   4.182   4.373   6.298  0.5017  1.2078 -1.1913
 6878TIP3   OH242124   3.050   1.755   2.885  0.2700  0.5975  0.4094
 6878TIP3    H142125   3.013   1.692   2.948 -1.5913  1.6020  0.4015
 6878TIP3    H242126   3.098   1.817   2.939 -2.0503  1.9610  1.0327
 6879TIP3   OH242127   6.221   1.409   2.315 -0.6674 -0.0244  0.2626
 6879TIP3    H142128   6.312   1.439   2.311  0.0716 -2.2024 -0.6148
 6879TIP3    H242129   6.222   1.341   2.382 -0.7253 -2.6786 -2.2300
 6880TIP3   OH242130   3.532   5.668   0.446  0.2223  0.0303  0.1306
 6880TIP3    H142131   3.525   5.761   0.465 -2.5954 -0.1853  0.5993
 6880TIP3    H242132   3.475   5.626   0.511  0.6276 -1.9382 -0.6952
 6881TIP3   OH242133   0.823   6.284   0.245  0.6490  0.1225  0.0715
 6881TIP3    H142134   0.779   6.270   0.329  1.1576  1.0846  0.5188
 6881TIP3    H242135   0.767   6.346   0.198  1.7682  1.8133  0.8836
 6882TIP3   OH242136   3.149   5.457   2.058 -0.1234  0.7853 -0.0716
 6882TIP3    H142137   3.068   5.405   2.062 -1.6994  2.7977 -2.2788
 6882TIP3    H242138   3.130   5.534   2.111  0.2793  1.3353 -0.7190
 6883TIP3   OH242139   0.563   6.752   5.780 -0.0305  0.0950  0.1652
 6883TIP3    H142140   0.531   6.728   5.867  0.8055  0.7145  0.6700
 6883TIP3    H242141   0.519   6.835   5.760 -1.4169 -0.8265 -0.7079
 6884TIP3   OH242142   0.224   4.219   1.508  0.2923 -0.6631 -0.1299
 6884TIP3    H142143   0.281   4.276   1.559  0.2945 -0.1080 -0.7356
 6884TIP3    H242144   0.240   4.131   1.542  0.9099 -0.4065  0.2494
 6885TIP3   OH242145   1.534   2.941  12.150  0.3228  0.0495 -0.1765
 6885TIP3    H142146   1.446   2.970  12.174  0.7104  0.0956  1.2248
 6885TIP3    H242147   1.522   2.898  12.065 -1.0583  0.0000  0.0206
 6886TIP3   OH242148   4.832   0.414  15.596  0.2520  0.6184 -0.0141
 6886TIP3    H142149   4.925   0.427  15.578  0.7723  0.1603  2.0136
 6886TIP3    H242150   4.817   0.321  15.582 -0.3548  0.9670 -1.9774
 6887TIP3   OH242151   6.450   2.125   2.782  0.1850  0.3940  0.0017
 6887TIP3    H142152   6.404   2.067   2.843 -0.2511  0.4587 -0.2638
 6887TIP3    H242153   6.435   2.213   2.818 -0.0757  0.4326 -0.1977
 6888TIP3   OH242154   6.302   2.468  11.346  0.1060  0.2638  0.4192
 6888TIP3    H142155   6.254   2.391  11.315 -1.7004  1.4510  0.0884
 6888TIP3    H242156   6.392   2.438  11.356 -0.5653 -1.9164  0.4386
 6889TIP3   OH242157   5.843   6.710   4.088 -0.0181 -0.5473 -0.5932
 6889TIP3    H142158   5.926   6.702   4.133  2.0578 -0.7347 -4.0645
 6889TIP3    H242159   5.820   6.620   4.063  0.6757 -0.2015 -2.6577
 6890TIP3   OH242160   0.807   6.353  12.328  0.4070  0.3080 -0.4345
 6890TIP3    H142161   0.748   6.384  12.396 -0.0544 -1.1274 -0.1550
 6890TIP3    H242162   0.894   6.381  12.357  0.0924  0.6780  0.1712
 6891TIP3   OH242163   3.739   3.078  13.380 -0.4440 -0.0446 -0.4904
 6891TIP3    H142164   3.794   3.071  13.302 -1.0657 -0.0009 -0.9354
 6891TIP3    H242165   3.660   3.029  13.359 -0.2893 -0.6956  0.4147
 6892TIP3   OH242166   1.153   1.998   1.976 -0.7425  0.2603 -0.2880
 6892TIP3    H142167   1.143   2.040   1.890 -2.7382  0.9946  0.2322
 6892TIP3    H242168   1.081   1.935   1.979  0.2418 -0.8555  0.2613
 6893TIP3   OH242169   0.312   1.724   3.530  0.6740  0.3544  0.2387
 6893TIP3    H142170   0.309   1.819   3.513  1.8193  0.4585  0.5190
 6893TIP3    H242171   0.231   1.705   3.577 -0.0172  1.0209 -0.6416
 6894TIP3   OH242172   0.017   6.311  13.136 -0.0852 -0.1712 -0.3740
 6894TIP3    H142173  -0.016   6.246  13.197  0.2470  0.0920  0.0998
 6894TIP3    H242174   0.069   6.261  13.073  0.4552 -0.3394  0.1856
 6895TIP3   OH242175   6.641   1.594   0.067 -0.1392 -0.2567  0.2929
 6895TIP3    H142176   6.696   1.597  -0.012 -0.0590 -0.8869  0.3217
 6895TIP3    H242177   6.648   1.682   0.104 -0.8252  0.2973 -0.8408
 6896TIP3   OH242178   0.781   4.563   0.379 -0.0091  0.2182  0.1291
 6896TIP3    H142179   0.723   4.639   0.376 -0.6118 -0.2076  0.8383
 6896TIP3    H242180   0.832   4.574   0.459  1.4640  0.9755 -0.8478
 6897TIP3   OH242181   2.662   4.767  12.900  0.2716  0.6309  0.0144
 6897TIP3    H142182   2.654   4.736  12.990  0.6539  1.0690  0.2053
 6897TIP3    H242183   2.755   4.792  12.891  0.3254  0.2250 -0.6197
 6898TIP3   OH242184   4.899   2.701  16.852 -0.0100  0.3020  0.0616
 6898TIP3    H142185   4.941   2.787  16.843 -1.3492  0.8706 -1.2250
 6898TIP3    H242186   4.961   2.639  16.813  0.2988  0.9104 -0.4288
 6899TIP3   OH242187   6.469   5.726  11.456 -0.1782  0.0270 -0.2097
 6899TIP3    H142188   6.446   5.702  11.546  0.8696  0.5657  0.2343
 6899TIP3    H242189   6.410   5.675  11.401 -0.7185 -0.4538  0.7808
 6900TIP3   OH242190   6.307   0.820  16.974 -0.9864  0.2088  0.4657
 6900TIP3    H142191   6.397   0.822  16.942 -1.2708 -1.1424 -0.5125
 6900TIP3    H242192   6.294   0.730  17.003 -2.3101  0.1095 -0.3310
 6901TIP3   OH242193   6.457   4.947   2.016  0.0238  0.1342  0.1716
 6901TIP3    H142194   6.451   4.880   2.084  1.0093  0.4685  0.6109
 6901TIP3    H242195   6.551   4.956   2.000 -0.1702  0.3636 -0.9385
 6902TIP3   OH242196   4.066   6.587   1.340 -0.7191  0.1244 -0.0860
 6902TIP3    H142197   4.156   6.553   1.338 -0.3909  0.9195  0.6184
 6902TIP3    H242198   4.012   6.510   1.321  0.1771  0.0984 -3.0296
 6903TIP3   OH242199   1.740   5.276  12.291 -0.3364 -0.3710 -0.3574
 6903TIP3    H142200   1.706   5.325  12.366 -0.7385 -0.8354 -0.2301
 6903TIP3    H242201   1.688   5.309  12.217 -0.8728 -0.8707 -0.2100
 6904TIP3   OH242202   2.601   3.705   0.382 -0.0084  0.3831  0.3838
 6904TIP3    H142203   2.696   3.712   0.381  0.5324 -4.0984 -0.4732
 6904TIP3    H242204   2.578   3.675   0.294 -1.7009 -2.1975  1.5904
 6905TIP3   OH242205   2.112   4.025  17.038  0.6512  1.2389  0.3433
 6905TIP3    H142206   2.051   4.026  17.111  0.0991  2.1136 -0.1173
 6905TIP3    H242207   2.180   3.963  17.064 -2.2152 -2.6762 -0.5860
 6906TIP3   OH242208   1.115   3.293  12.445 -0.1030  0.0149 -0.3485
 6906TIP3    H142209   1.071   3.326  12.367  1.0644 -0.2542 -1.1303
 6906TIP3    H242210   1.189   3.352  12.458 -0.2547  0.0225  0.5252
 6907TIP3   OH242211   2.241   5.175  14.139  0.1593 -0.4181 -0.1459
 6907TIP3    H142212   2.334   5.194  14.129 -0.1965  1.0636 -1.0041
 6907TIP3    H242213   2.198   5.257  14.117 -1.3432 -0.9535  0.6768
 6908TIP3   OH242214   6.218   2.252   5.137  0.0742  0.5649 -0.4144
 6908TIP3    H142215   6.200   2.331   5.086 -0.6667  0.9017  0.3237
 6908TIP3    H242216   6.200   2.278   5.228  1.0646 -0.0960 -0.0096
 6909TIP3   OH242217   6.443   1.309   4.721 -0.5249  0.1905  0.2971
 6909TIP3    H142218   6.359   1.278   4.688 -0.6049 -1.5442  1.9732
 6909TIP3    H242219   6.434   1.306   4.817  1.0402  1.1258  0.5120
 6910TIP3   OH242220   0.341   3.757   0.894  0.1612 -0.3045  0.6907
 6910TIP3    H142221   0.327   3.710   0.976 -1.7697  0.6917  0.9903
 6910TIP3    H242222   0.344   3.688   0.828 -0.5574 -0.9862  1.3440
 6911TIP3   OH242223   6.512   4.699   1.166 -0.5201 -0.1011  0.0941
 6911TIP3    H142224   6.436   4.659   1.124 -0.9972 -1.2767  1.9754
 6911TIP3    H242225   6.477   4.774   1.213  0.3136  2.5370 -3.0896
 6912TIP3   OH242226   5.164   6.060   7.118 -0.6164 -0.1474 -0.4485
 6912TIP3    H142227   5.104   5.987   7.131 -0.9238  0.2663  0.5671
 6912TIP3    H242228   5.113   6.126   7.071 -1.5982  0.9485  2.0143
 6913TIP3   OH242229   4.754   4.273  14.045 -0.2235 -0.7534 -0.0540
 6913TIP3    H142230   4.781   4.217  13.973  1.6622  0.6491 -0.5112
 6913TIP3    H242231   4.768   4.220  14.123 -0.2507 -1.5419 -0.5723
 6914TIP3   OH242232   5.355   1.843   3.091 -0.1223 -0.5832  0.0098
 6914TIP3    H142233   5.390   1.913   3.035 -0.6009 -0.1726  0.2097
 6914TIP3    H242234   5.271   1.877   3.121  0.5140 -0.4188  1.7005
 6915TIP3   OH242235   2.988   4.198  14.131 -0.4673  0.0628 -0.4658
 6915TIP3    H142236   2.933   4.254  14.076 -1.5665  0.2032  0.7274
 6915TIP3    H242237   2.935   4.182  14.210  1.3970  0.6541  0.9873
 6916TIP3   OH242238   0.098   4.606   1.646  0.6976 -0.0494 -0.4821
 6916TIP3    H142239   0.185   4.568   1.650  0.1667 -1.2515  0.3530
 6916TIP3    H242240   0.039   4.530   1.645 -0.3419  0.7410 -0.8350
 6917TIP3   OH242241   5.632   4.581   1.135  0.3874 -0.6199 -0.6441
 6917TIP3    H142242   5.711   4.553   1.088  1.2625  2.5356 -1.2858
 6917TIP3    H242243   5.665   4.629   1.210 -0.8699  0.9433 -1.0385
 6918TIP3   OH242244   3.732   2.820  16.963 -0.3655 -0.1766  0.0252
 6918TIP3    H142245   3.750   2.899  16.912  1.9703 -1.7790 -1.8588
 6918TIP3    H242246   3.818   2.781  16.977 -1.2706 -1.5176  2.4673
 6919TIP3   OH242247   2.217   1.089  13.842 -0.3361 -0.0579 -0.1603
 6919TIP3    H142248   2.135   1.043  13.855  0.1837 -1.4705 -1.5376
 6919TIP3    H242249   2.194   1.167  13.793 -1.0101  0.2820  0.6773
 6920TIP3   OH242250   3.131   3.474   5.354 -0.5271 -0.3114 -0.2666
 6920TIP3    H142251   3.051   3.450   5.400 -0.5483 -0.5307 -0.4195
 6920TIP3    H242252   3.157   3.395   5.307 -0.3872 -0.1506 -0.4622
 6921TIP3   OH242253   3.897   3.996  17.124  0.3390 -0.5752  0.2236
 6921TIP3    H142254   3.960   4.045  17.071 -0.3098 -0.1374 -0.1587
 6921TIP3    H242255   3.948   3.927  17.165  1.6269  1.3567  2.0658
 6922TIP3   OH242256   0.466   0.349  11.915 -0.5413  0.6540  0.0223
 6922TIP3    H142257   0.512   0.403  11.979 -0.7311  0.1729  0.5755
 6922TIP3    H242258   0.520   0.270  11.908 -1.0455  0.2762  0.3468
 6923TIP3   OH242259   6.425   2.384   3.306  0.8358  0.0105 -0.1177
 6923TIP3    H142260   6.454   2.383   3.215  0.5533 -2.6722 -0.2442
 6923TIP3    H242261   6.506   2.384   3.357  0.9974  1.7699 -0.3060
 6924TIP3   OH242262   2.558   5.258   1.717  0.2844 -0.1341 -0.1668
 6924TIP3    H142263   2.479   5.286   1.670 -1.3100 -2.4294  0.9415
 6924TIP3    H242264   2.525   5.210   1.793  2.7809  1.5239  2.1461
 6925TIP3   OH242265   5.228   6.716  17.311 -0.3645  0.3221  0.2463
 6925TIP3    H142266   5.190   6.694  17.225  0.7802  3.4840 -1.2317
 6925TIP3    H242267   5.160   6.767  17.354 -0.4047 -0.0471  0.6234
 6926TIP3   OH242268   5.197   6.560  16.603  0.0447  0.2497 -0.2991
 6926TIP3    H142269   5.157   6.489  16.553 -1.5638 -0.6051  2.0580
 6926TIP3    H242270   5.290   6.538  16.605 -0.1466 -0.7495 -1.1863
 6927TIP3   OH242271   0.189   3.257   5.752 -0.0164 -0.1169 -0.2139
 6927TIP3    H142272   0.255   3.311   5.796  0.5930 -1.9753  1.2640
 6927TIP3    H242273   0.152   3.315   5.685  3.4496  0.8731 -1.4946
 6928TIP3   OH242274   0.044   5.695  15.029  0.6393  0.1994  1.0530
 6928TIP3    H142275  -0.050   5.679  15.028  0.5750  0.5742  0.4985
 6928TIP3    H242276   0.057   5.769  14.969  1.4039 -0.5397  0.2655
 6929TIP3   OH242277   4.337   2.204   5.610 -0.0966 -0.0929 -0.0842
 6929TIP3    H142278   4.429   2.230   5.605 -0.1215 -0.2033 -1.4343
 6929TIP3    H242279   4.296   2.245   5.534 -0.9168 -0.9910 -0.1474
 6930TIP3   OH242280   0.938   4.909   1.431  0.1320  0.1532 -0.0786
 6930TIP3    H142281   0.922   4.934   1.522  0.0650 -1.3298  0.3352
 6930TIP3    H242282   1.006   4.970   1.401 -1.3415  2.0502  0.2647
 6931TIP3   OH242283   3.969   4.043   4.129 -0.4039 -0.3354  0.1774
 6931TIP3    H142284   4.012   4.121   4.164 -1.7705 -0.3602  2.0977
 6931TIP3    H242285   3.973   3.979   4.201 -0.6562 -1.5043 -0.8070
 6932TIP3   OH242286   0.404   3.454   5.532 -0.3270 -1.1002  0.2137
 6932TIP3    H142287   0.443   3.520   5.590 -0.2497 -0.4739 -0.5287
 6932TIP3    H242288   0.456   3.460   5.452 -0.9660 -1.3530 -0.2269
 6933TIP3   OH242289   6.129   5.011  16.251 -0.7546 -0.0458  0.7540
 6933TIP3    H142290   6.070   4.938  16.271 -1.5324  0.4298  0.2515
 6933TIP3    H242291   6.178   4.981  16.175 -0.8636 -0.1596  0.7270
 6934TIP3   OH242292   3.300   5.247  15.235 -0.4193  0.0660 -0.2534
 6934TIP3    H142293   3.259   5.320  15.282  0.5377  0.5841 -0.2083
 6934TIP3    H242294   3.253   5.170  15.266 -1.3573  0.6424 -0.2004
 6935TIP3   OH242295   1.249   2.142   2.175 -0.0094 -0.5361  0.2509
 6935TIP3    H142296   1.216   2.076   2.114  1.5095 -1.5058  0.4140
 6935TIP3    H242297   1.171   2.182   2.212 -0.9651 -0.7864 -1.4179
 6936TIP3   OH242298   6.119   2.980  14.539  0.1378  0.5224  0.4300
 6936TIP3    H142299   6.181   2.934  14.482  0.8558  1.0840  0.7499
 6936TIP3    H242300   6.081   2.910  14.593 -1.8571 -0.3078 -1.8506
 6937TIP3   OH242301   6.669   0.100   0.857 -0.4975 -0.9835  0.3942
 6937TIP3    H142302   6.597   0.141   0.905 -0.8316 -1.5539  0.3974
 6937TIP3    H242303   6.744   0.156   0.872 -0.3211 -1.6952  2.4533
 6938TIP3   OH242304   1.864   5.113   5.680  0.3903  0.8510 -0.5090
 6938TIP3    H142305   1.772   5.095   5.659  0.0432 -0.1536  1.5999
 6938TIP3    H242306   1.914   5.058   5.619 -0.5257 -1.0886  0.3990
 6939TIP3   OH242307   4.670   2.229  16.618 -0.1296  0.0673 -0.2068
 6939TIP3    H142308   4.715   2.313  16.631 -2.1155  1.1482  0.1844
 6939TIP3    H242309   4.633   2.209  16.704 -0.7737 -0.5336 -0.6242
 6940TIP3   OH242310   0.877   1.601   5.895 -0.7798  0.1704  0.2234
 6940TIP3    H142311   0.832   1.684   5.882 -2.3586 -0.3170  2.0924
 6940TIP3    H242312   0.832   1.561   5.970 -0.2992 -2.5230 -0.8114
 6941TIP3   OH242313   6.423   5.910   0.786 -0.0814  0.1747 -0.5743
 6941TIP3    H142314   6.416   5.864   0.870 -1.4584 -0.2179 -0.8654
 6941TIP3    H242315   6.503   5.961   0.793  1.0842 -1.6169  0.1027
 6942TIP3   OH242316   5.466   3.426   5.953  0.1359 -0.2604 -0.6347
 6942TIP3    H142317   5.388   3.476   5.976 -0.0392 -1.0468  0.5997
 6942TIP3    H242318   5.535   3.465   6.007  0.7450  0.7454 -2.0640
 6943TIP3   OH242319   1.771   1.952  14.298  0.4166 -0.3914 -0.1306
 6943TIP3    H142320   1.790   1.867  14.338  0.5803 -0.2982 -0.0121
 6943TIP3    H242321   1.851   1.976  14.252  0.4593 -0.1773  0.0558
 6944TIP3   OH242322   2.698   1.486  15.663  0.1137 -0.3557 -0.2584
 6944TIP3    H142323   2.704   1.518  15.573  0.0673 -0.7194 -0.3909
 6944TIP3    H242324   2.712   1.564  15.717 -1.6425  0.2219 -0.5711
 6945TIP3   OH242325   3.050   5.657  13.124  0.5408 -0.8261  0.3419
 6945TIP3    H142326   3.042   5.661  13.220  0.0687 -1.9886  0.3704
 6945TIP3    H242327   2.965   5.623  13.095  0.2761  0.5568 -0.5923
 6946TIP3   OH242328   1.412   3.485   3.079  0.3957 -0.1001 -0.1912
 6946TIP3    H142329   1.452   3.495   3.166  1.8296 -0.4703 -0.7714
 6946TIP3    H242330   1.432   3.567   3.034  1.3808 -0.6411 -0.7984
 6947TIP3   OH242331   0.201   1.857   5.163  0.6460  0.3178  0.2556
 6947TIP3    H142332   0.281   1.910   5.159  0.7293  0.3029  1.3816
 6947TIP3    H242333   0.130   1.920   5.153  0.7186  0.7872  2.3283
 6948TIP3   OH242334   1.127   1.954  16.442 -0.1004 -0.1734 -0.0609
 6948TIP3    H142335   1.127   1.861  16.467  0.8452  0.0187  0.6983
 6948TIP3    H242336   1.219   1.979  16.441 -0.2431  0.4450 -1.5418
 6949TIP3   OH242337   3.759   4.136  11.683  0.1787  0.0608  0.2357
 6949TIP3    H142338   3.751   4.111  11.775  1.5084  0.9631  0.6301
 6949TIP3    H242339   3.824   4.075  11.647  0.9305  0.7752  0.3483
 6950TIP3   OH242340   4.910   1.096  13.811  0.4879 -0.0871 -0.4268
 6950TIP3    H142341   4.886   1.114  13.902  2.3246  0.8340 -0.0969
 6950TIP3    H242342   4.898   1.179  13.766  1.6454  0.0300 -0.5449
 6951TIP3   OH242343   4.882   1.417  15.516  0.5169 -0.4330  0.0916
 6951TIP3    H142344   4.819   1.373  15.574 -0.2662 -0.6780 -0.8979
 6951TIP3    H242345   4.968   1.391  15.549  0.2317  1.8295  2.9819
 6952TIP3   OH242346   0.637   0.628  10.940 -0.3877  0.0965  0.4100
 6952TIP3    H142347   0.587   0.548  10.960 -0.7663  0.6265  1.6273
 6952TIP3    H242348   0.603   0.655  10.854 -1.0489 -0.4392  0.4871
 6953TIP3   OH242349   3.632   3.097   5.538 -0.1026 -0.4171 -0.2946
 6953TIP3    H142350   3.617   3.010   5.574 -0.5720  0.2073  1.0945
 6953TIP3    H242351   3.638   3.154   5.614 -0.7350  0.9162 -1.1967
 6954TIP3   OH242352   1.683   6.357   0.011  0.2707 -0.3003 -0.4246
 6954TIP3    H142353   1.714   6.420  -0.054  1.5918 -1.8168 -1.3406
 6954TIP3    H242354   1.753   6.291   0.016 -0.7270 -1.3170  1.0302
 6955TIP3   OH242355   2.492   6.160   1.451 -0.3048 -0.1257 -0.0413
 6955TIP3    H142356   2.569   6.145   1.505  0.6322 -0.7017 -1.4863
 6955TIP3    H242357   2.504   6.248   1.415 -0.9903  0.3075  0.7394
 6956TIP3   OH242358   2.152   2.901   1.829 -0.1363  0.4114  0.2889
 6956TIP3    H142359   2.231   2.913   1.882 -0.2037 -0.9886  0.7557
 6956TIP3    H242360   2.113   2.989   1.824  0.7855  0.8917  1.0981
 6957TIP3   OH242361   0.419   0.563  15.897 -0.0679 -0.3447  0.4057
 6957TIP3    H142362   0.514   0.573  15.910  0.1861 -1.3282 -0.4957
 6957TIP3    H242363   0.401   0.473  15.924 -0.8210 -0.0509  0.9059
 6958TIP3   OH242364   3.382   2.678   4.661 -0.3411  0.1778  0.1310
 6958TIP3    H142365   3.374   2.772   4.675 -0.5088  0.2604 -0.4560
 6958TIP3    H242366   3.439   2.670   4.584  0.3905 -0.2305  0.7097
 6959TIP3   OH242367   5.708   4.518   5.352 -0.0839 -0.0140  0.0866
 6959TIP3    H142368   5.794   4.560   5.350  0.5174 -1.2166 -0.8223
 6959TIP3    H242369   5.727   4.424   5.346 -1.4664 -0.2849 -0.5245
 6960TIP3   OH242370   2.661   0.912  15.032 -0.4570  0.4316 -0.2922
 6960TIP3    H142371   2.659   1.008  15.029  0.6903  0.5229  0.8786
 6960TIP3    H242372   2.593   0.889  15.095  0.6752  0.6290  1.0551
 6961TIP3   OH242373   0.870   2.264   3.792  0.1980  0.6228 -0.4550
 6961TIP3    H142374   0.943   2.243   3.733 -0.4073 -0.1970 -0.9363
 6961TIP3    H242375   0.841   2.179   3.825 -1.1140  0.8501 -0.9636
 6962TIP3   OH242376   0.026   3.584   5.614  0.5607  0.3731  0.0498
 6962TIP3    H142377   0.020   3.489   5.605  1.7544  0.1120  1.6289
 6962TIP3    H242378   0.047   3.615   5.526 -1.9345 -0.5565 -0.9889
 6963TIP3   OH242379   6.029   4.427   6.156 -0.0198  0.5126 -0.0629
 6963TIP3    H142380   6.112   4.385   6.135 -0.0438  0.6931 -0.5408
 6963TIP3    H242381   6.052   4.502   6.211  0.2321  1.1083 -0.9502
 6964TIP3   OH242382   3.333   2.980   4.935  0.0324 -0.0579  0.4312
 6964TIP3    H142383   3.247   3.008   4.904 -0.4471 -2.2732 -0.4051
 6964TIP3    H242384   3.383   2.964   4.855  0.7491 -0.1361  0.8881
 6965TIP3   OH242385   6.355   2.716   0.240 -0.4642  0.1372  0.0308
 6965TIP3    H142386   6.301   2.756   0.172 -0.1385  0.5947  0.0411
 6965TIP3    H242387   6.444   2.727   0.209 -0.3857 -1.1122 -0.2606
 6966TIP3   OH242388   5.363   1.283   6.360  0.4027 -0.1143  0.5750
 6966TIP3    H142389   5.296   1.280   6.429  1.4929 -2.0485  1.6526
 6966TIP3    H242390   5.414   1.361   6.379 -0.0463  0.0250  1.2385
 6967TIP3   OH242391   2.719   4.918  13.385  0.4596  0.3651 -0.1758
 6967TIP3    H142392   2.768   4.866  13.449 -0.5319  1.9511  1.9879
 6967TIP3    H242393   2.778   4.926  13.310  1.4637 -2.0164  0.2761
 6968TIP3   OH242394   2.776   1.734   0.739  0.2025  0.1072  0.3155
 6968TIP3    H142395   2.805   1.654   0.783  0.5915 -0.4469 -0.8950
 6968TIP3    H242396   2.770   1.799   0.809  0.6005 -0.7867  1.2096
 6969TIP3   OH242397   3.457   1.572   1.428 -0.1346  0.5574  0.0050
 6969TIP3    H142398   3.514   1.634   1.473 -0.2089  0.1356  0.6949
 6969TIP3    H242399   3.508   1.491   1.424  0.3858  0.9229 -1.8298
 6970TIP3   OH242400   0.929   5.154   2.374  0.1739  0.2356 -0.4967
 6970TIP3    H142401   0.973   5.190   2.297  0.2317  3.2018  0.7522
 6970TIP3    H242402   1.001   5.131   2.434  0.1010  0.2362 -0.4082
 6971TIP3   OH242403   2.973   5.300   2.211 -0.2069 -0.4064 -0.2882
 6971TIP3    H142404   3.008   5.270   2.295  1.9957  1.1737 -0.5605
 6971TIP3    H242405   2.988   5.226   2.152  0.6391 -0.5778  0.1238
 6972TIP3   OH242406   1.930   3.440   1.184  0.3352 -0.1441  0.1898
 6972TIP3    H142407   1.956   3.415   1.273  0.5992 -1.7042 -0.2913
 6972TIP3    H242408   1.979   3.381   1.127 -1.7343 -0.9345 -0.8822
 6973TIP3   OH242409   2.286   0.619   1.485  0.5991  0.4533  0.1936
 6973TIP3    H142410   2.343   0.649   1.414 -0.1623  1.3353 -0.0661
 6973TIP3    H242411   2.342   0.617   1.562  0.9818  1.3028 -0.0586
 6974TIP3   OH242412   2.001   4.927   4.872 -0.0151  0.5126  0.4180
 6974TIP3    H142413   2.055   4.861   4.828  1.6540  1.9213  0.2273
 6974TIP3    H242414   1.985   4.891   4.959 -0.3877 -0.7668 -0.1530
 6975TIP3   OH242415   1.763   4.867   4.388 -0.4548  0.5651  0.0338
 6975TIP3    H142416   1.746   4.812   4.465 -1.5834 -0.0193 -0.5903
 6975TIP3    H242417   1.795   4.806   4.322 -2.0333  0.5622 -0.7718
 6976TIP3   OH242418   0.017   1.785  12.334  0.4294 -0.0708 -0.2525
 6976TIP3    H142419   0.050   1.872  12.353  2.0279 -0.7003 -0.0229
 6976TIP3    H242420  -0.033   1.795  12.253  0.2462  1.1150 -0.0061
 6977TIP3   OH242421   0.346   5.624  14.206  0.8469 -0.0636 -0.2625
 6977TIP3    H142422   0.394   5.687  14.152  1.6114  0.5411  1.0824
 6977TIP3    H242423   0.362   5.652  14.296 -1.3132 -0.3835  0.2669
 6978TIP3   OH242424   0.167   5.986  14.364 -0.1303  0.3128 -0.5245
 6978TIP3    H142425   0.220   6.063  14.345  0.4014 -0.2064 -1.2026
 6978TIP3    H242426   0.229   5.925  14.405 -0.2561 -0.1990 -1.0806
 6979TIP3   OH242427   4.023   3.951   5.751 -0.5398  0.4251  0.1513
 6979TIP3    H142428   4.074   3.978   5.827 -0.4954  0.3487  0.1495
 6979TIP3    H242429   3.986   4.031   5.716 -0.5306  0.4642  0.2334
 6980TIP3   OH242430   1.428   3.059   4.494  0.2614 -0.0749  0.5716
 6980TIP3    H142431   1.413   3.035   4.586  2.5540  1.0911  1.3196
 6980TIP3    H242432   1.523   3.071   4.487  0.0295  0.9799 -1.6706
 6981TIP3   OH242433   3.612   4.616  16.250  0.6171  0.3889 -0.2079
 6981TIP3    H142434   3.580   4.706  16.246  0.8452  0.4428 -1.0021
 6981TIP3    H242435   3.658   4.603  16.167  0.2833 -0.5731 -0.2580
 6982TIP3   OH242436   4.154   3.010   6.124  0.3980 -0.6160 -0.6326
 6982TIP3    H142437   4.074   2.973   6.162  0.4968  0.1407  0.3502
 6982TIP3    H242438   4.136   3.103   6.117  1.9556 -0.0543  1.6954
 6983TIP3   OH242439   4.834   1.816  15.403  0.0054 -0.2193 -0.2332
 6983TIP3    H142440   4.767   1.748  15.400 -0.7232  0.2621  2.2979
 6983TIP3    H242441   4.803   1.882  15.341 -2.0436  0.0834  1.0075
 6984TIP3   OH242442   3.344   2.370   3.779  0.2401 -0.0701  0.2035
 6984TIP3    H142443   3.356   2.318   3.700 -0.1847  0.4491 -0.2093
 6984TIP3    H242444   3.414   2.435   3.776  1.3822 -1.2022  1.2215
 6985TIP3   OH242445   4.868   3.454  15.991  0.2455  0.1300  0.8564
 6985TIP3    H142446   4.896   3.419  16.076  0.5698 -0.1565  0.6313
 6985TIP3    H242447   4.895   3.546  15.994 -0.0611  0.2127  1.2043
 6986TIP3   OH242448   6.096   6.340  12.451 -0.3892 -0.3417 -0.3320
 6986TIP3    H142449   6.120   6.410  12.389 -0.6307 -0.6663 -0.7970
 6986TIP3    H242450   6.022   6.377  12.501  0.9506  0.6127  1.0216
 6987TIP3   OH242451   1.452   1.531   1.909  0.1774  0.2186  0.2030
 6987TIP3    H142452   1.408   1.534   1.993 -1.2522  1.3351 -0.5387
 6987TIP3    H242453   1.388   1.567   1.847  0.6832 -1.7498 -1.5829
 6988TIP3   OH242454   0.018   1.095   4.470  0.2070  0.4384 -0.1745
 6988TIP3    H142455  -0.040   1.042   4.524  1.4033 -1.5421 -0.7426
 6988TIP3    H242456  -0.041   1.149   4.418 -1.0479  0.0897  0.8195
 6989TIP3   OH242457   0.858   2.176   5.434 -0.3045  0.6229  0.0779
 6989TIP3    H142458   0.880   2.128   5.513  1.8363  1.6287  0.1501
 6989TIP3    H242459   0.823   2.260   5.465  2.4201  1.8534  0.0658
 6990TIP3   OH242460   5.802   2.282  15.337 -0.2217 -0.8210  0.1571
 6990TIP3    H142461   5.788   2.368  15.299 -0.3194 -1.3030 -0.9423
 6990TIP3    H242462   5.826   2.299  15.428  3.5591  0.5850 -0.9330
 6991TIP3   OH242463   3.364   6.464   5.227 -0.4468 -0.4978 -0.3805
 6991TIP3    H142464   3.416   6.520   5.170 -0.4979  0.3015  0.3364
 6991TIP3    H242465   3.311   6.525   5.279 -1.9280 -1.2778 -0.9248
 6992TIP3   OH242466   5.182   2.885   1.203  0.3075 -0.2421 -0.0423
 6992TIP3    H142467   5.161   2.919   1.290 -0.1220 -0.4725 -0.0579
 6992TIP3    H242468   5.116   2.923   1.145 -0.6121 -1.6337  0.0468
 6993TIP3   OH242469   6.105   5.770  15.212 -0.3185  0.0780  0.4695
 6993TIP3    H142470   6.078   5.695  15.266  2.1345 -0.9025  0.4893
 6993TIP3    H242471   6.127   5.732  15.127  0.7682  0.7819  0.4136
 6994TIP3   OH242472   2.285   0.961  15.272 -0.1518 -0.3322 -0.3902
 6994TIP3    H142473   2.353   0.896  15.257 -0.4694 -0.4348 -1.4702
 6994TIP3    H242474   2.312   1.006  15.351  0.4239 -1.3254 -0.0081
 6995TIP3   OH242475   5.670   6.112  11.333 -0.0923 -0.4670  0.0637
 6995TIP3    H142476   5.585   6.156  11.337  0.3049  0.5196 -1.5373
 6995TIP3    H242477   5.651   6.027  11.293 -0.3417 -0.2816 -0.2121
 6996TIP3   OH242478   0.522   4.013  13.140  0.7126  0.2324 -0.1929
 6996TIP3    H142479   0.485   4.083  13.086 -0.4042 -0.6283 -0.5817
 6996TIP3    H242480   0.455   3.994  13.205  1.4076  0.1860  0.5223
 6997TIP3   OH242481   2.510   6.101  14.818  0.7596 -0.3092 -0.0764
 6997TIP3    H142482   2.493   6.192  14.792 -1.0245 -0.5845 -0.0091
 6997TIP3    H242483   2.523   6.105  14.913 -0.0691 -0.2030  0.0383
 6998TIP3   OH242484   2.998   1.076   5.893 -0.0916  0.0949 -0.1316
 6998TIP3    H142485   3.048   1.157   5.900  0.1985 -0.0035 -0.9462
 6998TIP3    H242486   3.024   1.025   5.969 -0.3915  0.8263  0.4682
 6999TIP3   OH242487   6.699   3.115   6.656 -0.0233  0.6141  0.5632
 6999TIP3    H142488   6.792   3.131   6.640  0.5267 -1.6357  1.1084
 6999TIP3    H242489   6.679   3.039   6.602 -0.3685 -1.6451  3.6250
 7000TIP3   OH242490   2.758   2.170  16.278  0.0270 -0.4932  0.0379
 7000TIP3    H142491   2.771   2.144  16.187  0.2777 -1.6582  0.3906
 7000TIP3    H242492   2.837   2.221  16.299 -0.9688  1.5617 -0.9802
 7001TIP3   OH242493   0.484   5.233  15.562  0.1285 -0.1738 -0.0255
 7001TIP3    H142494   0.495   5.139  15.549 -1.8985 -0.2280 -2.0698
 7001TIP3    H242495   0.435   5.241  15.643 -0.5927 -0.9895 -0.3648
 7002TIP3   OH242496   4.117   0.956  12.142  0.9483  0.2972 -0.1610
 7002TIP3    H142497   4.145   0.963  12.233  2.1958  0.8042 -0.5603
 7002TIP3    H242498   4.085   1.043  12.119  1.7488  0.5048 -0.5366
 7003TIP3   OH242499   5.574   5.505  14.899 -0.4088 -0.3396 -0.1277
 7003TIP3    H142500   5.647   5.470  14.950 -0.3055  1.1957  0.8271
 7003TIP3    H242501   5.595   5.597  14.888 -1.3146 -0.2600 -1.4534
 7004TIP3   OH242502   6.140   0.474  12.358  0.4828  0.6464  0.4393
 7004TIP3    H142503   6.093   0.506  12.282  1.7402 -1.7809 -1.4861
 7004TIP3    H242504   6.073   0.433  12.413 -0.0690 -0.1487 -0.7945
 7005TIP3   OH242505   3.440   0.882   3.502  0.3239  0.1738  0.0996
 7005TIP3    H142506   3.503   0.915   3.439  0.8907  0.2662  0.6970
 7005TIP3    H242507   3.383   0.956   3.523 -1.1397 -0.3477 -1.7614
 7006TIP3   OH242508   3.444   4.909   3.785 -0.4085  0.2292  0.2682
 7006TIP3    H142509   3.418   4.822   3.757  0.6804 -0.0828  0.1820
 7006TIP3    H242510   3.503   4.940   3.716 -2.0664  1.7353 -0.5638
 7007TIP3   OH242511   1.896   6.558  10.967 -0.4413 -0.6048 -0.8857
 7007TIP3    H142512   1.814   6.545  11.014 -0.2141 -1.5991 -0.7405
 7007TIP3    H242513   1.912   6.652  10.972 -0.9202 -0.5673  0.1911
 7008TIP3   OH242514   3.903   3.267   1.116  0.6054 -0.7466  0.4629
 7008TIP3    H142515   3.951   3.186   1.133  0.2428 -0.7588  1.4602
 7008TIP3    H242516   3.901   3.312   1.200  0.0132 -0.1246  0.1276
 7009TIP3   OH242517   6.426   0.785   3.211  0.0131 -0.2263  0.3099
 7009TIP3    H142518   6.439   0.736   3.292 -2.8054 -0.8053  0.4924
 7009TIP3    H242519   6.440   0.721   3.141 -1.0226 -0.6422  0.4706
 7010TIP3   OH242520   6.508   0.828  12.792 -0.0772  0.0836 -0.1912
 7010TIP3    H142521   6.487   0.885  12.718  1.0245  1.1101  0.2564
 7010TIP3    H242522   6.438   0.763  12.793 -1.1185  1.1541 -1.0132
 7011TIP3   OH242523   4.772   2.157  14.478  0.3454  0.7948 -0.8613
 7011TIP3    H142524   4.713   2.119  14.544  1.3202  1.6582  0.5858
 7011TIP3    H242525   4.765   2.099  14.403 -2.2818  0.8334 -0.7323
 7012TIP3   OH242526   1.377   3.678   0.437 -0.1465 -0.1102 -0.1979
 7012TIP3    H142527   1.306   3.700   0.377 -0.1407 -0.2435 -0.2536
 7012TIP3    H242528   1.337   3.618   0.500  0.0904 -0.7318 -0.6345
 7013TIP3   OH242529   4.593   3.505   2.082  0.2205  0.9763  0.6667
 7013TIP3    H142530   4.662   3.449   2.116 -0.6501 -0.8636 -0.4069
 7013TIP3    H242531   4.631   3.545   2.004  0.8504  1.9199  1.4406
 7014TIP3   OH242532   0.953   5.182   4.963 -0.3742 -0.8505  0.3401
 7014TIP3    H142533   0.867   5.206   4.997 -1.0862 -1.7008 -0.7634
 7014TIP3    H242534   0.985   5.262   4.921 -1.7640 -1.1389 -1.4240
 7015TIP3   OH242535   5.075   3.990  17.412  0.2831  0.1137  0.3931
 7015TIP3    H142536   5.127   3.979  17.332  0.7223  0.4026  0.6404
 7015TIP3    H242537   5.021   3.911  17.415  0.2742  0.0896 -0.1814
 7016TIP3   OH242538   1.950   5.496  17.247  0.2956 -0.0280 -0.4706
 7016TIP3    H142539   1.946   5.557  17.173  2.6377  2.7574  1.4637
 7016TIP3    H242540   2.040   5.462  17.245  0.2118 -0.3682  0.7436
 7017TIP3   OH242541   1.067   0.881   1.549 -0.0800  0.4416 -0.1150
 7017TIP3    H142542   1.090   0.789   1.554  0.1515  0.5146  0.1676
 7017TIP3    H242543   1.151   0.927   1.548 -0.1978  0.7146  1.0264
 7018TIP3   OH242544   4.913   4.348   1.315 -0.1706  0.5014 -0.0330
 7018TIP3    H142545   4.827   4.386   1.298 -1.2282 -1.7609 -0.0891
 7018TIP3    H242546   4.924   4.283   1.246  1.8805  1.1092 -0.3593
 7019TIP3   OH242547   2.574   2.280   2.029 -0.0576  0.0450  0.2513
 7019TIP3    H142548   2.501   2.292   1.969  0.4797  0.4481 -0.3296
 7019TIP3    H242549   2.535   2.289   2.116 -0.6659  0.4338 -0.0596
 7020TIP3   OH242550   6.757   1.840   2.645 -0.1411  0.6171  0.4623
 7020TIP3    H142551   6.724   1.929   2.657  0.6121  0.7040  2.2176
 7020TIP3    H242552   6.852   1.849   2.652 -0.0424 -0.2882  0.3923
 7021TIP3   OH242553   1.176   4.563   4.641  0.4094 -0.1012 -0.3926
 7021TIP3    H142554   1.175   4.488   4.701  0.1391 -1.4051 -1.9626
 7021TIP3    H242555   1.268   4.575   4.619  0.4650  0.1037 -0.0494
 7022TIP3   OH242556   2.476   3.936   1.602  0.2244 -1.0707 -0.1178
 7022TIP3    H142557   2.441   3.847   1.605  0.3510 -1.1176  0.0217
 7022TIP3    H242558   2.566   3.926   1.572  0.2412 -0.9919 -0.0951
 7023TIP3   OH242559   4.451   6.254   3.394  0.3853  0.0434  0.1962
 7023TIP3    H142560   4.449   6.315   3.468  0.7843 -0.1261  0.3493
 7023TIP3    H242561   4.424   6.170   3.431 -1.0355  0.3054 -0.1989
 7024TIP3   OH242562   4.153   4.079  17.038 -0.0836 -0.0926 -0.1084
 7024TIP3    H142563   4.192   4.001  17.000 -0.7004 -1.1981  1.4404
 7024TIP3    H242564   4.219   4.148  17.025  1.2839 -1.3060  0.1855
 7025TIP3   OH242565   3.566   3.492  13.680  0.4395 -0.4311  0.0853
 7025TIP3    H142566   3.554   3.415  13.625  1.4263  0.1948 -1.0767
 7025TIP3    H242567   3.485   3.541  13.671  1.0717  0.3470 -2.0063
 7026TIP3   OH242568   3.432   0.438   6.562 -0.1231  0.3237 -0.9129
 7026TIP3    H142569   3.462   0.368   6.505 -0.7004 -1.6959  1.1239
 7026TIP3    H242570   3.512   0.480   6.594  0.3294 -0.7737 -0.5728
 7027TIP3   OH242571   1.696   5.931  11.096 -0.5309  0.0346 -0.0776
 7027TIP3    H142572   1.767   5.867  11.102 -1.9652 -1.6188 -0.0079
 7027TIP3    H242573   1.688   5.950  11.003 -0.3178 -0.1339 -0.1305
 7028TIP3   OH242574   1.006   0.108   2.466  0.1801  0.3861  0.2253
 7028TIP3    H142575   1.094   0.113   2.428 -0.3949  1.1182 -1.0798
 7028TIP3    H242576   0.991   0.196   2.500 -0.5615  0.6727 -0.7999
 7029TIP3   OH242577   1.836   6.432  16.675 -0.2913  0.3300 -0.3246
 7029TIP3    H142578   1.927   6.404  16.688 -0.4188  0.0727  0.0242
 7029TIP3    H242579   1.839   6.527  16.685 -0.0691  0.3152 -0.2356
 7030TIP3   OH242580   0.554   5.748   1.633  0.0955 -0.2528 -0.0607
 7030TIP3    H142581   0.600   5.778   1.712 -0.0442  0.4685 -0.2436
 7030TIP3    H242582   0.483   5.811   1.621  0.3528 -0.1209 -0.9851
 7031TIP3   OH242583   6.400   6.414  14.066  0.1325 -0.3110 -0.4891
 7031TIP3    H142584   6.468   6.459  14.016 -0.5959 -1.0528 -2.2395
 7031TIP3    H242585   6.448   6.355  14.125  1.0289 -0.8098 -1.6745
 7032TIP3   OH242586   6.242   5.501   2.482 -0.1411 -0.3722  0.0278
 7032TIP3    H142587   6.246   5.460   2.395 -0.1853 -1.2785  0.4429
 7032TIP3    H242588   6.334   5.519   2.503 -0.1381 -0.0363 -0.2481
 7033TIP3   OH242589   5.716   5.653   2.692 -0.2483  0.0091  0.5111
 7033TIP3    H142590   5.754   5.567   2.707 -0.8541 -0.4761 -0.6104
 7033TIP3    H242591   5.669   5.645   2.609  0.0748  1.5453  0.1417
 7034TIP3   OH242592   6.616   4.553   0.226  0.7468 -0.3945 -0.3936
 7034TIP3    H142593   6.570   4.469   0.226  1.6729 -0.9115 -1.0634
 7034TIP3    H242594   6.552   4.615   0.191 -0.3146 -0.5939  1.1215
 7035TIP3   OH242595   5.367   6.698  10.862  0.0320  0.1273 -0.2954
 7035TIP3    H142596   5.392   6.664  10.775  1.2948 -0.3154  0.2203
 7035TIP3    H242597   5.430   6.658  10.922 -0.0269  1.4382  0.6713
 7036TIP3   OH242598   4.623   1.351   3.180 -0.1462  0.0591 -0.4908
 7036TIP3    H142599   4.679   1.286   3.222  1.0495  1.0489 -0.5050
 7036TIP3    H242600   4.544   1.354   3.234 -0.1061 -1.1892 -0.3373
 7037TIP3   OH242601   2.918   4.866  12.918 -0.5875  0.4281  0.1761
 7037TIP3    H142602   2.900   4.838  13.008 -0.4421  1.3220  0.4883
 7037TIP3    H242603   3.011   4.884  12.916 -0.3834 -0.5863 -0.4503
 7038TIP3   OH242604   0.183   1.683   4.267 -0.7421  0.3807 -0.0856
 7038TIP3    H142605   0.171   1.778   4.255 -1.8442  0.0853 -1.5828
 7038TIP3    H242606   0.200   1.650   4.179  0.2502 -0.7617  0.5072
 7039TIP3   OH242607   4.600   1.462   5.742 -0.1908 -0.0594  0.3076
 7039TIP3    H142608   4.639   1.385   5.783 -0.9769 -0.3217  0.5835
 7039TIP3    H242609   4.537   1.494   5.806 -0.0134  0.7013  0.1126
 7040TIP3   OH242610   5.901   2.948  14.899  0.4804 -0.1332  0.0124
 7040TIP3    H142611   5.869   2.957  14.989  0.8715  2.0434  0.0029
 7040TIP3    H242612   5.981   2.896  14.907 -0.5974 -1.7814  0.6073
 7041TIP3   OH242613   2.341   4.295  17.144 -0.6480 -0.5347  0.3014
 7041TIP3    H142614   2.383   4.380  17.137  0.5155 -1.0908  0.3523
 7041TIP3    H242615   2.365   4.249  17.063 -2.4453 -0.3245 -0.3979
 7042TIP3   OH242616   6.592   1.193  16.444  0.6538  0.2349  0.2268
 7042TIP3    H142617   6.499   1.199  16.420  0.8369 -0.9678 -0.9417
 7042TIP3    H242618   6.626   1.124  16.387  1.4838 -1.8974  3.0802
 7043TIP3   OH242619   3.040   1.417   5.722 -0.0268 -0.0684 -0.3259
 7043TIP3    H142620   3.132   1.441   5.727 -0.2173  0.9866 -1.6066
 7043TIP3    H242621   3.029   1.380   5.635 -0.1921 -3.1136  0.8458
 7044TIP3   OH242622   1.528   2.649   1.300  0.7788  0.2711  0.0475
 7044TIP3    H142623   1.548   2.709   1.372 -1.2752 -0.0818  0.9716
 7044TIP3    H242624   1.496   2.706   1.230  3.9404  0.7604 -1.1779
 7045TIP3   OH242625   4.564   0.606   6.188  0.1012  0.4756 -0.2975
 7045TIP3    H142626   4.585   0.699   6.188 -0.0524  0.5101  0.1664
 7045TIP3    H242627   4.536   0.587   6.277  0.7760 -0.1686 -0.2174
 7046TIP3   OH242628   2.282   3.517  10.683 -0.1659 -0.1693  0.2239
 7046TIP3    H142629   2.376   3.506  10.702  0.1510  0.4877 -0.9336
 7046TIP3    H242630   2.257   3.435  10.641  0.6973  0.8539 -2.4866
 7047TIP3   OH242631   0.518   4.112   1.418 -0.1799  0.4588 -0.6684
 7047TIP3    H142632   0.570   4.191   1.427 -0.4020  0.4463  0.9951
 7047TIP3    H242633   0.491   4.090   1.507 -1.9847 -0.2458 -1.3273
 7048TIP3   OH242634   0.327   6.448  11.482  0.1826 -0.6673 -0.0686
 7048TIP3    H142635   0.267   6.393  11.430 -0.4429 -0.0472 -0.0308
 7048TIP3    H242636   0.272   6.482  11.553  0.4044  0.4563 -0.4217
 7049TIP3   OH242637   3.470   0.792  13.050 -0.2791  0.5440 -0.0915
 7049TIP3    H142638   3.547   0.848  13.058 -0.1669  0.3134  0.4809
 7049TIP3    H242639   3.426   0.800  13.135 -0.9615  0.7803 -0.4635
 7050TIP3   OH242640   0.488   4.179   2.754 -0.2961 -0.0017 -0.1918
 7050TIP3    H142641   0.491   4.139   2.667  0.3184 -0.9983  0.2706
 7050TIP3    H242642   0.552   4.249   2.750  0.6389 -0.8326 -0.1807
 7051TIP3   OH242643   0.797   4.544  15.513 -0.1221  0.4136  0.0426
 7051TIP3    H142644   0.768   4.621  15.561 -1.2534 -0.8950  1.5839
 7051TIP3    H242645   0.890   4.538  15.531 -0.0688  1.2720  0.0960
 7052TIP3   OH242646   6.388   6.395   3.872  0.3998  0.0789 -0.0682
 7052TIP3    H142647   6.317   6.334   3.850 -0.2637  0.4405  1.0177
 7052TIP3    H242648   6.396   6.389   3.967  1.6024  0.3089 -0.1404
 7053TIP3   OH242649   6.125   5.102   3.723 -0.2011  0.0982 -0.5249
 7053TIP3    H142650   6.102   5.082   3.632 -1.7047 -1.0227  0.0597
 7053TIP3    H242651   6.216   5.075   3.730 -0.2565 -0.4391 -1.5358
 7054TIP3   OH242652   4.802   0.300  13.605  0.1100  0.3519  0.1243
 7054TIP3    H142653   4.821   0.368  13.541  0.2648  0.3637  0.1833
 7054TIP3    H242654   4.800   0.346  13.689  0.9697  0.1645  0.2586
 7055TIP3   OH242655   6.274   6.136   6.768  0.3692 -0.2332  0.2040
 7055TIP3    H142656   6.249   6.195   6.697 -3.0791 -2.6430 -0.8137
 7055TIP3    H242657   6.245   6.180   6.848  3.3350  2.0152  0.2455
 7056TIP3   OH242658   1.964   4.487  15.379 -0.0888  0.1505 -0.1310
 7056TIP3    H142659   1.990   4.396  15.381 -0.0423  0.1349 -0.9898
 7056TIP3    H242660   2.021   4.531  15.442 -0.7537 -0.5646  0.9985
 7057TIP3   OH242661   1.929   2.110  12.304  0.3692 -0.8538  0.2144
 7057TIP3    H142662   1.993   2.074  12.242 -0.1642 -0.4063 -0.6219
 7057TIP3    H242663   1.883   2.178  12.254  1.9797  1.7330  1.9963
 7058TIP3   OH242664   0.667   2.049  14.131 -0.3836  0.4866  0.5463
 7058TIP3    H142665   0.573   2.063  14.116 -0.7986 -0.6291  1.9021
 7058TIP3    H242666   0.709   2.128  14.096 -1.8241  1.0370 -0.0259
 7059TIP3   OH242667   1.439   1.586  14.805 -0.1783 -0.5180  0.5095
 7059TIP3    H142668   1.505   1.652  14.825  0.2521 -1.1215  1.1173
 7059TIP3    H242669   1.450   1.569  14.711 -0.8143  0.8151  0.1540
 7060TIP3   OH242670   3.405   4.032  13.169  0.0578 -0.3040  0.2641
 7060TIP3    H142671   3.354   4.028  13.088 -1.2731 -0.3981  1.0781
 7060TIP3    H242672   3.465   3.957  13.163 -0.9487 -1.1100 -0.0519
 7061TIP3   OH242673   3.943   5.721  14.852 -0.0475  0.6383  0.5293
 7061TIP3    H142674   3.982   5.668  14.782 -1.0070  0.3313  0.2070
 7061TIP3    H242675   3.953   5.667  14.931 -0.2793  0.3243  0.3494
 7062TIP3   OH242676   5.143   5.791   3.941  0.1649 -0.1011  0.2559
 7062TIP3    H142677   5.117   5.704   3.971 -0.9663 -0.0248 -0.4403
 7062TIP3    H242678   5.126   5.790   3.847  0.4791  0.7651  0.1810
 7063TIP3   OH242679   1.610   1.549   0.031 -0.0408 -0.2310  0.3242
 7063TIP3    H142680   1.585   1.613   0.098 -0.2966 -0.7746  0.7525
 7063TIP3    H242681   1.701   1.525   0.053  0.7002  1.2883 -0.8755
 7064TIP3   OH242682   4.929   1.881   0.137  0.1300 -0.7038 -0.6722
 7064TIP3    H142683   5.008   1.900   0.086 -0.2425  0.9502 -0.7025
 7064TIP3    H242684   4.859   1.880   0.071  0.0956 -2.1265 -0.6410
 7065TIP3   OH242685   6.586   2.193  16.938 -0.2926 -0.4633 -0.1852
 7065TIP3    H142686   6.661   2.173  16.994 -1.7650 -1.0685  1.6645
 7065TIP3    H242687   6.516   2.137  16.969 -1.6961  0.4376 -1.5199
 7066TIP3   OH242688   1.554   5.613  13.841 -0.1813  0.2389  0.0873
 7066TIP3    H142689   1.648   5.593  13.839 -0.2248 -0.2186  1.4263
 7066TIP3    H242690   1.521   5.566  13.917 -1.7648 -0.6328 -1.0781
 7067TIP3   OH242691   2.277   4.726   3.505  0.2044  0.9672  0.5464
 7067TIP3    H142692   2.339   4.690   3.441 -1.0391 -1.5935  0.6406
 7067TIP3    H242693   2.191   4.704   3.469 -0.5871  1.7950  1.8605
 7068TIP3   OH242694   0.006   0.037   6.770 -0.1757  0.2641  0.2252
 7068TIP3    H142695   0.042  -0.031   6.713 -1.8583  0.8215 -1.5781
 7068TIP3    H242696   0.015   0.118   6.720 -1.2931  0.8522  0.9316
 7069TIP3   OH242697   6.556   6.147  17.293  0.2084 -0.8937  0.2641
 7069TIP3    H142698   6.526   6.101  17.371  0.2466 -1.0132  0.2079
 7069TIP3    H242699   6.624   6.207  17.325  1.2390 -1.9493  0.1205
 7070TIP3   OH242700   6.471   2.070   1.828 -0.0740 -0.9273  0.2379
 7070TIP3    H142701   6.431   2.004   1.771  0.7980  0.4169 -2.0642
 7070TIP3    H242702   6.541   2.024   1.873  0.7801 -1.5540 -1.6259
 7071TIP3   OH242703   0.103   5.251  15.500  0.6059 -0.0719  0.2574
 7071TIP3    H142704   0.044   5.197  15.448 -0.0300  0.2559  0.6257
 7071TIP3    H242705   0.062   5.255  15.586  0.0960  1.8120 -0.0317
 7072TIP3   OH242706   1.158   2.506  13.301 -0.2338 -0.1097 -0.4894
 7072TIP3    H142707   1.087   2.510  13.237 -0.9032 -0.2875  0.2232
 7072TIP3    H242708   1.125   2.447  13.369  0.5725 -0.1329 -0.1109
 7073TIP3   OH242709   4.478   5.382  13.662 -0.5295 -0.2310  0.0063
 7073TIP3    H142710   4.508   5.472  13.680 -1.3881  0.2229 -0.7483
 7073TIP3    H242711   4.476   5.376  13.567 -0.8470 -0.9276  0.0526
 7074TIP3   OH242712   5.019   3.659  16.691  0.2620  0.0145 -0.2664
 7074TIP3    H142713   5.046   3.667  16.599  2.7323  2.0300  0.5201
 7074TIP3    H242714   4.938   3.711  16.696  1.1797  1.5861 -0.9623
 7075TIP3   OH242715   2.184   1.089  11.432  0.1604  0.0122  0.1000
 7075TIP3    H142716   2.122   1.103  11.361  1.5370  2.4874 -0.7328
 7075TIP3    H242717   2.246   1.024  11.397  0.4235  0.6889 -0.7218
 7076TIP3   OH242718   0.733   3.775  15.980 -0.4481  0.3660 -0.3491
 7076TIP3    H142719   0.819   3.744  15.954 -1.1742 -0.0859 -2.4697
 7076TIP3    H242720   0.672   3.725  15.924 -1.9284  2.2606 -0.5235
 7077TIP3   OH242721   4.735   4.930  15.991  0.1504 -0.5686  0.0925
 7077TIP3    H142722   4.791   5.008  15.999 -1.1283  0.3710  0.2179
 7077TIP3    H242723   4.664   4.958  15.933 -0.4306 -1.5994  0.2844
 7078TIP3   OH242724   2.702   2.689  16.531 -0.7297 -0.1934  0.0562
 7078TIP3    H142725   2.774   2.746  16.504  0.2340 -1.5100 -0.2375
 7078TIP3    H242726   2.738   2.639  16.605 -0.4735 -2.5309 -1.5429
 7079TIP3   OH242727   4.158   5.007   1.546 -0.0970 -0.2980 -0.5599
 7079TIP3    H142728   4.079   5.048   1.579 -1.8244 -1.8764 -2.4729
 7079TIP3    H242729   4.154   4.916   1.577  1.4747 -0.1767  0.0900
 7080TIP3   OH242730   3.783   4.717  12.937  0.3074  0.1405 -0.5372
 7080TIP3    H142731   3.736   4.719  12.854 -0.5359  0.5062 -0.0671
 7080TIP3    H242732   3.714   4.710  13.003  0.7329  2.9887  0.3203
 7081TIP3   OH242733   1.996   4.087   2.666 -0.4961 -0.1060  0.1708
 7081TIP3    H142734   1.951   4.132   2.594 -0.2233 -0.8716 -0.5009
 7081TIP3    H242735   1.937   4.016   2.690 -0.4267 -0.0637  0.4609
 7082TIP3   OH242736   1.883   5.677   1.063 -0.3025 -0.0702  0.1892
 7082TIP3    H142737   1.893   5.670   1.158 -0.7194  2.2447  0.4626
 7082TIP3    H242738   1.793   5.707   1.050  0.1972  1.1164 -0.8099
 7083TIP3   OH242739   3.112   3.028   1.986  0.2409  0.4594  0.2080
 7083TIP3    H142740   3.147   2.939   1.976  0.0132  0.3582  0.2939
 7083TIP3    H242741   3.038   3.031   1.925 -0.2931  0.2967  0.8378
 7084TIP3   OH242742   6.135   5.085   5.679 -0.3197 -0.1131  0.2409
 7084TIP3    H142743   6.215   5.034   5.692 -1.0650 -1.6888 -0.9726
 7084TIP3    H242744   6.165   5.167   5.638  0.6815 -0.7220 -0.2982
 7085TIP3   OH242745   0.021   1.669   2.122 -0.1381 -0.5068 -0.3141
 7085TIP3    H142746   0.063   1.585   2.106 -0.8313 -0.6646 -1.3691
 7085TIP3    H242747   0.010   1.673   2.217 -1.5582 -2.3418 -0.3513
 7086TIP3   OH242748   1.537   0.131  11.394 -0.0489 -0.3215 -0.3797
 7086TIP3    H142749   1.611   0.144  11.453  0.7889 -0.0510 -1.4595
 7086TIP3    H242750   1.479   0.204  11.412 -0.3141 -0.7983  0.8263
 7087TIP3   OH242751   1.356   4.343   4.393  0.3581 -0.1096 -0.1807
 7087TIP3    H142752   1.273   4.355   4.439  0.6982 -1.0173  0.7194
 7087TIP3    H242753   1.332   4.325   4.302 -0.3326  1.7701 -0.4181
 7088TIP3   OH242754   2.408   2.558   2.243 -0.6856  0.6289 -0.0459
 7088TIP3    H142755   2.361   2.593   2.168 -1.7646  1.4348  0.9576
 7088TIP3    H242756   2.492   2.603   2.242 -0.1803 -0.2909 -1.4541
 7089TIP3   OH242757   0.659   3.771   0.789  0.9930  0.3620 -0.0668
 7089TIP3    H142758   0.601   3.817   0.849 -0.1826 -0.3262 -0.6254
 7089TIP3    H242759   0.672   3.832   0.716  0.0818  0.1331 -0.4374
 7090TIP3   OH242760   3.448   2.285  11.608  0.7772 -0.0415 -0.2133
 7090TIP3    H142761   3.443   2.363  11.663 -0.8915 -0.1950 -0.1100
 7090TIP3    H242762   3.374   2.293  11.548  0.7346 -1.4186 -0.3743
 7091TIP3   OH242763   4.926   6.324  12.199 -0.5145  0.1731  0.5194
 7091TIP3    H142764   4.960   6.389  12.260 -1.5792  1.5610 -0.2989
 7091TIP3    H242765   4.890   6.376  12.127 -1.2625 -1.3378 -0.2350
 7092TIP3   OH242766   4.444   6.368   5.335  0.2988  0.6754  0.1473
 7092TIP3    H142767   4.413   6.437   5.394 -1.5942  1.6621 -1.8678
 7092TIP3    H242768   4.425   6.287   5.382 -1.4586  1.4155  0.8113
 7093TIP3   OH242769   0.263   5.379  12.057  0.0804  0.8562  0.1617
 7093TIP3    H142770   0.231   5.289  12.051 -1.9598  1.4712  1.0618
 7093TIP3    H242771   0.270   5.408  11.966  2.7416 -0.8026 -0.2575
 7094TIP3   OH242772   5.784   6.118  16.542 -0.0129  0.0939  0.3387
 7094TIP3    H142773   5.879   6.131  16.551  0.1886 -2.1272  2.8945
 7094TIP3    H242774   5.746   6.193  16.588  0.4250  1.2434 -1.0890
 7095TIP3   OH242775   6.098   3.907  14.982  0.3095 -0.2384 -0.4952
 7095TIP3    H142776   6.136   3.951  15.058 -0.3433  1.2853 -1.0110
 7095TIP3    H242777   6.010   3.881  15.011  0.4830 -0.6855 -0.3710
 7096TIP3   OH242778   3.347   2.549  14.759 -0.2349 -0.1903 -0.0435
 7096TIP3    H142779   3.252   2.535  14.767 -0.0819 -1.3165  0.0126
 7096TIP3    H242780   3.374   2.576  14.846 -0.5811  0.6929 -0.1977
 7097TIP3   OH242781   5.273   6.752   4.931  0.0785 -0.5458  0.0177
 7097TIP3    H142782   5.208   6.786   4.992 -1.1240  0.1375 -1.5694
 7097TIP3    H242783   5.273   6.657   4.945 -0.3496 -0.4286  0.8790
 7098TIP3   OH242784   5.533   5.447   2.257 -0.3044  0.0842  0.4168
 7098TIP3    H142785   5.610   5.392   2.248 -0.2382  0.2847 -0.2521
 7098TIP3    H242786   5.459   5.390   2.236 -0.1030  0.7636 -2.4843
 7099TIP3   OH242787   4.690   5.043   2.927  0.3820  0.0729 -0.2142
 7099TIP3    H142788   4.602   5.012   2.905  0.3177 -0.0577  0.2195
 7099TIP3    H242789   4.733   5.053   2.843  0.8571 -2.4791 -0.3552
 7100TIP3   OH242790   3.526   3.265   3.272  0.3910 -0.5150 -0.1088
 7100TIP3    H142791   3.434   3.240   3.262  0.3151 -2.0322  3.0176
 7100TIP3    H242792   3.524   3.344   3.325  0.8524 -1.2039  0.9756
 7101TIP3   OH242793   5.233   2.642  11.288 -0.4391 -0.0504  0.4813
 7101TIP3    H142794   5.147   2.653  11.328 -0.5760 -0.1295  0.2118
 7101TIP3    H242795   5.241   2.716  11.227 -0.8125 -0.6948 -0.3630
 7102TIP3   OH242796   5.721   1.666  15.526 -0.4297  0.0411  0.3434
 7102TIP3    H142797   5.728   1.646  15.433  1.7594  1.4232  0.1546
 7102TIP3    H242798   5.757   1.754  15.535 -0.7250  0.0066  2.4832
 7103TIP3   OH242799   3.649   3.847  16.154 -0.0072  0.1037  0.3532
 7103TIP3    H142800   3.642   3.861  16.249 -0.5388  0.8102  0.2201
 7103TIP3    H242801   3.738   3.813  16.142 -0.2661 -0.9261  1.2002
 7104TIP3   OH242802   3.711   2.734   5.349  0.0057 -0.1635 -0.4040
 7104TIP3    H142803   3.731   2.655   5.297 -0.3218 -0.1398 -0.5702
 7104TIP3    H242804   3.728   2.708   5.439 -1.1211 -0.7667 -0.3454
 7105TIP3   OH242805   6.378   3.436  15.507 -0.4952 -0.8698  0.2320
 7105TIP3    H142806   6.313   3.424  15.438 -2.7268 -0.2059  2.0892
 7105TIP3    H242807   6.363   3.525  15.539  2.8439  0.1587 -0.6369
 7106TIP3   OH242808   6.331   3.603   4.217  0.0310 -0.2117  0.0540
 7106TIP3    H142809   6.284   3.606   4.300 -0.3008  0.6433 -0.1571
 7106TIP3    H242810   6.274   3.554   4.159 -2.5538  3.9144 -1.3356
 7107TIP3   OH242811   1.034   0.328   0.345 -0.3165 -0.5395  0.5504
 7107TIP3    H142812   1.087   0.282   0.279 -0.1124  1.0080 -0.4178
 7107TIP3    H242813   1.086   0.406   0.367 -1.1684 -0.1690  1.3002
 7108TIP3   OH242814   6.194   1.990   0.940 -0.4955 -0.4964 -0.2008
 7108TIP3    H142815   6.214   1.898   0.959 -1.8706 -1.0351 -1.2125
 7108TIP3    H242816   6.273   2.022   0.897  0.5436 -0.7741  1.4000
 7109TIP3   OH242817   5.741   0.869   1.074 -0.3063  0.1803 -0.4869
 7109TIP3    H142818   5.763   0.959   1.049 -0.7411  0.3233 -0.3594
 7109TIP3    H242819   5.761   0.817   0.996 -0.1375  0.4004 -0.5906
 7110TIP3   OH242820   4.310   3.660   4.024  0.5805  0.1387 -0.4395
 7110TIP3    H142821   4.238   3.597   4.030  0.4670  0.3733  2.7928
 7110TIP3    H242822   4.273   3.741   4.061  1.4921  1.3543 -2.0959
 7111TIP3   OH242823   5.278   3.322   2.939  0.4677  0.3072 -0.3056
 7111TIP3    H142824   5.295   3.277   3.022 -1.2487 -0.4950 -0.3208
 7111TIP3    H242825   5.278   3.415   2.960 -1.2236  0.0779  0.9282
 7112TIP3   OH242826   6.107   1.608   2.447 -0.4114  0.0018  0.1328
 7112TIP3    H142827   6.012   1.609   2.450 -0.4158 -1.3343  1.7217
 7112TIP3    H242828   6.129   1.538   2.385 -0.4315  0.6922 -0.6780
 7113TIP3   OH242829   4.822   4.597  16.826  0.1455 -0.4361  0.0866
 7113TIP3    H142830   4.908   4.601  16.785  0.0766 -2.3295 -0.3108
 7113TIP3    H242831   4.839   4.570  16.916  0.1536  2.0281  0.8913
 7114TIP3   OH242832   6.249   6.735  15.945  1.2333 -0.1046  0.2816
 7114TIP3    H142833   6.187   6.667  15.970  2.1875 -1.1880 -0.1782
 7114TIP3    H242834   6.199   6.816  15.949  0.0867 -0.8132  0.9471
 7115TIP3   OH242835   3.038   4.167   2.811 -0.2044 -0.5480  0.4272
 7115TIP3    H142836   2.986   4.182   2.733  1.1546  1.2754 -0.2244
 7115TIP3    H242837   3.062   4.074   2.808 -1.0283 -0.7311 -0.7591
 7116TIP3   OH242838   6.499   4.082   3.256 -0.0467  0.0555 -0.0065
 7116TIP3    H142839   6.520   4.158   3.202 -0.7204  1.2638  1.3701
 7116TIP3    H242840   6.426   4.040   3.210  0.8339 -0.2384 -1.1882
 7117TIP3   OH242841   6.095   3.927   3.969  0.2095  0.2645 -0.4142
 7117TIP3    H142842   6.163   3.860   3.973 -0.6540 -0.5799  2.4172
 7117TIP3    H242843   6.139   4.007   3.996  0.2675 -0.1471  0.7743
 7118TIP3   OH242844   5.408   5.301   3.842  0.3818  0.3391  0.1329
 7118TIP3    H142845   5.349   5.242   3.887  0.3571 -1.7314 -2.3723
 7118TIP3    H242846   5.485   5.248   3.823  0.9825  1.5402 -0.9595
 7119TIP3   OH242847   2.789   3.390  13.703 -0.6537  0.2026  0.0079
 7119TIP3    H142848   2.769   3.360  13.792 -1.4289 -0.9907 -0.5426
 7119TIP3    H242849   2.824   3.312  13.659  3.7930  1.7190  0.3989
 7120TIP3   OH242850   3.616   6.630  16.508 -0.4927  0.3285 -0.2156
 7120TIP3    H142851   3.680   6.565  16.479 -1.0063 -0.9126  1.2745
 7120TIP3    H242852   3.538   6.578  16.529 -1.3278  1.5815 -0.1329
 7121TIP3   OH242853   2.778   3.186   5.691 -0.5654  0.1816 -0.5335
 7121TIP3    H142854   2.789   3.097   5.725  1.8139  0.2346 -1.0226
 7121TIP3    H242855   2.774   3.241   5.769 -0.6762 -0.2144 -0.2543
 7122TIP3   OH242856   6.064   5.194  17.360  0.3706 -0.4387 -0.6294
 7122TIP3    H142857   6.148   5.194  17.314  0.0521 -1.2584 -1.2441
 7122TIP3    H242858   6.087   5.180  17.452  1.0317  1.4541 -0.4712
 7123TIP3   OH242859   1.126   1.594   0.936  0.6552 -0.1855 -0.2550
 7123TIP3    H142860   1.033   1.605   0.916  1.2053 -0.4911 -3.3959
 7123TIP3    H242861   1.128   1.531   1.008 -1.5265 -0.8307 -0.7051
 7124TIP3   OH242862   6.142   1.361  12.311 -0.5930 -0.1959  0.1351
 7124TIP3    H142863   6.097   1.276  12.305  2.0833 -1.6145 -3.5588
 7124TIP3    H242864   6.233   1.338  12.332  0.2951  1.6539 -1.3834
 7125TIP3   OH242865   4.494   2.420   1.951  0.0382  0.1969  0.1108
 7125TIP3    H142866   4.530   2.428   1.863  1.0564 -0.8450  0.4205
 7125TIP3    H242867   4.406   2.384   1.937  0.6883 -1.2689 -0.4282
 7126TIP3   OH242868   4.809   1.022  15.331  0.1949 -0.5648 -0.7499
 7126TIP3    H142869   4.763   0.966  15.268 -0.2236 -1.6555  0.4632
 7126TIP3    H242870   4.815   0.968  15.410  1.5639  0.4081 -0.1601
 7127TIP3   OH242871   6.178   0.251   3.253 -0.1665  0.4748  0.2335
 7127TIP3    H142872   6.142   0.328   3.209 -0.0550  2.1528  2.8362
 7127TIP3    H242873   6.125   0.242   3.332  1.2738 -0.7325  1.1241
 7128TIP3   OH242874   5.238   2.044   5.549  0.4028  0.1450 -0.0324
 7128TIP3    H142875   5.327   2.030   5.515  0.2262 -0.1001 -0.3955
 7128TIP3    H242876   5.181   2.007   5.482  0.0829 -1.9603  1.3140
 7129TIP3   OH242877   3.966   6.581  11.906 -0.1474 -0.3683  0.1587
 7129TIP3    H142878   3.907   6.621  11.970 -0.0910 -1.0976  0.6736
 7129TIP3    H242879   4.009   6.655  11.864 -0.1294  0.1169  1.0168
 7130TIP3   OH242880   0.611   0.587  15.066 -0.2434  0.0801  0.3353
 7130TIP3    H142881   0.668   0.538  15.125  0.2856 -0.6033 -0.6993
 7130TIP3    H242882   0.572   0.655  15.120 -0.5886 -1.1568  1.7000
 7131TIP3   OH242883   5.032   2.631   1.857  0.0482  0.2302 -0.4142
 7131TIP3    H142884   5.044   2.671   1.770  0.0634 -0.4213 -0.7229
 7131TIP3    H242885   5.023   2.538   1.838  0.7069  0.0067  0.3426
 7132TIP3   OH242886   6.287   2.853   2.828 -0.5458  0.2290  0.3328
 7132TIP3    H142887   6.360   2.914   2.824 -1.5659  1.4339 -1.0400
 7132TIP3    H242888   6.209   2.908   2.832 -1.4397 -1.0082  0.8318
 7133TIP3   OH242889   0.188   2.344  11.130  0.2094  0.5946 -0.1158
 7133TIP3    H142890   0.208   2.301  11.214  2.0237  1.9841  0.2351
 7133TIP3    H242891   0.104   2.308  11.104  0.3578 -1.0881  1.5081
 7134TIP3   OH242892   6.410   4.048  15.436  0.0978  0.0136 -0.5074
 7134TIP3    H142893   6.480   3.989  15.465  0.3360  0.3191 -0.4566
 7134TIP3    H242894   6.456   4.119  15.391 -0.0541  0.9980  0.8290
 7135TIP3   OH242895   2.856   5.321  16.501 -0.0357 -0.1163  0.2716
 7135TIP3    H142896   2.893   5.409  16.500 -0.8972  0.2574 -1.0464
 7135TIP3    H242897   2.763   5.333  16.516 -0.2701 -0.7377 -0.5561
 7136TIP3   OH242898   6.378   1.851   6.505  0.3491  0.2903  0.0925
 7136TIP3    H142899   6.311   1.804   6.555 -0.8306 -0.1358 -1.7639
 7136TIP3    H242900   6.427   1.900   6.570 -0.3800 -1.0995  1.7629
 7137TIP3   OH242901   0.064   3.739  11.216  0.2174  0.3418 -0.6605
 7137TIP3    H142902   0.027   3.655  11.187  1.8248 -0.7879  0.3785
 7137TIP3    H242903   0.115   3.769  11.141  1.9123 -1.0659 -0.1451
 7138TIP3   OH242904   2.231   3.407  16.281 -0.2653  0.1555  0.1574
 7138TIP3    H142905   2.285   3.339  16.321 -1.8035 -2.4358 -1.8116
 7138TIP3    H242906   2.231   3.385  16.188 -1.4144  2.4976 -0.4647
 7139TIP3   OH242907   1.869   3.639   3.683 -0.0273 -0.1200  0.1273
 7139TIP3    H142908   1.821   3.570   3.637  0.7233 -1.3920  1.1782
 7139TIP3    H242909   1.956   3.639   3.642  0.1762 -0.2637  0.5453
 7140TIP3   OH242910   1.494   0.933  11.726 -0.1389 -0.0641  0.3917
 7140TIP3    H142911   1.528   0.977  11.649  0.7546  1.8695  1.8074
 7140TIP3    H242912   1.444   1.000  11.773 -1.3653 -1.4062  1.1015
 7141TIP3   OH242913   6.639   4.660  14.701 -0.1377 -0.1793 -0.1436
 7141TIP3    H142914   6.623   4.635  14.610  2.3075 -0.2394 -0.6264
 7141TIP3    H242915   6.649   4.755  14.698  1.3895 -0.3110 -0.2512
 7142TIP3   OH242916   2.679   0.149  15.288  0.6212  0.3570  0.2954
 7142TIP3    H142917   2.772   0.131  15.273  0.5273  0.8522 -1.0119
 7142TIP3    H242918   2.635   0.066  15.267  0.4761  1.0704 -2.6612
 7143TIP3   OH242919   6.170   0.412   2.648 -0.4674 -0.8139 -0.5835
 7143TIP3    H142920   6.127   0.404   2.733 -0.6486  0.0952 -0.5849
 7143TIP3    H242921   6.202   0.324   2.630 -0.6248 -1.0705  0.3187
 7144TIP3   OH242922   4.375   6.038   6.202  0.0121  0.2392  0.0868
 7144TIP3    H142923   4.358   6.115   6.256 -1.6644  0.3818 -0.5862
 7144TIP3    H242924   4.380   5.966   6.264 -2.0328  0.3771  0.4576
 7145TIP3   OH242925   3.865   2.857  17.256  0.4067  0.2070 -0.2742
 7145TIP3    H142926   3.899   2.773  17.227  1.1713  0.8341 -1.2607
 7145TIP3    H242927   3.883   2.860  17.349 -2.2692 -1.9456  0.4558
 7146TIP3   OH242928   3.044   2.418  15.260 -0.2354 -0.2548  0.2374
 7146TIP3    H142929   2.949   2.409  15.256 -0.2472  0.0105 -0.1653
 7146TIP3    H242930   3.062   2.498  15.211  0.0939  0.3702  1.3694
 7147TIP3   OH242931   5.271   4.435   2.550  0.3353  0.4817 -0.6294
 7147TIP3    H142932   5.341   4.471   2.605 -0.4067  0.2912  0.4774
 7147TIP3    H242933   5.276   4.340   2.563  0.6854  0.3560 -1.5725
 7148TIP3   OH242934   3.282   3.127  13.643  0.4180 -0.2338  0.0643
 7148TIP3    H142935   3.327   3.066  13.583  0.9367 -0.7513  0.9635
 7148TIP3    H242936   3.354   3.176  13.684  0.1389 -0.7673  1.2008
 7149TIP3   OH242937   4.219   5.641  14.044 -0.0197  0.0445 -0.0308
 7149TIP3    H142938   4.292   5.614  14.100  0.2890 -1.3353 -1.0664
 7149TIP3    H242939   4.222   5.582  13.970 -1.7697  0.4331 -0.4537
 7150TIP3   OH242940   4.775   2.477  12.496 -0.1472 -0.5973 -0.0777
 7150TIP3    H142941   4.866   2.505  12.499 -0.3133  0.2857 -2.1775
 7150TIP3    H242942   4.754   2.454  12.587  1.3009  1.9069  0.9675
 7151TIP3   OH242943   0.150   4.977  17.158 -0.0355 -0.0553 -0.3021
 7151TIP3    H142944   0.107   5.059  17.182 -1.3723  0.0085 -2.6197
 7151TIP3    H242945   0.225   4.971  17.217 -1.0586  1.7751  1.3137
 7152TIP3   OH242946   6.324   5.665  14.702  0.0431  0.7560 -0.8045
 7152TIP3    H142947   6.270   5.658  14.623  1.1623 -0.0628 -1.5367
 7152TIP3    H242948   6.387   5.593  14.694  1.7304  2.1212 -0.3768
 7153TIP3   OH242949   0.517   4.913   6.180  0.1715 -0.0995  0.7788
 7153TIP3    H142950   0.421   4.913   6.188  0.0919 -1.9159  0.1589
 7153TIP3    H242951   0.546   4.966   6.254 -1.1910 -2.6255  3.3385
 7154TIP3   OH242952   3.236   4.346   4.143 -0.1240 -0.1232 -0.1976
 7154TIP3    H142953   3.321   4.302   4.142 -0.3068 -0.4769 -0.4039
 7154TIP3    H242954   3.173   4.276   4.162 -0.2514  0.3517  1.1832
 7155TIP3   OH242955   4.918   6.715  10.504  0.2469  0.3186 -0.5142
 7155TIP3    H142956   4.893   6.746  10.417  1.4413  1.7400 -0.3919
 7155TIP3    H242957   4.837   6.718  10.555 -0.0678  1.3485 -1.0576
 7156TIP3   OH242958   6.613   5.943  17.123  0.1601 -0.2154  0.6347
 7156TIP3    H142959   6.618   5.978  17.034 -0.0071 -2.6773 -0.4047
 7156TIP3    H242960   6.583   6.018  17.176 -1.3299  0.9044 -1.6254
 7157TIP3   OH242961   4.168   5.795  12.203  0.2308 -0.0053  0.4646
 7157TIP3    H142962   4.262   5.781  12.196  0.2943 -1.3037  2.9278
 7157TIP3    H242963   4.149   5.783  12.296 -2.4119  0.0167 -0.0068
 7158TIP3   OH242964   0.999   5.368  16.183  0.0793  0.2734  0.0272
 7158TIP3    H142965   1.076   5.417  16.155 -0.0395  1.6318  1.9025
 7158TIP3    H242966   0.925   5.423  16.157 -0.2060 -0.3111 -0.4247
 7159TIP3   OH242967   2.991   2.464  12.260  0.2244 -0.4736  0.1798
 7159TIP3    H142968   3.008   2.442  12.168 -1.0955  0.9436 -0.4577
 7159TIP3    H242969   2.921   2.404  12.286  2.4358 -2.8079  1.2183
 7160TIP3   OH242970   5.150   2.994   1.457 -0.0242  0.0891 -0.0725
 7160TIP3    H142971   5.236   3.035   1.449 -1.0802  2.1867 -1.8921
 7160TIP3    H242972   5.089   3.068   1.463 -1.8244 -1.2801 -0.6595
 7161TIP3   OH242973   6.318   1.251   4.381  0.0500 -0.1966  0.6050
 7161TIP3    H142974   6.394   1.309   4.379  0.7945 -1.1155  1.2097
 7161TIP3    H242975   6.356   1.163   4.382 -1.0510 -0.7333 -0.9595
 7162TIP3   OH242976   4.236   1.315   1.036 -0.2161 -0.0254 -0.4048
 7162TIP3    H142977   4.157   1.364   1.058 -0.4854 -0.2064 -0.9770
 7162TIP3    H242978   4.234   1.306   0.941  0.5715  0.1015 -0.4443
 7163TIP3   OH242979   2.733   4.090   4.871 -0.3815  0.1252 -0.5007
 7163TIP3    H142980   2.691   4.061   4.952 -0.6484  1.4550 -0.1423
 7163TIP3    H242981   2.666   4.144   4.828  1.4956  4.2632  1.1739
 7164TIP3   OH242982   0.402   4.469  14.728 -0.1598  0.3430 -0.0892
 7164TIP3    H142983   0.360   4.384  14.713  1.1990 -0.1477 -1.4268
 7164TIP3    H242984   0.490   4.459  14.690 -0.5447  2.9080 -1.9688
 7165TIP3   OH242985   5.804   0.592  14.668 -0.4405 -0.2878  0.0321
 7165TIP3    H142986   5.895   0.614  14.689 -0.7723 -0.0629  1.3213
 7165TIP3    H242987   5.774   0.666  14.615  0.3873 -0.8106 -1.2174
 7166TIP3   OH242988   2.147   1.474  16.775  0.1115  0.2070 -0.7165
 7166TIP3    H142989   2.071   1.415  16.775 -0.6203  1.0857 -1.9945
 7166TIP3    H242990   2.201   1.442  16.703  0.7877 -0.1880 -0.0440
 7167TIP3   OH242991   3.833   1.718  14.105  0.6734 -0.3547 -0.2657
 7167TIP3    H142992   3.873   1.636  14.133  2.7350  0.5939 -0.1724
 7167TIP3    H242993   3.852   1.723  14.012  0.8034  0.1097 -0.2193
 7168TIP3   OH242994   0.823   3.152  16.065  0.6405 -0.4371  0.4912
 7168TIP3    H142995   0.902   3.153  16.011  0.2898 -1.5465 -0.0639
 7168TIP3    H242996   0.837   3.081  16.128 -1.1603 -2.8310 -1.6014
 7169TIP3   OH242997   2.951   4.625  16.505  0.4034  0.3329 -0.5956
 7169TIP3    H142998   2.953   4.718  16.485  0.5956  0.2449 -0.9879
 7169TIP3    H242999   2.869   4.594  16.465  0.4050  0.3081 -0.5789
 7170TIP3   OH243000   5.632   3.357   2.926 -0.6365  0.1835 -0.2708
 7170TIP3    H143001   5.599   3.279   2.971  0.2509  0.5559  1.0934
 7170TIP3    H243002   5.725   3.358   2.947 -0.5866  1.4642 -0.5043
 7171TIP3   OH243003   1.557   6.728  14.097  0.2373 -0.0363  0.3228
 7171TIP3    H143004   1.589   6.644  14.130  0.0027  1.0157  3.6493
 7171TIP3    H243005   1.605   6.793  14.149 -1.2862  1.8140 -0.4760
 7172TIP3   OH243006   6.464   5.124  17.034  0.2655 -0.1715 -0.1111
 7172TIP3    H143007   6.515   5.200  17.004 -0.4145  0.5445  0.4939
 7172TIP3    H243008   6.516   5.048  17.007  0.4063  0.4642 -1.7836
 7173TIP3   OH243009   0.086   0.056   2.227 -0.4297  0.4686 -0.3586
 7173TIP3    H143010   0.061   0.098   2.144 -1.1373 -0.1249 -0.4577
 7173TIP3    H243011   0.128   0.126   2.277  0.5228  0.6982 -1.4307
 7174TIP3   OH243012   3.989   1.439   2.296 -0.0103 -0.4287 -0.7946
 7174TIP3    H143013   4.012   1.476   2.382  0.9151 -0.3646 -1.0518
 7174TIP3    H243014   3.897   1.414   2.304  0.3119 -1.3009  0.5296
 7175TIP3   OH243015   6.310   2.793   1.361  0.2320  0.0704  0.0759
 7175TIP3    H143016   6.361   2.868   1.393  0.0531  0.0777  0.3391
 7175TIP3    H243017   6.249   2.772   1.432  0.8697 -0.8762  0.3706
 7176TIP3   OH243018   4.712   3.137   2.724 -0.5498  0.1180  0.9019
 7176TIP3    H143019   4.740   3.227   2.704 -0.3259 -0.3260 -0.9408
 7176TIP3    H243020   4.761   3.115   2.803  0.9641  0.9383  0.2543
 7177TIP3   OH243021   6.738   6.459  17.238  0.1076  0.1258  0.3246
 7177TIP3    H143022   6.800   6.518  17.196 -1.6077  0.4717 -1.8951
 7177TIP3    H243023   6.685   6.424  17.166 -0.4868 -2.3137  1.8099
 7178TIP3   OH243024   4.065   0.767   5.611  0.5292  0.0980  0.0170
 7178TIP3    H143025   4.157   0.771   5.637  0.2890 -1.4311  1.2575
 7178TIP3    H243026   4.025   0.705   5.672 -1.3385  0.7197 -0.4862
 7179TIP3   OH243027   4.699   2.873   3.795  0.2958 -0.1547  0.2354
 7179TIP3    H143028   4.707   2.779   3.814 -0.7665 -0.5436 -1.0261
 7179TIP3    H243029   4.734   2.882   3.706 -0.1058  0.5444  0.1389
 7180TIP3   OH243030   4.975   3.734   4.362 -0.2640 -0.3848  0.4510
 7180TIP3    H143031   4.889   3.711   4.328 -0.5820  0.6058  0.5427
 7180TIP3    H243032   5.037   3.684   4.309 -0.8536 -0.4697 -0.1633
 7181TIP3   OH243033   6.566   3.195   3.639 -0.3964 -0.0070 -0.0708
 7181TIP3    H143034   6.477   3.225   3.656 -1.0275 -2.2647  1.0723
 7181TIP3    H243035   6.616   3.275   3.622 -2.0580  1.5844  1.9913
 7182TIP3   OH243036   1.914   2.813  14.565 -0.5334 -0.2778  0.4638
 7182TIP3    H143037   1.885   2.895  14.523  0.6780 -0.1284 -0.1355
 7182TIP3    H243038   1.899   2.827  14.658 -0.1199  0.7503  0.3954
 7183TIP3   OH243039   0.556   1.944  11.858 -0.3751  0.3572  0.1534
 7183TIP3    H143040   0.558   2.028  11.904  3.3866  0.8891 -0.6923
 7183TIP3    H243041   0.521   1.965  11.771 -2.6402  0.3034  0.9803
 7184TIP3   OH243042   1.673   1.873   5.904 -0.7046 -0.2344  0.2402
 7184TIP3    H143043   1.689   1.948   5.961  1.3438 -0.1036 -0.4010
 7184TIP3    H243044   1.675   1.797   5.963 -0.8741  0.0638  0.6338
 7185TIP3   OH243045   5.922   6.190  12.020 -0.3254 -0.4312  0.0963
 7185TIP3    H143046   5.967   6.153  12.096  0.4150 -1.1216 -0.6614
 7185TIP3    H243047   5.951   6.136  11.947  0.4328  1.3841 -0.9850
 7186TIP3   OH243048   2.921   5.227   3.604  0.7833  0.7662  0.3274
 7186TIP3    H143049   2.918   5.177   3.686 -0.3111 -0.2604 -0.3010
 7186TIP3    H243050   2.846   5.195   3.554  1.3628  1.4612 -1.0404
 7187TIP3   OH243051   5.281   5.214   5.932 -0.4222 -0.5514  0.4630
 7187TIP3    H143052   5.186   5.221   5.941 -0.2513  0.7123  1.6770
 7187TIP3    H243053   5.306   5.147   5.996 -0.3395  0.4326  1.4962
 7188TIP3   OH243054   2.842   1.339   4.402  0.1921 -0.0388 -0.5635
 7188TIP3    H143055   2.909   1.381   4.349 -0.0179  0.9245 -0.0812
 7188TIP3    H243056   2.840   1.389   4.484  0.6880 -1.6327  0.4959
 7189TIP3   OH243057   3.679   2.616  14.451  0.0077  0.1517 -0.2243
 7189TIP3    H143058   3.673   2.534  14.400 -2.2659 -0.4292  0.8567
 7189TIP3    H243059   3.684   2.587  14.542  2.4064  1.2168  0.0637
 7190TIP3   OH243060   2.128   0.686  15.739  0.0517  0.0110 -0.0938
 7190TIP3    H143061   2.044   0.730  15.753 -0.3630 -0.6378 -0.4985
 7190TIP3    H243062   2.190   0.737  15.790 -0.8153 -0.2661  1.2804
 7191TIP3   OH243063   5.118   3.134  17.005  0.4141 -0.2153 -0.0455
 7191TIP3    H143064   5.056   3.205  17.021 -0.6056 -1.0346 -0.2525
 7191TIP3    H243065   5.162   3.159  16.923  0.9177  0.7433  0.5035
 7192TIP3   OH243066   3.441   6.396  14.181  0.0381 -0.2342  0.3116
 7192TIP3    H143067   3.405   6.336  14.246  0.5838 -0.8868  0.0147
 7192TIP3    H243068   3.536   6.388  14.189  0.1766  1.6648  1.2535
 7193TIP3   OH243069   0.361   6.445   5.443  0.2562  0.1520 -0.7493
 7193TIP3    H143070   0.267   6.435   5.433  0.2824 -0.4603 -0.4852
 7193TIP3    H243071   0.375   6.457   5.537  0.4884 -0.5041 -0.6898
 7194TIP3   OH243072   4.806   2.563  12.241  0.1822 -0.0211 -0.5741
 7194TIP3    H143073   4.893   2.523  12.250  0.2794  0.2586 -0.2792
 7194TIP3    H243074   4.761   2.541  12.323 -0.0445 -0.1988 -0.7413
 7195TIP3   OH243075   0.363   0.014  12.968  0.2192 -0.7311  0.1323
 7195TIP3    H143076   0.309  -0.053  12.925  2.1359 -2.6069  0.4568
 7195TIP3    H243077   0.312   0.095  12.961 -1.8824 -2.0621 -0.9384
 7196TIP3   OH243078   6.362   5.754  12.960  0.3747 -0.4480  0.0123
 7196TIP3    H143079   6.436   5.700  12.988  1.6342  1.3157  0.3032
 7196TIP3    H243080   6.296   5.742  13.028  1.0087 -0.8938  0.5623
 7197TIP3   OH243081   2.752   3.065  13.238  0.6480 -0.9196  0.7719
 7197TIP3    H143082   2.716   3.152  13.221 -0.1130 -1.3658 -0.0572
 7197TIP3    H243083   2.842   3.069  13.205  0.2698 -0.7494 -0.2949
 7198TIP3   OH243084   4.146   0.550  11.547  0.0282 -0.3428 -0.3802
 7198TIP3    H143085   4.090   0.609  11.597  0.8055 -0.3050  0.4786
 7198TIP3    H243086   4.140   0.582  11.457 -1.8152 -0.7367 -0.4401
 7199TIP3   OH243087   4.894   6.669  14.453  0.3256  0.4129  0.1923
 7199TIP3    H143088   4.967   6.642  14.397  0.0227 -1.5577  0.6707
 7199TIP3    H243089   4.816   6.651  14.401  0.1199  2.8755 -0.4685
 7200TIP3   OH243090   2.621   3.014  11.198 -0.1853  0.1104  0.2182
 7200TIP3    H143091   2.567   3.056  11.131  1.5648 -0.0351 -1.3551
 7200TIP3    H243092   2.632   3.081  11.265 -0.3177  0.9728 -0.5952
 7201TIP3   OH243093   2.933   0.425   4.737 -0.1552 -0.2025  0.5133
 7201TIP3    H143094   2.900   0.460   4.820 -1.9052 -0.5631  0.0114
 7201TIP3    H243095   2.895   0.482   4.670  2.0931  0.7463 -0.0500
 7202TIP3   OH243096   1.922   2.130  10.705  0.4240 -0.4513  0.0143
 7202TIP3    H143097   1.887   2.042  10.717 -2.3456  0.5873  0.2798
 7202TIP3    H243098   1.940   2.160  10.794  1.3395 -0.7103 -0.0743
 7203TIP3   OH243099   4.050   2.423   3.105 -0.0695  0.0533 -0.2505
 7203TIP3    H143100   4.141   2.440   3.131  0.0992 -0.2168 -0.6395
 7203TIP3    H243101   4.054   2.421   3.009 -0.0133 -2.4215 -0.2581
 7204TIP3   OH243102   5.683   1.588  14.436 -0.2188  0.4809  0.6660
 7204TIP3    H143103   5.754   1.573  14.498  0.0677  0.5411  0.3531
 7204TIP3    H243104   5.701   1.527  14.364 -1.6299 -1.0558  1.5256
 7205TIP3   OH243105   4.716   4.590  11.835 -0.4080 -0.3015  0.7819
 7205TIP3    H143106   4.629   4.549  11.837 -0.9192  0.3886 -2.3183
 7205TIP3    H243107   4.777   4.516  11.835 -1.2446 -1.1309 -2.5447
 7206TIP3   OH243108   2.595   2.972  15.075 -0.4223 -0.3857 -0.2087
 7206TIP3    H143109   2.577   2.880  15.093 -3.6503  0.2755  0.6164
 7206TIP3    H243110   2.517   3.018  15.105  0.7022  2.5618 -1.3981
 7207TIP3   OH243111   3.064   5.363  13.104 -0.6140 -0.0485 -0.2597
 7207TIP3    H143112   3.132   5.427  13.123 -1.1505 -0.3082  3.1093
 7207TIP3    H243113   3.014   5.403  13.032  1.1551  1.6028 -0.6748
 7208TIP3   OH243114   2.868   6.406   1.379 -0.1274  0.0338  0.0966
 7208TIP3    H143115   2.907   6.461   1.448 -0.7412 -0.5310  0.9093
 7208TIP3    H243116   2.817   6.341   1.427 -1.3184  0.1959 -0.9285
 7209TIP3   OH243117   1.106   6.755  16.964 -0.2734  0.0233  0.4226
 7209TIP3    H143118   1.094   6.782  17.055 -0.7991 -0.4760  0.5098
 7209TIP3    H243119   1.201   6.744  16.954 -0.0282  1.9255  0.3509
 7210TIP3   OH243120   6.548   3.173   4.039 -0.4015 -0.4253 -0.1354
 7210TIP3    H143121   6.622   3.137   4.088 -0.8538 -0.8589  0.2418
 7210TIP3    H243122   6.549   3.125   3.956  0.3778  0.3234 -0.5794
 7211TIP3   OH243123   6.438   6.393   4.166  0.6573 -0.2391 -0.0030
 7211TIP3    H143124   6.467   6.303   4.180 -0.1991 -0.4090  0.7618
 7211TIP3    H243125   6.495   6.446   4.221  0.5415 -0.4107  0.2824
 7212TIP3   OH243126   0.438   5.380   1.916  0.0445  0.2978  0.0128
 7212TIP3    H143127   0.451   5.343   2.004  0.7803 -2.2949 -1.0756
 7212TIP3    H243128   0.362   5.334   1.881  0.4365  0.4603 -1.1009
 7213TIP3   OH243129   3.229   2.779   1.991 -0.2989  0.0236 -0.3661
 7213TIP3    H143130   3.220   2.815   2.079 -1.6087  2.1708 -1.2835
 7213TIP3    H243131   3.204   2.687   1.999 -0.2103  0.1292  1.5017
 7214TIP3   OH243132   1.466   5.644   4.821  0.0850  0.1350  0.3383
 7214TIP3    H143133   1.531   5.648   4.890  2.1537  3.7961 -1.5009
 7214TIP3    H243134   1.493   5.570   4.766  0.8827 -0.2241  1.1942
 7215TIP3   OH243135   6.559   2.531  12.817 -0.5891 -0.3129 -0.3250
 7215TIP3    H143136   6.571   2.625  12.829 -1.9183 -0.2412  0.6881
 7215TIP3    H243137   6.628   2.491  12.871 -0.0519  0.0626 -0.7168
 7216TIP3   OH243138   5.604   0.241   5.395  0.2766 -0.1766 -0.0023
 7216TIP3    H143139   5.642   0.321   5.358 -0.4904  0.0703 -0.2900
 7216TIP3    H243140   5.625   0.172   5.333 -0.0191  0.0183 -0.3198
 7217TIP3   OH243141   3.839   2.835  14.586 -0.1190  0.4597 -0.0216
 7217TIP3    H143142   3.917   2.856  14.534 -0.4982  0.9551 -0.3965
 7217TIP3    H243143   3.802   2.758  14.544  0.2638  0.1166  0.2639
 7218TIP3   OH243144   4.056   6.339  17.359  0.4412 -0.2576  0.4756
 7218TIP3    H143145   4.124   6.392  17.402  1.1943  0.4634 -1.4924
 7218TIP3    H243146   4.101   6.299  17.285 -0.8440 -1.3472  0.2594
 7219TIP3   OH243147   3.819   2.482   1.835  0.3851 -0.2027 -0.1832
 7219TIP3    H143148   3.863   2.416   1.780 -1.3474 -0.7100 -1.0626
 7219TIP3    H243149   3.745   2.435   1.874  1.1612  0.3419  2.0935
 7220TIP3   OH243150   3.779   4.170  15.056  0.5278  0.0763 -0.5393
 7220TIP3    H143151   3.697   4.156  15.008  1.1931  0.6122 -1.9095
 7220TIP3    H243152   3.822   4.241  15.008  2.5234 -1.2704 -0.8646
 7221TIP3   OH243153   1.062   1.284  12.691 -0.0299  0.1634 -0.6672
 7221TIP3    H143154   1.118   1.270  12.614  0.1898 -0.1371 -0.4534
 7221TIP3    H243155   1.023   1.370  12.677  0.9477  0.6391 -0.5284
 7222TIP3   OH243156   2.759   4.059  11.651  0.5424  0.5754 -0.1906
 7222TIP3    H143157   2.720   4.071  11.738  0.2085 -0.8435 -0.1342
 7222TIP3    H243158   2.849   4.090  11.662  0.4990  0.4266  0.6558
 7223TIP3   OH243159   0.175   6.769  12.692 -0.4528  0.3186  0.0807
 7223TIP3    H143160   0.233   6.696  12.713 -1.0183  0.1370  1.0900
 7223TIP3    H243161   0.087   6.733  12.697 -0.7208  0.9586  0.1297
 7224TIP3   OH243162   6.748   6.360   0.040 -0.0206 -0.6278  0.4796
 7224TIP3    H143163   6.690   6.432   0.013  0.0573 -0.7566 -0.0330
 7224TIP3    H243164   6.695   6.309   0.101 -1.0985 -1.7461 -1.3095
 7225TIP3   OH243165   3.226   3.544   3.313  0.1519 -0.6359  0.1507
 7225TIP3    H143166   3.153   3.601   3.288  0.9610  0.1173 -0.6064
 7225TIP3    H243167   3.296   3.605   3.338  0.4116 -1.3435  1.2353
 7226TIP3   OH243168   0.990   1.107  13.745  0.2530  0.2099  0.1887
 7226TIP3    H143169   0.914   1.131  13.798  0.9889  0.9675  0.9234
 7226TIP3    H243170   1.048   1.183  13.750  0.6383  0.0201 -1.1575
 7227TIP3   OH243171   6.409   5.393  16.636  0.2738  0.1141  0.0702
 7227TIP3    H143172   6.411   5.485  16.664 -0.8444 -0.1872  1.2368
 7227TIP3    H243173   6.337   5.355  16.686  0.1571 -1.1970 -1.0564
 7228TIP3   OH243174   0.081   4.895   0.077  0.3489  1.0897  0.3348
 7228TIP3    H143175   0.023   4.903   0.153 -0.0277  2.6666 -0.0842
 7228TIP3    H243176   0.027   4.853   0.010  0.6677 -0.2635  0.8848
 7229TIP3   OH243177   3.803   5.749   0.433  0.1320 -0.6303 -0.1606
 7229TIP3    H143178   3.800   5.844   0.418 -1.5965 -0.6580 -0.2788
 7229TIP3    H243179   3.716   5.728   0.467 -0.7920 -2.6459 -3.2920
 7230TIP3   OH243180   4.563   5.868  12.515 -0.4921 -0.6745 -0.6117
 7230TIP3    H143181   4.574   5.887  12.608  1.8543 -1.1938 -0.7186
 7230TIP3    H243182   4.493   5.927  12.486  0.0320  0.8569  1.0679
 7231TIP3   OH243183   2.435   2.381   3.316 -0.5167  0.7424  0.0039
 7231TIP3    H143184   2.368   2.316   3.334 -1.8335  2.3584  1.2275
 7231TIP3    H243185   2.389   2.452   3.271  0.5427  1.5562  0.1522
 7232TIP3   OH243186   6.344   3.380  14.076  0.1175  0.4837 -0.0749
 7232TIP3    H143187   6.386   3.426  14.149 -2.2536  1.6514  0.6481
 7232TIP3    H243188   6.261   3.425  14.064 -0.8966 -1.6173 -1.4928
 7233TIP3   OH243189   3.835   4.006  14.798 -0.2526 -0.2626 -0.5661
 7233TIP3    H143190   3.868   4.081  14.847  2.9254 -2.1871  0.5285
 7233TIP3    H243191   3.838   4.035  14.706  1.1200  0.9180 -0.1910
 7234TIP3   OH243192   6.729   1.526   1.550 -0.3318  0.0436 -0.4013
 7234TIP3    H143193   6.791   1.552   1.618 -2.1115  2.4397  0.4441
 7234TIP3    H243194   6.681   1.452   1.588  0.9473 -0.8562 -0.4765
 7235TIP3   OH243195   4.423   5.610   5.097 -0.7983 -0.7381 -0.0101
 7235TIP3    H143196   4.461   5.655   5.172  0.0356 -0.1858 -0.7446
 7235TIP3    H243197   4.498   5.589   5.041 -1.5986  1.0348 -1.8464
 7236TIP3   OH243198   0.083   3.304  17.148 -0.3583  0.1776  0.5670
 7236TIP3    H143199   0.037   3.267  17.073  2.9733 -0.4846 -1.3195
 7236TIP3    H243200   0.096   3.396  17.126 -0.2233  0.2138  0.7892
 7237TIP3   OH243201   3.596   1.584  13.172  0.0509 -0.2535  1.1019
 7237TIP3    H143202   3.625   1.540  13.252  0.4208 -0.4542  0.8637
 7237TIP3    H243203   3.609   1.677  13.189 -0.5157 -0.2468  1.5231
 7238TIP3   OH243204   0.543   6.719  15.868  0.5101  0.3952  0.1882
 7238TIP3    H143205   0.507   6.640  15.909 -1.2001  0.5114 -0.9901
 7238TIP3    H243206   0.637   6.709  15.877  0.5282 -2.9637 -1.9238
 7239TIP3   OH243207   2.341   2.447  15.249  0.3488  0.3193 -0.5057
 7239TIP3    H143208   2.342   2.459  15.154  2.1555  0.6230 -0.4863
 7239TIP3    H243209   2.384   2.525  15.283 -0.0882  0.1058  0.5524
 7240TIP3   OH243210   5.816   0.312  17.180  0.1467  0.1518 -0.0736
 7240TIP3    H143211   5.803   0.276  17.268 -0.5699  1.8462  0.5521
 7240TIP3    H243212   5.731   0.302  17.137 -0.0928  1.1856  0.1481
 7241TIP3   OH243213   2.347   3.109   4.176  0.3917  0.1617 -0.4313
 7241TIP3    H143214   2.283   3.046   4.210 -1.5797  1.2980 -1.8974
 7241TIP3    H243215   2.375   3.072   4.092  0.9939  0.1414 -0.2307
 7242TIP3   OH243216   6.065   2.656   3.117  0.1597  0.5171 -0.0922
 7242TIP3    H143217   6.025   2.732   3.075 -0.4806 -0.3459 -1.1145
 7242TIP3    H243218   6.143   2.690   3.161  1.2767  1.4049 -2.5572
 7243TIP3   OH243219   1.398   4.639  15.476 -0.0958 -0.5383  0.8694
 7243TIP3    H143220   1.453   4.561  15.467  1.4487  0.1413  3.4685
 7243TIP3    H243221   1.396   4.656  15.570 -1.4469  1.8354  0.4740
 7244TIP3   OH243222   2.287   5.204   0.452 -0.2334 -0.2823 -0.2764
 7244TIP3    H143223   2.322   5.258   0.381 -1.2539 -1.0038 -1.3761
 7244TIP3    H243224   2.344   5.221   0.526  0.0643  1.5323 -0.8770
 7245TIP3   OH243225   1.358   2.407  14.423  0.0930  0.0804 -0.3180
 7245TIP3    H143226   1.298   2.349  14.470 -0.7891 -0.1197 -1.6252
 7245TIP3    H243227   1.445   2.382  14.454 -0.4566  0.0827  1.3068
 7246TIP3   OH243228   0.939   0.964  11.516  0.0896 -0.7906 -0.0674
 7246TIP3    H143229   0.935   0.979  11.611  0.4314  1.2424 -0.3277
 7246TIP3    H243230   0.895   1.040  11.478  0.7581 -1.1226 -1.5566
 7247TIP3   OH243231   5.192   5.190   5.608  0.8588  0.1795  0.1061
 7247TIP3    H143232   5.226   5.102   5.622  2.7374  0.3506 -2.5712
 7247TIP3    H243233   5.136   5.207   5.683  1.6288 -2.7059  1.4507
 7248TIP3   OH243234   5.514   5.912  16.715  0.0637  0.2927  0.0392
 7248TIP3    H143235   5.478   5.929  16.628  1.6243 -1.5506 -1.0381
 7248TIP3    H243236   5.546   5.822  16.711  1.0398  0.4812  2.2260
 7249TIP3   OH243237   5.046   5.366  12.582  0.3275 -0.3631  0.5993
 7249TIP3    H143238   5.036   5.347  12.676 -1.3299  0.9153  0.7240
 7249TIP3    H243239   5.122   5.424  12.577  0.2709 -0.2339  1.1793
 7250TIP3   OH243240   5.560   2.446  16.244 -0.5071  0.1597 -0.5498
 7250TIP3    H143241   5.488   2.385  16.228 -0.9595 -0.3690  2.7068
 7250TIP3    H243242   5.618   2.399  16.305 -0.2287  2.4425  1.0739
 7251TIP3   OH243243   0.518   6.116  16.059  0.5205  0.1820 -0.1622
 7251TIP3    H143244   0.576   6.084  16.128 -0.4193 -1.7851 -0.2035
 7251TIP3    H243245   0.565   6.100  15.977  1.0800  1.2891 -0.0833
 7252TIP3   OH243246   6.360   2.459   2.331 -0.2804  0.2030 -0.2090
 7252TIP3    H143247   6.352   2.399   2.258 -0.4352  0.8380 -0.7256
 7252TIP3    H243248   6.281   2.512   2.328 -2.0231 -1.9463  2.4940
 7253TIP3   OH243249   3.542   5.832  14.853 -0.7259 -0.2688 -0.7206
 7253TIP3    H143250   3.621   5.881  14.830 -0.0752 -1.2839 -0.7009
 7253TIP3    H243251   3.530   5.771  14.780  0.3900 -2.3652  0.7726
 7254TIP3   OH243252   4.253   3.255   0.489  0.1684  0.0170  0.6567
 7254TIP3    H143253   4.337   3.210   0.479 -0.4705 -1.2729  0.9734
 7254TIP3    H243254   4.224   3.274   0.400  0.0289 -0.9795  0.4884
 7255TIP3   OH243255   1.382   3.916  12.602  0.4545  0.3851 -0.0433
 7255TIP3    H143256   1.288   3.904  12.611  0.2777  1.6202 -0.1158
 7255TIP3    H243257   1.408   3.966  12.680  1.5265 -2.2154  1.3781
 7256TIP3   OH243258   1.617   0.388  13.146  0.6592  0.0076  0.6445
 7256TIP3    H143259   1.670   0.405  13.224  0.1690  2.1686  0.5686
 7256TIP3    H243260   1.550   0.455  13.148 -0.8844 -1.4375 -0.3523
 7257TIP3   OH243261   0.817   4.704   2.510 -0.2465 -0.0765  0.1242
 7257TIP3    H143262   0.799   4.791   2.475  0.7667  0.4615  0.8886
 7257TIP3    H243263   0.797   4.710   2.603  0.1799 -0.5529  0.2531
 7258TIP3   OH243264   0.028   0.267  16.895 -0.1463  0.0920  0.0048
 7258TIP3    H143265   0.115   0.286  16.928 -0.0593  0.5485 -0.4817
 7258TIP3    H243266   0.039   0.255  16.801 -0.5435 -0.2435 -0.0042
 7259TIP3   OH243267   1.196   0.674  16.328  0.2012  0.3262 -0.3572
 7259TIP3    H143268   1.210   0.685  16.234 -0.5336  1.1378 -0.3777
 7259TIP3    H243269   1.173   0.581  16.337 -1.7461  0.6839 -1.2545
 7260TIP3   OH243270   4.158   4.439   6.458  0.7099 -0.3239 -0.3589
 7260TIP3    H143271   4.243   4.469   6.490 -0.5723  1.8046  1.4108
 7260TIP3    H243272   4.118   4.396   6.534 -0.3972  0.1639 -0.6367
 7261TIP3   OH243273   6.410   1.592  16.036 -0.1932  0.2362 -0.0664
 7261TIP3    H143274   6.379   1.683  16.030  0.8939  0.5570 -1.1551
 7261TIP3    H243275   6.487   1.589  15.979  0.0170 -1.2816  0.2600
 7262TIP3   OH243276   5.577   6.079   0.434 -0.0069 -0.4020  0.4199
 7262TIP3    H143277   5.611   5.993   0.458  0.2369 -0.3846  0.1457
 7262TIP3    H243278   5.652   6.124   0.394 -0.5646 -0.6865 -1.0036
 7263TIP3   OH243279   1.111   2.795  15.526 -0.1453 -0.1304  0.2594
 7263TIP3    H143280   1.045   2.734  15.561  0.6390 -1.4109 -0.4166
 7263TIP3    H243281   1.186   2.739  15.505  0.7376  1.1386 -0.0602
 7264TIP3   OH243282   6.261   2.961   5.085 -0.1746 -0.3477 -0.3154
 7264TIP3    H143283   6.267   2.886   5.026  1.4112 -1.6727  1.3867
 7264TIP3    H243284   6.292   3.036   5.033 -0.8391 -1.0436 -1.7584
 7265TIP3   OH243285   3.934   6.473   5.243 -0.0714  0.2250 -0.5186
 7265TIP3    H143286   3.956   6.478   5.336  1.5144 -0.6091 -0.7989
 7265TIP3    H243287   4.014   6.500   5.199  0.1850 -2.1438 -1.6410
 7266TIP3   OH243288   2.844   0.796  15.210 -0.1282 -1.0039  0.1463
 7266TIP3    H143289   2.801   0.736  15.270 -0.6214  0.0005  0.8144
 7266TIP3    H243290   2.782   0.806  15.138 -1.2533  0.7377  1.2848
 7267TIP3   OH243291   2.413   2.135  17.300 -0.2593 -0.7475  0.5512
 7267TIP3    H143292   2.365   2.110  17.379  0.4110 -1.4913  0.7449
 7267TIP3    H243293   2.411   2.057  17.245  0.8856 -0.8690  0.6529
 7268TIP3   OH243294   6.556   4.820   5.250 -0.1851 -0.0495 -0.4075
 7268TIP3    H143295   6.647   4.846   5.241 -0.9303  3.2362  0.3452
 7268TIP3    H243296   6.517   4.839   5.165 -0.4655 -0.2122 -0.3171
 7269TIP3   OH243297   5.483   3.752   5.872 -0.2032  0.8517  0.8172
 7269TIP3    H143298   5.503   3.773   5.963  0.5872 -3.0844  1.7127
 7269TIP3    H243299   5.399   3.706   5.875 -0.6682  1.5299 -0.6238
 7270TIP3   OH243300   0.073   1.760  16.838  0.5172 -0.3408 -0.2850
 7270TIP3    H143301   0.009   1.826  16.863  0.7855 -0.1946  0.0127
 7270TIP3    H243302   0.105   1.789  16.753  2.7259  1.4716  1.0869
 7271TIP3   OH243303   3.862   5.486  16.260  0.2068  0.1412 -0.2734
 7271TIP3    H143304   3.834   5.466  16.171 -0.2991 -0.7510  0.0835
 7271TIP3    H243305   3.958   5.486  16.255  0.2180 -1.6787 -0.4384
 7272TIP3   OH243306   0.269   2.101  15.694  0.0570  0.7045 -0.6298
 7272TIP3    H143307   0.174   2.110  15.687  0.1067  1.7742 -0.0452
 7272TIP3    H243308   0.301   2.189  15.715  1.0118  0.0404  0.8568
 7273TIP3   OH243309   0.355   0.616   2.056  0.2461 -0.4614 -0.0844
 7273TIP3    H143310   0.441   0.657   2.049  0.9879 -2.0976 -1.4778
 7273TIP3    H243311   0.296   0.676   2.011  0.6130  0.7183  0.9532
 7274TIP3   OH243312   5.523   4.699  16.421  0.2617  0.1206 -0.1605
 7274TIP3    H143313   5.605   4.718  16.466  0.9678  1.1530 -1.8154
 7274TIP3    H243314   5.545   4.699  16.328 -1.4074 -0.6395 -0.6019
 7275TIP3   OH243315   5.547   1.415  12.978  0.1373 -0.1532  0.5914
 7275TIP3    H143316   5.508   1.496  13.011 -0.6221  1.1995 -3.0513
 7275TIP3    H243317   5.641   1.434  12.976  0.0006  0.5492  0.1384
 7276TIP3   OH243318   4.548   4.604   4.625 -0.0704  0.2824 -0.5487
 7276TIP3    H143319   4.637   4.618   4.594  0.3666 -0.8165  0.1676
 7276TIP3    H243320   4.508   4.692   4.624  2.2572  1.5873  2.9053
 7277TIP3   OH243321   2.183   0.585   4.733  0.1521 -0.5604  0.0034
 7277TIP3    H143322   2.188   0.660   4.674  1.1171 -1.8688 -1.6714
 7277TIP3    H243323   2.190   0.509   4.675 -1.0942 -1.9637  1.6116
 7278TIP3   OH243324   6.351   3.719   5.688  0.2658  0.3913 -0.7893
 7278TIP3    H143325   6.366   3.802   5.733 -1.0107  1.5856 -2.4263
 7278TIP3    H243326   6.424   3.663   5.715  0.4149  1.5516  1.4290
 7279TIP3   OH243327   4.375   3.903  14.655 -0.3407 -0.6277  0.1137
 7279TIP3    H143328   4.405   3.989  14.627 -1.6580  0.2849  1.3531
 7279TIP3    H243329   4.343   3.916  14.744 -1.2560 -2.2317  0.0688
 7280TIP3   OH243330   5.003   3.800  12.788  0.1012 -0.2127  0.2960
 7280TIP3    H143331   5.072   3.737  12.770 -0.0070 -0.0609 -0.6869
 7280TIP3    H243332   5.039   3.856  12.857  0.3182 -1.1415  0.9542
 7281TIP3   OH243333   0.960   0.203  12.224 -0.0542 -0.1947 -0.5019
 7281TIP3    H143334   0.973   0.275  12.286 -0.8701  0.4841 -1.0959
 7281TIP3    H243335   1.001   0.128  12.266  1.3814  0.7462 -0.1405
 7282TIP3   OH243336   3.292   0.903   1.242 -0.6961  0.1219  0.0914
 7282TIP3    H143337   3.297   0.878   1.334 -2.5002 -1.6112 -0.2156
 7282TIP3    H243338   3.308   0.821   1.195 -1.2770  0.6809 -1.1009
 7283TIP3   OH243339   0.654   5.931   4.314 -0.8091 -0.0863 -0.3070
 7283TIP3    H143340   0.658   5.978   4.398  0.7318  0.1721 -0.4956
 7283TIP3    H243341   0.610   5.849   4.335 -0.4512 -0.0251  0.7656
 7284TIP3   OH243342   2.989   0.800  12.876 -0.0137 -0.2088  0.5355
 7284TIP3    H143343   3.027   0.796  12.789 -1.3286 -0.3112 -0.0644
 7284TIP3    H243344   3.063   0.796  12.936  1.0962  2.0005 -0.5961
 7285TIP3   OH243345   5.416   5.059   5.369 -0.0658 -0.6665 -0.4130
 7285TIP3    H143346   5.462   5.085   5.290  2.0566 -2.2562  0.1837
 7285TIP3    H243347   5.435   5.128   5.432 -1.1590  0.2390 -1.0434
 7286TIP3   OH243348   5.919   3.610   6.030  0.4038 -0.2408  0.6732
 7286TIP3    H143349   5.909   3.647   6.117 -1.7933 -1.6138  1.0842
 7286TIP3    H243350   5.908   3.515   6.043  1.1845 -0.5861 -0.9408
 7287TIP3   OH243351   2.718   4.888  14.469 -0.2064 -0.0354 -0.0206
 7287TIP3    H143352   2.784   4.952  14.498 -1.2072  0.3589  1.5207
 7287TIP3    H243353   2.760   4.803  14.486 -0.6825  0.1672  2.7112
 7288TIP3   OH243354   1.248   4.712   0.507  0.2922 -0.0296  0.8238
 7288TIP3    H143355   1.180   4.666   0.457  0.6261  0.8253 -0.4602
 7288TIP3    H243356   1.300   4.642   0.546 -1.4868 -0.7140  2.1098
 7289TIP3   OH243357   1.725   2.807  12.329 -0.2001 -0.2276  0.4501
 7289TIP3    H143358   1.651   2.836  12.275 -0.3400 -0.9523  0.2442
 7289TIP3    H243359   1.704   2.717  12.352  0.5575 -0.3953  0.5074
 7290TIP3   OH243360   4.533   2.990  12.212  0.3966 -0.4592  0.1554
 7290TIP3    H143361   4.444   3.024  12.226  0.3955  0.6821 -2.1710
 7290TIP3    H243362   4.521   2.912  12.158  0.8173  0.0314 -0.6667
 7291TIP3   OH243363   6.056   2.456   0.441 -0.8420  0.0016  0.1713
 7291TIP3    H143364   6.059   2.550   0.452  2.0699 -0.2115  2.4430
 7291TIP3    H243365   5.983   2.427   0.496 -0.3279  0.7819  1.2981
 7292TIP3   OH243366   5.628   5.031  14.729 -0.4050 -0.1724 -0.1674
 7292TIP3    H143367   5.623   5.110  14.784 -1.8791 -1.3388  1.5199
 7292TIP3    H243368   5.565   5.048  14.659 -0.1355  0.4733 -0.2623
 7293TIP3   OH243369   5.889   5.592  13.521  0.3077 -0.3892 -0.6534
 7293TIP3    H143370   5.913   5.519  13.464  1.3346  0.5103 -1.4259
 7293TIP3    H243371   5.819   5.637  13.474  2.9042  1.9167 -2.6806
 7294TIP3   OH243372   1.223   4.697  14.380 -0.0660 -0.0558  0.3178
 7294TIP3    H143373   1.258   4.652  14.457  3.1747 -0.0341 -0.9771
 7294TIP3    H243374   1.214   4.628  14.314 -0.2852  0.3321 -0.0597
 7295TIP3   OH243375   2.873   5.121  16.305 -0.3886  0.0292 -0.8899
 7295TIP3    H143376   2.967   5.142  16.299 -0.6999  1.5458 -1.0153
 7295TIP3    H243377   2.842   5.174  16.378 -1.2701  0.0557 -1.2709
 7296TIP3   OH243378   5.698   5.540  13.972  0.1812 -0.3810 -0.4237
 7296TIP3    H143379   5.667   5.593  13.899  0.8981 -3.1531 -2.8783
 7296TIP3    H243380   5.645   5.461  13.970  0.5218 -0.7585  1.8562
 7297TIP3   OH243381   1.408   2.350   4.789  0.0885  0.5244  0.0322
 7297TIP3    H143382   1.488   2.299   4.802  0.6776  1.4834  0.2653
 7297TIP3    H243383   1.416   2.386   4.701 -0.8580 -0.6715 -0.5785
 7298TIP3   OH243384   3.570   3.212   5.136  0.0294  0.0888  0.1446
 7298TIP3    H143385   3.556   3.303   5.162 -1.8203 -0.2605  0.5462
 7298TIP3    H243386   3.659   3.210   5.101  0.1261  2.0301  0.1740
 7299TIP3   OH243387   0.647   3.745   3.655 -0.3377 -0.2030 -0.6526
 7299TIP3    H143388   0.681   3.740   3.566 -2.0276 -1.5882 -1.2924
 7299TIP3    H243389   0.643   3.654   3.684 -0.9591  0.1361  0.3698
 7300TIP3   OH243390   0.122   0.360   2.097 -0.3001 -0.5597 -0.0508
 7300TIP3    H143391   0.106   0.429   2.162 -0.7148 -0.2520 -0.4699
 7300TIP3    H243392   0.047   0.366   2.037  0.2308 -0.6229 -0.7373
 7301TIP3   OH243393   2.696   6.028  17.099 -0.0969  0.1448 -0.4617
 7301TIP3    H143394   2.697   5.940  17.062  1.4375 -0.3488  0.6500
 7301TIP3    H243395   2.633   6.023  17.171 -0.8115  0.2600 -1.0762
 7302TIP3   OH243396   6.006   5.357  13.094  0.1623  0.3183 -0.0739
 7302TIP3    H143397   5.982   5.299  13.021 -0.0603  0.0279  0.2289
 7302TIP3    H243398   6.100   5.368  13.085  0.0157  0.9802 -0.9176
 7303TIP3   OH243399   3.379   6.095  13.370 -0.2942  0.3510 -0.1019
 7303TIP3    H143400   3.354   6.018  13.319 -0.8229 -0.1526  0.8837
 7303TIP3    H243401   3.298   6.142  13.385 -0.1659  0.4341  0.3554
 7304TIP3   OH243402   4.846   5.412   3.863  0.0023  0.9508  0.7346
 7304TIP3    H143403   4.835   5.341   3.799  0.9538  0.1690  1.4113
 7304TIP3    H243404   4.758   5.425   3.898  0.0681 -1.0823  1.7942
 7305TIP3   OH243405   0.378   3.300  13.400 -0.1399 -0.0297 -0.4812
 7305TIP3    H143406   0.473   3.291  13.385  0.1698  1.2564  0.5616
 7305TIP3    H243407   0.352   3.371  13.342 -0.1491  0.6781  0.3736
 7306TIP3   OH243408   4.464   0.586  17.097  0.2091  0.2319  0.1285
 7306TIP3    H143409   4.372   0.613  17.104  0.2660  0.1764  1.2651
 7306TIP3    H243410   4.512   0.668  17.086  0.0444  0.2813 -0.2258
 7307TIP3   OH243411   3.973   5.076  15.749 -0.4577 -0.4100 -0.1621
 7307TIP3    H143412   3.880   5.051  15.750 -1.5111  2.9863  0.7803
 7307TIP3    H243413   3.972   5.171  15.739  3.0587 -0.4418 -2.4547
 7308TIP3   OH243414   5.727   6.375   1.069  0.1852 -0.6382  0.0524
 7308TIP3    H143415   5.724   6.375   0.973  1.8041 -1.0981 -0.0289
 7308TIP3    H243416   5.706   6.465   1.094 -0.7082 -0.6255 -0.7022
 7309TIP3   OH243417   1.591   4.942  17.085 -0.0987  0.4608 -0.7835
 7309TIP3    H143418   1.580   5.029  17.045  0.7264  0.5899 -0.7422
 7309TIP3    H243419   1.679   4.944  17.122 -0.6124  0.1156  0.4940
 7310TIP3   OH243420   3.039   2.885   0.699  0.4568  0.0127 -0.2110
 7310TIP3    H143421   3.039   2.979   0.717 -0.5769 -0.1919  1.0401
 7310TIP3    H243422   2.946   2.863   0.688  0.6802 -0.8771 -0.4434
 7311TIP3   OH243423   2.750   6.702  14.767  0.3907  0.5006 -0.2753
 7311TIP3    H143424   2.704   6.653  14.835  0.8243  0.6260  0.1114
 7311TIP3    H243425   2.816   6.642  14.733  0.2142  0.4580 -0.5464
 7312TIP3   OH243426   5.655   3.476  16.206 -0.2482  0.2665 -0.2588
 7312TIP3    H143427   5.588   3.514  16.148 -0.1127  0.2827 -0.4066
 7312TIP3    H243428   5.717   3.435  16.146 -0.7635 -0.8141 -0.0733
 7313TIP3   OH243429   1.465   3.610   4.247 -0.2966 -0.0115 -0.0003
 7313TIP3    H143430   1.471   3.702   4.273  0.3143  0.0348 -0.2910
 7313TIP3    H243431   1.509   3.607   4.162 -0.5518 -0.5243 -0.1123
 7314TIP3   OH243432   4.512   5.761  15.957  0.2815  0.0148 -0.3263
 7314TIP3    H143433   4.538   5.767  15.866  1.9762 -0.4912  0.0957
 7314TIP3    H243434   4.429   5.712  15.956 -0.4958  1.2664 -1.6699
 7315TIP3   OH243435   3.723   2.531   5.174 -0.5420 -0.4660 -0.2172
 7315TIP3    H143436   3.791   2.539   5.107 -1.0805 -0.4529 -0.7744
 7315TIP3    H243437   3.726   2.438   5.199  0.8548 -0.1092  1.0420
 7316TIP3   OH243438   2.501   4.742  15.166 -0.1489  0.3362 -0.0567
 7316TIP3    H143439   2.492   4.814  15.228  0.5559  0.2801  0.1244
 7316TIP3    H243440   2.596   4.730  15.157 -0.2572 -0.4868 -0.1846
 7317TIP3   OH243441   2.588   5.459   2.738 -0.4661  0.2949  0.1936
 7317TIP3    H143442   2.626   5.544   2.715  0.9419 -0.5174 -0.6411
 7317TIP3    H243443   2.588   5.459   2.834  0.6088  0.8056  0.2195
 7318TIP3   OH243444   2.609   3.295  13.264  0.0069 -0.3385 -0.2135
 7318TIP3    H143445   2.655   3.358  13.319 -1.4464  0.5220  0.0463
 7318TIP3    H243446   2.520   3.292  13.299 -1.0329  0.3555 -2.5884
 7319TIP3   OH243447   1.689   2.020   1.242  0.1484  0.2297  0.1931
 7319TIP3    H143448   1.717   1.988   1.157  1.2500 -0.9524  0.9640
 7319TIP3    H243449   1.767   2.059   1.281  0.1759 -0.9198  1.3907
 7320TIP3   OH243450   1.694   3.757   4.539 -0.5552  0.0522  0.5069
 7320TIP3    H143451   1.725   3.704   4.465  1.5267  1.7981  0.0305
 7320TIP3    H243452   1.768   3.812   4.562 -2.1476  1.7456  1.9058
 7321TIP3   OH243453   5.037   2.261  15.923 -0.2444 -0.0140  0.7771
 7321TIP3    H143454   5.000   2.203  15.856 -1.0314  0.0329  1.1515
 7321TIP3    H243455   5.053   2.204  15.998  0.3972 -0.0194  0.6439
 7322TIP3   OH243456   3.264   0.760  11.983  0.2538 -0.1960  0.2270
 7322TIP3    H143457   3.243   0.766  12.077 -0.9319  0.6721 -0.0607
 7322TIP3    H243458   3.307   0.843  11.964 -1.0425  0.3800 -0.3257
 7323TIP3   OH243459   2.546   3.706  10.943 -0.4108  0.1018  0.6436
 7323TIP3    H143460   2.549   3.801  10.959 -0.6265  0.2579 -0.2085
 7323TIP3    H243461   2.638   3.679  10.948 -0.3276  0.3861  0.6834
 7324TIP3   OH243462   2.901   4.094  14.776  0.1780  0.1533 -0.2552
 7324TIP3    H143463   2.941   4.131  14.855  0.2947  0.3474 -0.4038
 7324TIP3    H243464   2.970   4.040  14.738  0.2623  0.4019 -0.4537
 7325TIP3   OH243465   6.546   1.433   0.299 -0.1791  0.1616  0.4229
 7325TIP3    H143466   6.506   1.354   0.333 -0.9566 -1.0569 -2.9728
 7325TIP3    H243467   6.639   1.411   0.290 -0.1764  0.0869  0.6276
 7326TIP3   OH243468   3.591   5.523   5.178  0.2371  0.4685  0.1829
 7326TIP3    H143469   3.504   5.537   5.141  0.1133  0.5485  0.5036
 7326TIP3    H243470   3.612   5.432   5.157  0.0192  0.4086  0.2291
 7327TIP3   OH243471   5.902   5.453  14.119  0.4513 -0.1932 -0.2400
 7327TIP3    H143472   5.930   5.363  14.106  0.0071 -0.1598 -1.6182
 7327TIP3    H243473   5.846   5.472  14.044 -0.4068  0.8602  0.6213
 7328TIP3   OH243474   3.945   4.130   1.102 -0.3130 -0.1925  0.7257
 7328TIP3    H143475   3.946   4.226   1.099 -3.4390 -0.0514 -2.6371
 7328TIP3    H243476   3.907   4.110   1.187 -0.6300  1.6397  1.0718
 7329TIP3   OH243477   1.885   3.963   0.227 -0.4266  0.3198  0.5926
 7329TIP3    H143478   1.975   3.936   0.206 -0.9626 -1.7764  0.7425
 7329TIP3    H243479   1.876   3.946   0.320 -1.2710 -0.4455  0.3809
 7330TIP3   OH243480   6.437   5.470  12.585  0.0199 -0.0196  0.2824
 7330TIP3    H143481   6.522   5.430  12.568  0.0954  0.5664 -0.7411
 7330TIP3    H243482   6.398   5.413  12.652  0.0907 -1.8587 -1.1504
 7331TIP3   OH243483   2.970   4.427   1.215  0.1889  0.3459  0.1556
 7331TIP3    H143484   2.957   4.339   1.249 -2.0526  1.6203  3.0137
 7331TIP3    H243485   3.059   4.450   1.240  0.2134 -0.5085  0.9000
 7332TIP3   OH243486   3.862   1.892  15.969  0.1948 -0.0536 -0.1556
 7332TIP3    H143487   3.795   1.912  16.034 -0.6058 -0.3927 -0.8552
 7332TIP3    H243488   3.819   1.833  15.907  1.2878 -0.6685 -0.3578
 7333TIP3   OH243489   2.266   5.087  10.771  0.4373 -0.2697 -0.5836
 7333TIP3    H143490   2.296   5.158  10.829 -1.1401 -0.1584  0.1476
 7333TIP3    H243491   2.208   5.034  10.826 -1.5501  0.1388 -2.1866
 7334TIP3   OH243492   5.074   6.200  15.206 -0.1067 -0.1676 -0.1312
 7334TIP3    H143493   4.991   6.152  15.203 -0.6150  0.5652  1.2799
 7334TIP3    H243494   5.134   6.147  15.153 -1.4658 -0.7005 -1.2179
 7335TIP3   OH243495   1.844   3.192   5.946  0.1010  0.0753  0.1650
 7335TIP3    H143496   1.889   3.176   6.029  0.6604 -2.2163 -0.5156
 7335TIP3    H243497   1.785   3.266   5.965  0.4611 -0.1519  2.4892
 7336TIP3   OH243498   5.479   4.657   6.076  0.2270  0.2827  0.2228
 7336TIP3    H143499   5.562   4.673   6.031 -1.2435  2.7415 -1.8744
 7336TIP3    H243500   5.427   4.606   6.014 -1.0594  1.8489 -0.0389
 7337TIP3   OH243501   5.479   0.102  14.176  0.3633  0.1796  0.0221
 7337TIP3    H143502   5.526   0.176  14.139 -0.0002  1.0585  1.2588
 7337TIP3    H243503   5.387   0.125  14.166  0.1929 -0.7474 -0.8091
 7338TIP3   OH243504   0.531   0.015  13.949  0.2521  0.1054  0.3018
 7338TIP3    H143505   0.608   0.046  13.902 -0.0999  2.6120  1.2477
 7338TIP3    H243506   0.558   0.013  14.041  0.1314 -2.1858  0.3430
 7339TIP3   OH243507   2.798   2.151   6.157  0.1539 -0.3080  0.5436
 7339TIP3    H143508   2.705   2.137   6.136 -1.1502  0.7425  4.7012
 7339TIP3    H243509   2.813   2.243   6.137  0.5246 -0.5971 -0.6053
 7340TIP3   OH243510   3.872   5.696   0.162  0.3173 -0.4600  0.6214
 7340TIP3    H143511   3.963   5.665   0.169 -0.1806 -1.7483  2.2373
 7340TIP3    H243512   3.844   5.706   0.253 -0.9128  0.7190  0.1321
 7341TIP3   OH243513   4.538   2.712   1.872 -0.0414 -1.3184 -0.2287
 7341TIP3    H143514   4.519   2.709   1.966  1.2070 -0.7745  0.0601
 7341TIP3    H243515   4.555   2.621   1.848  3.2681 -1.1414  0.9168
 7342TIP3   OH243516   6.605   2.377  13.150 -0.1029 -0.2906 -0.2103
 7342TIP3    H143517   6.518   2.416  13.139 -0.9276 -2.3020 -1.4375
 7342TIP3    H243518   6.643   2.424  13.225 -2.5151  0.2005  0.8158
 7343TIP3   OH243519   5.152   5.650  16.283 -0.5642  0.4915  0.0905
 7343TIP3    H143520   5.161   5.733  16.331 -0.4150  1.5208 -1.6371
 7343TIP3    H243521   5.094   5.671  16.210  1.1948 -0.3526 -1.6193
 7344TIP3   OH243522   4.518   0.664  16.305  0.1397  0.0639  0.8860
 7344TIP3    H143523   4.499   0.632  16.393  0.8337 -2.3408  0.2613
 7344TIP3    H243524   4.606   0.631  16.287 -0.0430  0.3878 -0.7508
 7345TIP3   OH243525   3.211   6.320  11.533  0.1235  0.6797  0.2427
 7345TIP3    H143526   3.289   6.330  11.588  0.2240 -1.5574  0.6140
 7345TIP3    H243527   3.230   6.243  11.479 -1.0170  1.3368 -1.1426
 7346TIP3   OH243528   5.648   0.738   3.671 -0.8076 -0.2891  0.1142
 7346TIP3    H143529   5.655   0.681   3.748 -4.3005 -0.0525  0.7591
 7346TIP3    H243530   5.677   0.684   3.598  0.8857 -1.1034  1.3128
 7347TIP3   OH243531   3.876   0.058   2.272  0.0410 -0.4107 -0.2453
 7347TIP3    H143532   3.883   0.142   2.227 -0.0970 -0.5868 -0.6003
 7347TIP3    H243533   3.874  -0.007   2.201  0.3317 -0.7258  0.0321
 7348TIP3   OH243534   4.781   0.704   1.798 -0.3476 -0.1909  0.2017
 7348TIP3    H143535   4.846   0.650   1.753 -0.3819  0.3785 -0.5385
 7348TIP3    H243536   4.734   0.642   1.854  0.5210 -0.6879  0.4062
 7349TIP3   OH243537   2.644   1.550  11.909  0.6185  0.9640  0.6637
 7349TIP3    H143538   2.703   1.612  11.951  1.3915 -0.3523  1.6154
 7349TIP3    H243539   2.595   1.510  11.981 -0.0231  0.6388  0.0618
 7350TIP3   OH243540   6.477   6.439  11.421 -0.9201  0.0644 -0.5870
 7350TIP3    H143541   6.456   6.411  11.332 -0.2399 -1.6179 -0.2387
 7350TIP3    H243542   6.525   6.521  11.409 -1.0206 -0.0320 -1.7594
 7351TIP3   OH243543   3.955   5.876   6.076  0.3306  0.8453  0.2667
 7351TIP3    H143544   3.989   5.823   6.148 -0.2440  0.8352  0.5392
 7351TIP3    H243545   3.863   5.892   6.100  0.1596  0.9145 -0.4231
 7352TIP3   OH243546   5.857   4.574  17.020  0.1700 -0.1244 -0.3536
 7352TIP3    H143547   5.805   4.554  16.942 -0.7324  1.0584 -0.1001
 7352TIP3    H243548   5.944   4.594  16.986 -0.1109 -0.0090 -1.0326
 7353TIP3   OH243549   5.163   1.466  13.159 -0.3154 -0.2510  0.2168
 7353TIP3    H143550   5.228   1.529  13.127 -1.1240  0.4446 -0.0789
 7353TIP3    H243551   5.199   1.381  13.135 -0.0902  0.1771 -1.0609
 7354TIP3   OH243552   1.666   4.560  17.380  0.2268  0.3561  0.4444
 7354TIP3    H143553   1.610   4.579  17.304  1.1938  1.3351 -0.0566
 7354TIP3    H243554   1.741   4.514  17.343 -0.6657 -1.8590  1.2483
 7355TIP3   OH243555   1.884   1.910  11.784  0.4691  0.5430  0.2427
 7355TIP3    H143556   1.920   1.987  11.740 -1.2622  0.1704 -2.0176
 7355TIP3    H243557   1.789   1.925  11.785  0.2453 -0.7009  1.5366
 7356TIP3   OH243558   1.767   5.880  16.240 -0.0304  0.2351 -0.9123
 7356TIP3    H143559   1.784   5.952  16.179 -0.3304  0.5687 -0.6024
 7356TIP3    H243560   1.850   5.832  16.242  0.3158  0.8216 -0.7904
 7357TIP3   OH243561   2.345   5.744   1.747  0.3618 -0.7565  0.0483
 7357TIP3    H143562   2.315   5.835   1.756  0.6942 -0.3394 -2.2662
 7357TIP3    H243563   2.270   5.691   1.774 -0.3739  0.2223 -0.0128
 7358TIP3   OH243564   3.423   3.004   0.696  0.4578  0.2197 -0.2256
 7358TIP3    H143565   3.505   3.037   0.658  0.5839  1.2574  0.8988
 7358TIP3    H243566   3.444   2.915   0.723  1.1845  0.4305 -0.0666
 7359TIP3   OH243567   4.534   4.923   3.407 -0.1827  0.0526  0.1231
 7359TIP3    H143568   4.619   4.897   3.444 -0.4250  0.0816  0.7087
 7359TIP3    H243569   4.554   5.003   3.358 -0.0505  0.6938  1.1670
 7360TIP3   OH243570   3.887   5.016   0.341 -0.2438 -0.6690 -0.4888
 7360TIP3    H143571   3.800   5.051   0.322 -0.3551  0.0273  1.0970
 7360TIP3    H243572   3.920   5.072   0.411  1.0053 -1.6532 -0.2585
 7361TIP3   OH243573   6.045   2.623   3.761 -0.0236  0.6404  0.1668
 7361TIP3    H143574   5.988   2.672   3.702  1.1075  1.5039 -0.2480
 7361TIP3    H243575   6.130   2.620   3.716 -0.1634 -2.2804 -0.1371
 7362TIP3   OH243576   0.980   4.286  12.767  0.0276  0.3848  0.3960
 7362TIP3    H143577   1.008   4.344  12.837  0.7173 -0.6917  1.0351
 7362TIP3    H243578   0.930   4.343  12.707 -0.8466  1.2593  1.8920
 7363TIP3   OH243579   0.645   6.349   1.453  0.4440  0.2107  0.1119
 7363TIP3    H143580   0.576   6.350   1.519  0.5766 -0.1854  0.2613
 7363TIP3    H243581   0.685   6.435   1.459  0.7152  0.0433  0.8369
 7364TIP3   OH243582   5.950   2.978  16.548 -0.1242 -0.0787  0.1189
 7364TIP3    H143583   5.948   2.941  16.636 -2.2720 -0.6209 -0.1009
 7364TIP3    H243584   5.860   3.004  16.531  0.7748  2.7844 -0.8145
 7365TIP3   OH243585   0.670   5.202   4.957  0.5262 -0.1191 -0.0767
 7365TIP3    H143586   0.619   5.283   4.957  1.0569  0.2162 -0.4419
 7365TIP3    H243587   0.605   5.134   4.938 -0.0034  0.1566  0.6814
 7366TIP3   OH243588   6.379   4.002   4.989 -0.0442 -0.4467  0.2143
 7366TIP3    H143589   6.286   4.011   5.010 -0.0860  0.2212 -0.2262
 7366TIP3    H243590   6.424   4.037   5.065 -0.0756 -2.9498  1.5023
 7367TIP3   OH243591   1.712   1.967  13.262 -0.4447  0.5607  0.2210
 7367TIP3    H143592   1.644   1.900  13.266 -1.6155  1.7369  0.4899
 7367TIP3    H243593   1.703   2.006  13.175  1.5573 -0.9291 -0.7381
 7368TIP3   OH243594   6.055   4.001  13.170 -0.0351 -0.5238 -0.7596
 7368TIP3    H143595   6.083   4.069  13.109  2.3978 -0.5270  0.2267
 7368TIP3    H243596   6.044   3.923  13.115  1.4635 -0.3663 -1.3252
 7369TIP3   OH243597   5.797   1.621  10.959 -0.1471  0.5331  0.3193
 7369TIP3    H143598   5.712   1.616  10.916  0.1034 -1.2139 -0.0744
 7369TIP3    H243599   5.859   1.584  10.895  0.7299  0.7352  1.0217
 7370TIP3   OH243600   0.499   2.111  14.957  0.3086 -0.1229 -0.4728
 7370TIP3    H143601   0.470   2.021  14.969  1.4711 -0.6246 -1.2340
 7370TIP3    H243602   0.541   2.111  14.871  0.0508  1.2186 -0.6132
 7371TIP3   OH243603   4.378   5.793   1.485  0.0866  0.8544  0.4564
 7371TIP3    H143604   4.355   5.886   1.477 -0.8816  0.7037  1.3161
 7371TIP3    H243605   4.392   5.780   1.579 -0.5264 -0.0257  0.4313
 7372TIP3   OH243606   0.456   3.680  12.753  0.3160 -0.1723 -0.3341
 7372TIP3    H143607   0.422   3.714  12.835  0.2355  0.7550 -0.7316
 7372TIP3    H243608   0.458   3.756  12.695  0.7956 -0.7156 -1.0514
 7373TIP3   OH243609   5.063   3.516  14.527 -0.1501  0.2707  0.6446
 7373TIP3    H143610   4.986   3.535  14.473  0.1470 -0.9461 -0.2247
 7373TIP3    H243611   5.071   3.594  14.583 -1.0615  1.1201 -0.3436
 7374TIP3   OH243612   5.708   2.837  15.546 -0.2985 -0.1799  0.0744
 7374TIP3    H143613   5.694   2.926  15.513 -1.2291 -1.1908 -2.4853
 7374TIP3    H243614   5.645   2.829  15.619 -1.9327  0.5253 -1.1914
 7375TIP3   OH243615   6.333   2.440  16.274  0.0371  0.3471  0.2423
 7375TIP3    H143616   6.370   2.498  16.207  0.0129  0.6720  0.5129
 7375TIP3    H243617   6.375   2.466  16.355 -1.0587  0.9760  0.6228
 7376TIP3   OH243618   5.084   3.524   5.131 -0.1918  0.1695 -0.5920
 7376TIP3    H143619   5.014   3.508   5.068 -0.6897 -0.2588  0.0591
 7376TIP3    H243620   5.077   3.617   5.152  0.5714  0.5402 -1.8524
 7377TIP3   OH243621   3.346   1.922  13.298 -0.1637  0.8171 -0.1945
 7377TIP3    H143622   3.413   1.960  13.355  1.0458  0.2867 -1.2158
 7377TIP3    H243623   3.341   1.983  13.225 -0.9124  0.9185 -0.0654
 7378TIP3   OH243624   2.585   4.446   2.577  0.3036  0.0606 -0.1748
 7378TIP3    H143625   2.678   4.468   2.584  0.0158  1.5718 -0.7685
 7378TIP3    H243626   2.581   4.377   2.511  0.8184  1.4062 -1.6498
 7379TIP3   OH243627   2.808   4.145   5.370 -0.3717 -0.0481 -0.0475
 7379TIP3    H143628   2.814   4.087   5.294  3.2858  1.2255 -0.9549
 7379TIP3    H243629   2.719   4.180   5.367 -1.1816 -2.0552 -2.1648
 7380TIP3   OH243630   3.558   4.784   3.179  0.0572  0.2664  0.1292
 7380TIP3    H143631   3.637   4.831   3.153 -0.3032  0.5212 -0.5563
 7380TIP3    H243632   3.523   4.750   3.096 -0.1059 -0.5542  0.5212
 7381TIP3   OH243633   4.252   6.011   1.369  0.2257  0.1082  0.4354
 7381TIP3    H143634   4.282   6.065   1.296  1.7963 -1.2572  0.0186
 7381TIP3    H243635   4.215   5.933   1.327 -0.8890  0.2744  1.0645
 7382TIP3   OH243636   3.373   4.711  14.972 -0.3460  0.1939 -0.2187
 7382TIP3    H143637   3.309   4.765  14.925  1.4304  1.5422 -1.1981
 7382TIP3    H243638   3.451   4.713  14.917  0.5343 -1.5025  0.8854
 7383TIP3   OH243639   2.462   1.163   0.807  0.8118  0.7271  0.1773
 7383TIP3    H143640   2.506   1.248   0.798 -0.2736  1.2518 -0.5433
 7383TIP3    H243641   2.408   1.156   0.727 -0.3350  0.1045  0.9720
 7384TIP3   OH243642   1.927   4.945   6.444 -0.1762 -0.1958 -0.3208
 7384TIP3    H143643   1.973   5.025   6.470 -1.2302 -0.2267  1.9444
 7384TIP3    H243644   1.836   4.973   6.430 -0.1565 -0.6757 -1.5312
 7385TIP3   OH243645   4.704   1.905  14.009  0.2379 -0.1901 -0.3926
 7385TIP3    H143646   4.645   1.833  14.032  2.3612 -1.9405 -0.1068
 7385TIP3    H243647   4.726   1.945  14.093  1.6204 -1.3827 -0.1388
 7386TIP3   OH243648   4.921   6.203   4.537 -0.6710 -0.0346  0.1416
 7386TIP3    H143649   4.975   6.263   4.486 -0.8903  0.0896  0.0506
 7386TIP3    H243650   4.981   6.160   4.597 -0.5658  0.5407  0.4563
 7387TIP3   OH243651   2.592   1.888  15.966 -0.0511  0.9149  0.5675
 7387TIP3    H143652   2.561   1.950  15.900  1.1457  0.6004 -0.3335
 7387TIP3    H243653   2.525   1.889  16.033 -0.8359  1.9863 -0.1918
 7388TIP3   OH243654   5.466   4.344   2.323 -0.3262 -1.4835  0.2336
 7388TIP3    H143655   5.374   4.346   2.296 -0.4063 -1.9195  0.4682
 7388TIP3    H243656   5.470   4.276   2.389 -0.1109 -0.5357  1.2333
 7389TIP3   OH243657   4.007   3.221   4.303  0.7687  0.3299  0.7126
 7389TIP3    H143658   3.934   3.184   4.352  1.9426  0.2437  2.5140
 7389TIP3    H243659   4.021   3.161   4.230 -1.1427  0.5452  0.1280
 7390TIP3   OH243660   1.627   4.236  10.956  0.6486 -0.3221 -0.2259
 7390TIP3    H143661   1.663   4.275  11.036  0.1292  0.0409 -0.1619
 7390TIP3    H243662   1.680   4.157  10.942 -0.0115 -1.0457  1.1545
 7391TIP3   OH243663   3.505   3.368   4.740 -0.4304 -0.4374 -0.0114
 7391TIP3    H143664   3.596   3.377   4.766 -0.4812  0.0383  0.0036
 7391TIP3    H243665   3.510   3.339   4.648 -0.2645 -0.3546 -0.0299
 7392TIP3   OH243666   3.087   0.356   6.067  0.2108 -0.0156  0.3110
 7392TIP3    H143667   3.141   0.355   6.145  1.9343 -1.1380 -0.8282
 7392TIP3    H243668   3.055   0.266   6.059 -0.1173  0.1388 -0.1872
 7393TIP3   OH243669   6.168   5.884   1.347 -0.5305 -0.0814 -0.6677
 7393TIP3    H143670   6.119   5.872   1.428 -0.7722  0.2721 -0.7590
 7393TIP3    H243671   6.160   5.801   1.301  0.7984 -0.7871  0.3094
 7394TIP3   OH243672   4.349   2.843  15.682  0.0166 -0.2002 -0.2951
 7394TIP3    H143673   4.421   2.819  15.623  0.1080  2.1040 -1.2247
 7394TIP3    H243674   4.392   2.884  15.757 -0.1387 -2.6090  1.2249
 7395TIP3   OH243675   4.204   4.565   3.606 -0.1538  0.1713 -0.1442
 7395TIP3    H143676   4.211   4.569   3.510 -0.1022  0.9491 -0.1098
 7395TIP3    H243677   4.110   4.572   3.623 -0.1964 -0.3226 -0.1462
 7396TIP3   OH243678   0.712   0.135   2.429 -0.1172 -0.1067  0.5773
 7396TIP3    H143679   0.688   0.224   2.455 -3.8163 -1.1631  1.4611
 7396TIP3    H243680   0.703   0.083   2.509  0.9866 -1.4660 -0.1271
 7397TIP3   OH243681   0.734   2.316  13.875 -0.4512  0.1042 -0.1615
 7397TIP3    H143682   0.707   2.237  13.828  0.4440 -0.3817  0.1323
 7397TIP3    H243683   0.653   2.346  13.918 -0.3542 -1.9780  1.6427
 7398TIP3   OH243684   6.461   4.260   5.553 -0.1306 -0.1581 -0.4238
 7398TIP3    H143685   6.411   4.248   5.634 -0.9828 -1.4799 -1.1015
 7398TIP3    H243686   6.536   4.202   5.562  1.7652  2.3296  0.8821
 7399TIP3   OH243687   1.571   0.861   2.389  0.2243  0.4456 -0.0195
 7399TIP3    H143688   1.613   0.910   2.460  0.0954  1.2203 -0.4627
 7399TIP3    H243689   1.616   0.890   2.310  1.1866 -1.3081 -0.1558
 7400TIP3   OH243690   1.866   2.936   5.556  0.0402  0.4986  0.1754
 7400TIP3    H143691   1.923   2.917   5.483 -1.0303  1.0397 -0.8383
 7400TIP3    H243692   1.914   3.000   5.609 -0.0661  1.7908 -1.2481
 7401TIP3   OH243693   0.907   6.038  13.633  0.2121  0.6543 -0.4175
 7401TIP3    H143694   0.935   6.074  13.548  3.0192 -1.7173 -0.6708
 7401TIP3    H243695   0.972   6.072  13.695  0.0516 -0.1312  0.1863
 7402TIP3   OH243696   4.614   1.457  16.604  0.2528 -0.1756 -0.0064
 7402TIP3    H143697   4.690   1.505  16.570 -0.9354  1.8960  0.0736
 7402TIP3    H243698   4.571   1.423  16.526 -1.4586  3.0046 -0.6058
 7403TIP3   OH243699   1.307   4.219  16.309  0.0398  0.2167  0.4319
 7403TIP3    H143700   1.291   4.125  16.297  1.5053 -0.0448  0.2326
 7403TIP3    H243701   1.312   4.254  16.220  0.6020  0.2585  0.4754
 7404TIP3   OH243702   4.511   2.441  16.127  0.2228 -0.6556  0.3574
 7404TIP3    H143703   4.513   2.489  16.209 -1.2027  0.0956 -0.0278
 7404TIP3    H243704   4.470   2.357  16.149 -1.8004  0.2103  0.1310
 7405TIP3   OH243705   4.168   5.301  16.329 -0.6006  0.1138 -0.1891
 7405TIP3    H143706   4.101   5.244  16.369  0.7824 -1.4773 -0.0425
 7405TIP3    H243707   4.251   5.262  16.356  0.3932  1.3892 -1.3084
 7406TIP3   OH243708   2.250   0.246  14.089 -0.0265 -0.2624 -0.4519
 7406TIP3    H143709   2.194   0.200  14.152 -0.0413 -0.9361 -0.9470
 7406TIP3    H243710   2.294   0.313  14.141  1.0902 -1.7503  0.6162
 7407TIP3   OH243711   5.016   4.589  14.898  0.1984  0.6100  0.9280
 7407TIP3    H143712   4.933   4.557  14.864  1.1133 -0.0023 -0.8214
 7407TIP3    H243713   5.081   4.561  14.835  1.6845  1.6250  1.9272
 7408TIP3   OH243714   3.259   0.018   5.951 -0.0420 -0.1924 -0.0185
 7408TIP3    H143715   3.277   0.109   5.926 -0.6250  1.3832  4.3616
 7408TIP3    H243716   3.169   0.020   5.984 -0.3749 -2.6338 -0.5968
 7409TIP3   OH243717   1.608   1.249  16.524 -0.3667  0.6579 -0.1263
 7409TIP3    H143718   1.642   1.178  16.469  0.1948  1.4759 -0.8597
 7409TIP3    H243719   1.528   1.278  16.479 -0.8125  0.2324  0.3849
 7410TIP3   OH243720   6.376   4.492  17.124  0.0970  0.1406 -0.1109
 7410TIP3    H143721   6.318   4.502  17.199 -1.5995  0.9546 -1.4385
 7410TIP3    H243722   6.334   4.425  17.070  1.4123 -0.6112 -0.2356
 7411TIP3   OH243723   6.278   2.683  16.952  0.0645 -0.0442 -0.0060
 7411TIP3    H143724   6.244   2.620  17.016  1.5860 -1.5876 -0.6524
 7411TIP3    H243725   6.209   2.691  16.887 -0.2957 -0.7509  0.2814
 7412TIP3   OH243726   3.197   5.898  12.990 -0.1295  0.2407 -0.1560
 7412TIP3    H143727   3.138   5.853  13.051 -0.1768  0.7950  0.2182
 7412TIP3    H243728   3.192   5.847  12.909 -1.3300  0.4145 -0.2129
 7413TIP3   OH243729   1.432   5.541  11.307  0.0553  0.1259  0.2029
 7413TIP3    H143730   1.381   5.545  11.388  0.6058  1.7270  0.5129
 7413TIP3    H243731   1.401   5.616  11.255  0.9373  0.1517 -0.3061
 7414TIP3   OH243732   3.007   4.664   1.799  0.3730 -0.4327  0.2643
 7414TIP3    H143733   2.981   4.618   1.719 -1.0350 -0.2490  0.6012
 7414TIP3    H243734   2.930   4.714   1.824  1.2925  0.6912  0.9200
 7415TIP3   OH243735   1.790   0.710   5.138  0.3094  0.3833  0.0515
 7415TIP3    H143736   1.773   0.616   5.128 -0.5868  0.5841 -0.4343
 7415TIP3    H243737   1.854   0.715   5.209  1.4116 -0.6771 -0.8176
 7416TIP3   OH243738   4.499   4.834  13.765  0.5354 -0.0425  0.3688
 7416TIP3    H143739   4.430   4.901  13.767  0.9599  0.4012  0.4441
 7416TIP3    H243740   4.452   4.751  13.765  0.0119  0.2312  1.7894
 7417TIP3   OH243741   3.933   5.234  12.379 -0.0645  0.5737  0.9048
 7417TIP3    H143742   3.871   5.162  12.372  1.2761 -0.4921 -1.4531
 7417TIP3    H243743   3.912   5.277  12.461 -2.4068 -1.1089  1.2678
 7418TIP3   OH243744   3.294   3.677   3.723  0.0104  0.0296  0.0665
 7418TIP3    H143745   3.366   3.738   3.733  0.2817 -0.2445 -0.2077
 7418TIP3    H243746   3.321   3.619   3.652 -1.4922  1.3865 -1.7063
 7419TIP3   OH243747   5.484   0.269  16.624 -0.9827 -0.9218  0.2456
 7419TIP3    H143748   5.401   0.293  16.664 -1.6793  0.0403 -1.6503
 7419TIP3    H243749   5.464   0.259  16.531  1.0265 -0.6307 -0.2741
 7420TIP3   OH243750   1.320   4.244  13.296 -0.1997  0.7462 -0.6587
 7420TIP3    H143751   1.403   4.268  13.338 -0.6648  0.7839  0.2800
 7420TIP3    H243752   1.259   4.235  13.369 -0.7101 -0.5688 -1.2198
 7421TIP3   OH243753   5.381   3.205   3.911 -0.2818 -0.4009 -0.2164
 7421TIP3    H143754   5.418   3.158   3.836  1.3450  0.0088  0.2866
 7421TIP3    H243755   5.341   3.137   3.965  1.5840 -1.2145  0.2463
 7422TIP3   OH243756   2.041   0.116   4.928  0.8336  0.4745  0.2406
 7422TIP3    H143757   2.122   0.118   4.978  0.1236  1.2221  1.3792
 7422TIP3    H243758   2.042   0.030   4.885  1.5694 -0.0870  1.3430
 7423TIP3   OH243759   1.655   6.756  15.132 -0.0748  0.2645 -0.0132
 7423TIP3    H143760   1.581   6.700  15.154 -0.1808  0.5761  0.4504
 7423TIP3    H243761   1.725   6.696  15.108 -0.4434 -0.0366 -0.3516
 7424TIP3   OH243762   4.978   0.376   3.921  0.3522  0.5644 -0.6638
 7424TIP3    H143763   4.925   0.316   3.973  0.5883  1.3907  0.5721
 7424TIP3    H243764   4.966   0.461   3.964  1.2513  1.0990 -1.4482
 7425TIP3   OH243765   5.296   5.301  15.959 -0.7983 -0.1712 -0.3999
 7425TIP3    H143766   5.376   5.331  15.915  0.2397  0.3395  1.6982
 7425TIP3    H243767   5.280   5.214  15.924  1.9804 -1.2190  0.6438
 7426TIP3   OH243768   3.573   4.584  13.548 -0.1200 -0.1061 -0.3735
 7426TIP3    H143769   3.627   4.543  13.616  0.4242 -0.1822 -0.8400
 7426TIP3    H243770   3.572   4.677  13.570  1.4460  0.1261 -1.1782
 7427TIP3   OH243771   1.715   2.227   0.219  0.2292 -0.5191  0.3305
 7427TIP3    H143772   1.703   2.247   0.126 -0.9769 -0.0681  0.5601
 7427TIP3    H243773   1.627   2.208   0.251  0.2588  1.5802  1.8906
 7428TIP3   OH243774   2.641   1.652  16.083  0.0668  0.1441 -0.4466
 7428TIP3    H143775   2.629   1.735  16.036  0.1791  0.2064 -0.3650
 7428TIP3    H243776   2.702   1.674  16.154  0.3455 -0.0808 -0.6158
 7429TIP3   OH243777   0.813   4.703   2.797  0.1405 -0.2044 -0.8877
 7429TIP3    H143778   0.786   4.655   2.875  0.5543  0.1320 -0.5275
 7429TIP3    H243779   0.870   4.773   2.830 -1.0564  1.0272 -1.3178
 7430TIP3   OH243780   5.578   5.204   5.822 -0.6656  0.4724 -0.0020
 7430TIP3    H143781   5.581   5.144   5.897  0.5010  0.1612 -0.2705
 7430TIP3    H243782   5.485   5.224   5.812 -1.2830 -2.2408 -0.6322
 7431TIP3   OH243783   6.249   0.054   5.231  0.1492  0.4807  0.1310
 7431TIP3    H143784   6.305   0.012   5.165  0.6221 -0.7573  1.2603
 7431TIP3    H243785   6.295   0.135   5.254  0.0215  0.8756 -0.9717
 7432TIP3   OH243786   4.630   0.880   6.149  0.1826 -0.1251  0.2075
 7432TIP3    H143787   4.583   0.962   6.165  0.6669  0.0175  0.9143
 7432TIP3    H243788   4.698   0.876   6.216  0.3553 -0.9683  0.0071
 7433TIP3   OH243789   4.184   2.108  17.003  0.5105 -0.1701 -0.3118
 7433TIP3    H143790   4.178   2.180  17.066  2.2461  1.1863 -1.5705
 7433TIP3    H243791   4.226   2.037  17.051  0.7921  0.4492  0.3833
 7434TIP3   OH243792   6.420   6.373  13.260 -0.0139 -0.1628  0.1096
 7434TIP3    H143793   6.375   6.309  13.315  1.5175 -0.4167  1.1393
 7434TIP3    H243794   6.464   6.321  13.193 -0.9355  0.0564 -0.6879
 7435TIP3   OH243795   2.819   2.795  15.394  0.0051 -1.4543  0.1267
 7435TIP3    H143796   2.819   2.858  15.466  0.3352 -1.3820  0.0627
 7435TIP3    H243797   2.904   2.807  15.351 -0.6479 -0.6490 -1.0067
 7436TIP3   OH243798   2.135   3.026  13.014  0.1327  0.5290 -0.2094
 7436TIP3    H143799   2.040   3.034  13.025  0.0119 -0.9234  0.0601
 7436TIP3    H243800   2.147   3.011  12.920  0.1010  0.7928 -0.2551
 7437TIP3   OH243801   6.522   0.882   1.433  0.5570  0.0615  0.1672
 7437TIP3    H143802   6.581   0.846   1.500  1.9526  1.1495 -0.4321
 7437TIP3    H243803   6.578   0.897   1.357 -0.9782 -1.0584 -1.2667
 7438TIP3   OH243804   2.266   0.791   0.831  0.4569  0.4212 -0.7692
 7438TIP3    H143805   2.338   0.854   0.823  1.2176 -0.4890 -1.2705
 7438TIP3    H243806   2.253   0.758   0.742  0.2072 -0.2812 -0.4784
 7439TIP3   OH243807   1.683   6.479   6.173  0.3830 -0.2673  0.7826
 7439TIP3    H143808   1.750   6.470   6.241  1.2631 -1.6610 -0.2124
 7439TIP3    H243809   1.600   6.473   6.220  0.8899  1.6875  2.0747
 7440TIP3   OH243810   5.110   6.562  10.549  0.6073 -0.2210 -0.1190
 7440TIP3    H143811   5.034   6.610  10.515  0.0306 -0.0467  1.3317
 7440TIP3    H243812   5.184   6.620  10.533 -0.1542  1.5517  2.1623
 7441TIP3   OH243813   5.058   3.774  12.016 -0.3997  0.2346  0.2770
 7441TIP3    H143814   5.065   3.826  12.097  0.8732  0.4874  0.0271
 7441TIP3    H243815   5.118   3.817  11.955 -1.5404  0.1999 -0.9054
 7442TIP3   OH243816   2.590   4.140  12.417 -0.6354 -0.2222  0.0104
 7442TIP3    H143817   2.674   4.137  12.463 -0.3307 -1.4089 -0.5815
 7442TIP3    H243818   2.583   4.231  12.386 -0.9066  0.6592  2.4314
 7443TIP3   OH243819   0.619   0.947   6.101  0.2058 -0.4899  0.2805
 7443TIP3    H143820   0.664   0.924   6.182 -0.5611  0.1265  0.8993
 7443TIP3    H243821   0.570   1.026   6.123  0.2044 -0.1545 -0.8659
 7444TIP3   OH243822   2.681   3.722   1.535  0.3406  0.1030  0.6112
 7444TIP3    H143823   2.591   3.695   1.517  0.9864 -0.8963 -1.4868
 7444TIP3    H243824   2.720   3.648   1.580  0.7655 -0.5464 -0.7611
 7445TIP3   OH243825   4.885   0.007   0.491  0.1962  0.1185 -0.3765
 7445TIP3    H143826   4.826   0.060   0.438  1.3962 -0.8963 -2.9336
 7445TIP3    H243827   4.971   0.019   0.450  0.9938 -1.6208  0.6392
 7446TIP3   OH243828   5.368   1.234  16.214 -0.4886  0.3503 -0.1562
 7446TIP3    H143829   5.278   1.228  16.246 -0.4608 -0.7235 -0.2387
 7446TIP3    H243830   5.412   1.158  16.253  0.6884  1.4693  0.8180
 7447TIP3   OH243831   4.414   3.042  13.902  0.2460  0.1114  0.2251
 7447TIP3    H143832   4.482   3.082  13.957  0.2166  2.4057 -1.2678
 7447TIP3    H243833   4.335   3.046  13.956  1.2032 -2.7681  2.0613
 7448TIP3   OH243834   6.100   0.954  17.469 -0.5171 -0.2234 -0.0098
 7448TIP3    H143835   6.142   0.937  17.385  0.8723 -0.4513  0.7036
 7448TIP3    H243836   6.059   0.871  17.493  1.6770 -1.1052  0.9319
 7449TIP3   OH243837   4.705   6.400  13.009  0.3512 -0.2365 -0.2299
 7449TIP3    H143838   4.645   6.329  12.983 -0.5075 -0.1488  1.3779
 7449TIP3    H243839   4.663   6.440  13.085  3.8241 -2.1095  3.0288
 7450TIP3   OH243840   5.709   3.417  15.290  0.1699 -0.0967 -0.1039
 7450TIP3    H143841   5.692   3.332  15.331 -0.5125  0.4306  0.7386
 7450TIP3    H243842   5.628   3.437  15.242  0.2997  0.1079 -0.2401
 7451TIP3   OH243843   0.136   5.222  11.546 -0.7263 -0.2207 -0.5764
 7451TIP3    H143844   0.163   5.310  11.574  0.9414 -1.6066  2.8196
 7451TIP3    H243845   0.118   5.231  11.453 -0.4154  3.6525 -0.4309
 7452TIP3   OH243846   5.282   2.612   3.533  0.2788 -0.0326  0.6068
 7452TIP3    H143847   5.209   2.561   3.567 -0.0565 -1.4920 -2.0372
 7452TIP3    H243848   5.360   2.569   3.568 -0.0545 -1.3167 -0.1691
 7453TIP3   OH243849   4.769   4.294   6.920 -0.1910  0.4870  0.5290
 7453TIP3    H143850   4.782   4.350   6.997 -0.0311 -0.5096  1.2542
 7453TIP3    H243851   4.676   4.272   6.922 -0.5683  1.8832 -0.5940
 7454TIP3   OH243852   1.537   1.150   0.691 -0.0440  0.3303 -0.4740
 7454TIP3    H143853   1.584   1.134   0.610  0.4148 -0.5650 -0.0328
 7454TIP3    H243854   1.446   1.125   0.671  0.1994 -0.5320 -0.5079
 7455TIP3   OH243855   4.244   2.756  11.365 -0.3094  0.4366 -0.1296
 7455TIP3    H143856   4.171   2.693  11.366  0.5458 -0.5987 -0.8111
 7455TIP3    H243857   4.206   2.836  11.402 -1.6107 -0.2694  0.1597
 7456TIP3   OH243858   4.886   1.201  16.639 -0.3444 -0.2041 -0.2491
 7456TIP3    H143859   4.912   1.111  16.657 -0.7313 -0.4517 -0.8999
 7456TIP3    H243860   4.792   1.197  16.623 -0.8149  0.6794  1.9989
 7457TIP3   OH243861   5.437   6.217  11.321  0.2449  0.2779  0.3750
 7457TIP3    H143862   5.394   6.254  11.244 -0.0900 -1.2486 -0.1988
 7457TIP3    H243863   5.381   6.243  11.394  0.7754  2.0753  0.1887
 7458TIP3   OH243864   3.939   0.173   3.525  0.4919  0.1182  0.2488
 7458TIP3    H143865   3.861   0.158   3.472 -0.6207  1.1393  1.5090
 7458TIP3    H243866   3.970   0.259   3.498  0.6664  0.0845  0.3435
 7459TIP3   OH243867   5.506   0.878   3.235 -0.5498  0.3394 -0.1683
 7459TIP3    H143868   5.487   0.791   3.200 -0.8533  0.9292 -1.5321
 7459TIP3    H243869   5.595   0.871   3.271 -0.2564 -0.3189 -0.9958
 7460TIP3   OH243870   6.046   1.563  16.397 -0.7309  0.3588  0.3656
 7460TIP3    H143871   6.003   1.485  16.430  1.0948 -1.4749 -1.3062
 7460TIP3    H243872   6.113   1.584  16.462 -0.4093 -0.2304  0.2259
 7461TIP3   OH243873   0.165   3.047  15.784  0.1178  0.2691  0.0568
 7461TIP3    H143874   0.167   3.124  15.726 -2.4145  0.4821  0.1311
 7461TIP3    H243875   0.255   3.014  15.782  0.9482  2.3349 -1.1768
 7462TIP3   OH243876   3.775   0.973   0.399  0.3186  0.4588 -0.0216
 7462TIP3    H143877   3.795   0.954   0.491  0.5532  1.8749  0.2535
 7462TIP3    H243878   3.704   0.912   0.377  1.8532 -1.5477  0.3481
 7463TIP3   OH243879   2.855   1.650   3.601  0.4323 -0.3193  0.3228
 7463TIP3    H143880   2.777   1.599   3.582 -0.1524  0.3802  0.7794
 7463TIP3    H243881   2.835   1.738   3.568  0.7658  0.0301  1.0272
 7464TIP3   OH243882   0.549   6.179  16.615  0.4786 -0.4660 -0.3426
 7464TIP3    H143883   0.609   6.113  16.578  1.2941 -0.0235  0.1563
 7464TIP3    H243884   0.588   6.263  16.590 -0.1740 -0.1671 -0.3658
 7465TIP3   OH243885   4.405   0.255   2.690  0.2173 -0.6096  0.2052
 7465TIP3    H143886   4.475   0.316   2.666  0.0996 -0.3163  0.5951
 7465TIP3    H243887   4.344   0.258   2.617  0.4902 -0.6850 -0.0292
 7466TIP3   OH243888   4.186   2.855  13.938  0.0125 -0.2321 -0.5254
 7466TIP3    H143889   4.102   2.895  13.960 -0.7709 -2.1594  0.2161
 7466TIP3    H243890   4.172   2.815  13.852  0.5826  0.5026 -0.9711
 7467TIP3   OH243891   0.743   2.599  12.287  0.1179  0.2435  0.3272
 7467TIP3    H143892   0.684   2.539  12.332 -1.2753  0.9455 -0.5201
 7467TIP3    H243893   0.789   2.645  12.358  0.4350 -1.0563  0.9831
 7468TIP3   OH243894   5.651   5.149  11.569 -0.1546  0.6678 -0.2091
 7468TIP3    H143895   5.676   5.059  11.550  0.9871  1.1247 -0.9359
 7468TIP3    H243896   5.612   5.181  11.488 -1.0046  0.6943  0.1979
 7469TIP3   OH243897   1.710   6.742  11.809 -0.0720 -0.0202 -0.1472
 7469TIP3    H143898   1.658   6.667  11.838  0.3547 -0.1579  0.2671
 7469TIP3    H243899   1.784   6.745  11.869  0.4456  0.1245 -0.7844
 7470TIP3   OH243900   3.148   3.102   5.535 -0.3259  0.4329  0.2108
 7470TIP3    H143901   3.229   3.110   5.484  0.5737  0.3745  1.5700
 7470TIP3    H243902   3.172   3.046   5.609 -1.7589 -0.0064  0.3703
 7471TIP3   OH243903   2.457   3.183   4.431 -0.6311 -0.3658 -0.2183
 7471TIP3    H143904   2.470   3.167   4.337  1.5163 -0.0392 -0.0196
 7471TIP3    H243905   2.497   3.268   4.446 -2.7114  0.5310  0.6802
 7472TIP3   OH243906   6.473   3.047   2.879  0.1142 -0.5890  0.1814
 7472TIP3    H143907   6.556   3.063   2.833 -0.4317 -0.4641 -0.8020
 7472TIP3    H243908   6.428   3.132   2.877  0.4335 -0.3587  1.7333
 7473TIP3   OH243909   6.776   5.093  12.583 -0.2910 -0.1769 -0.4285
 7473TIP3    H143910   6.719   5.059  12.515 -1.3517 -2.4413  1.4409
 7473TIP3    H243911   6.845   5.028  12.592  1.6986  1.6706 -1.4482
 7474TIP3   OH243912   4.088   1.666  15.407 -0.0040 -0.2638  0.3111
 7474TIP3    H143913   4.104   1.643  15.315  0.0146 -1.5093  0.6101
 7474TIP3    H243914   4.053   1.755  15.403  0.1374 -0.2374 -0.8908
 7475TIP3   OH243915   3.280   2.029  14.508  0.3934 -0.3718 -0.6036
 7475TIP3    H143916   3.231   1.971  14.567  0.3888 -0.5293 -0.7611
 7475TIP3    H243917   3.270   2.116  14.547  3.3443 -0.8884  1.6944
 7476TIP3   OH243918   5.925   0.511  11.607  0.0246  0.2054  0.2943
 7476TIP3    H143919   5.976   0.587  11.634  1.1304 -0.6683  0.7703
 7476TIP3    H243920   5.924   0.515  11.512  1.6363 -0.1216  0.2276
 7477TIP3   OH243921   4.464   4.580   1.626  0.4602  0.2437 -0.0646
 7477TIP3    H143922   4.545   4.583   1.574  0.1763 -0.1436 -0.5432
 7477TIP3    H243923   4.452   4.670   1.657  1.7684  0.0494  1.1042
 7478TIP3   OH243924   4.641   6.703  12.941 -0.3308 -0.1797 -0.1069
 7478TIP3    H143925   4.702   6.769  12.909  1.9758 -1.3859  1.4512
 7478TIP3    H243926   4.622   6.648  12.866  1.1260 -0.1857 -0.4951
 7479TIP3   OH243927   4.582   1.622  13.388  0.0106  0.0198  0.3438
 7479TIP3    H143928   4.522   1.590  13.455 -1.1207 -2.6907 -1.7503
 7479TIP3    H243929   4.660   1.569  13.398  0.2977  0.4238  0.2614
 7480TIP3   OH243930   0.038   0.491   3.372  0.3989 -0.4165 -0.4168
 7480TIP3    H143931   0.111   0.479   3.433 -0.5984 -3.0679  0.3974
 7480TIP3    H243932   0.016   0.584   3.378  2.3510  0.0096  0.8841
 7481TIP3   OH243933   3.447   2.402  12.320  0.3322  1.0102  0.2103
 7481TIP3    H143934   3.385   2.363  12.260  1.0616  1.6223 -0.9846
 7481TIP3    H243935   3.426   2.364  12.405 -0.2249 -0.4585 -0.5608
 7482TIP3   OH243936   6.210   4.312   0.558  0.1251  0.8003  0.0036
 7482TIP3    H143937   6.169   4.386   0.513 -0.9963  0.1173 -0.1491
 7482TIP3    H243938   6.173   4.235   0.515 -0.8867  0.1144  1.9768
 7483TIP3   OH243939   3.370   2.290  12.567 -0.2988  0.6799  0.1792
 7483TIP3    H143940   3.299   2.226  12.568 -0.2119  0.5860  0.4110
 7483TIP3    H243941   3.440   2.249  12.617 -1.0742  1.8764  2.3871
 7484TIP3   OH243942   6.527   2.911  14.324  0.3653  0.0106 -0.7269
 7484TIP3    H143943   6.499   2.876  14.240  0.9559 -1.8808 -0.1811
 7484TIP3    H243944   6.570   2.838  14.368  0.5538  1.0961  1.0118
 7485TIP3   OH243945   1.020   5.977   4.848  0.2090  0.1001 -0.1409
 7485TIP3    H143946   0.957   5.905   4.844 -0.1198  0.1858  2.2094
 7485TIP3    H243947   1.105   5.936   4.828 -0.3779 -0.2101 -2.2846
 7486TIP3   OH243948   1.909   5.188  15.449  0.4929 -0.2533 -0.2406
 7486TIP3    H143949   1.921   5.282  15.444 -0.7242  0.2617  3.4962
 7486TIP3    H243950   1.856   5.166  15.372 -2.4017  2.8272  0.6496
 7487TIP3   OH243951   5.197   6.369  17.118  0.3909  0.5800 -0.3341
 7487TIP3    H143952   5.107   6.393  17.099 -0.6033 -1.8088  0.8461
 7487TIP3    H243953   5.219   6.303  17.052  0.9862  0.5915 -0.1583
 7488TIP3   OH243954   0.238   3.374  12.398  0.3778 -0.3446 -0.3237
 7488TIP3    H143955   0.214   3.467  12.406 -0.6932 -0.4197 -2.0042
 7488TIP3    H243956   0.224   3.338  12.485  1.0528  1.1090  0.4282
 7489TIP3   OH243957   5.607   6.747  17.223  0.7707 -0.1492  0.0395
 7489TIP3    H143958   5.607   6.656  17.195  2.2102  0.2184 -1.2420
 7489TIP3    H243959   5.693   6.780  17.200 -0.6562  2.3523 -2.2919
 7490TIP3   OH243960   6.289   2.269   4.220  0.0266 -0.0993  0.3011
 7490TIP3    H143961   6.346   2.343   4.199 -1.1965  1.2539  1.5338
 7490TIP3    H243962   6.293   2.213   4.142 -0.3432  2.1119 -1.4151
 7491TIP3   OH243963   4.706   0.556  13.510  0.3845  0.1998 -0.1756
 7491TIP3    H143964   4.790   0.572  13.466 -0.5957  1.6762 -1.6367
 7491TIP3    H243965   4.688   0.636  13.558  0.8859 -0.9897  2.1456
 7492TIP3   OH243966   6.597   5.828  15.860  0.0249  0.1902 -0.0646
 7492TIP3    H143967   6.683   5.790  15.878  1.1009  1.9166 -1.2479
 7492TIP3    H243968   6.604   5.863  15.771 -2.0840 -0.0489 -0.3844
 7493TIP3   OH243969   5.538   2.715   4.873  0.0550 -0.0359  0.0426
 7493TIP3    H143970   5.567   2.803   4.852 -1.1133  0.5604  0.8273
 7493TIP3    H243971   5.548   2.666   4.791 -0.3053  1.0904 -0.6934
 7494TIP3   OH243972   3.359   1.701  16.199  0.3351  0.1013 -0.1235
 7494TIP3    H143973   3.276   1.698  16.247 -0.2814  1.1703 -1.0627
 7494TIP3    H243974   3.335   1.736  16.113  1.6633 -0.2144 -0.6429
 7495TIP3   OH243975   4.460   0.784  12.658 -0.4997 -0.4356 -0.1736
 7495TIP3    H143976   4.436   0.787  12.565 -1.2729 -1.1178 -0.0113
 7495TIP3    H243977   4.477   0.691  12.675 -0.5298 -0.3380  0.4059
 7496TIP3   OH243978   4.952   4.792  15.826 -0.3197  0.2668 -0.3289
 7496TIP3    H143979   4.871   4.826  15.864 -0.0545  1.5789 -0.9028
 7496TIP3    H243980   4.959   4.835  15.741  1.4445  0.8782  0.0931
 7497TIP3   OH243981   4.271   2.573  14.771 -0.5319 -0.3473  0.5364
 7497TIP3    H143982   4.281   2.493  14.719 -1.6339 -1.3489  1.7723
 7497TIP3    H243983   4.181   2.601  14.755 -1.8256 -2.1577  3.7497
 7498TIP3   OH243984   4.476   2.390   5.864  0.4661 -0.0517  0.2267
 7498TIP3    H143985   4.388   2.411   5.831  0.6553  0.8644  0.2782
 7498TIP3    H243986   4.465   2.379   5.958  0.6453  1.5716  0.4662
 7499TIP3   OH243987   1.618   3.206  12.469 -0.2774 -0.2683  0.3070
 7499TIP3    H143988   1.657   3.193  12.383  1.2610 -0.5101  1.0050
 7499TIP3    H243989   1.557   3.134  12.480 -1.3477  0.4101 -1.0362
 7500TIP3   OH243990   0.890   1.072   4.157 -0.1119 -0.1010 -0.0000
 7500TIP3    H143991   0.943   1.068   4.237 -1.1885 -0.6857  0.6969
 7500TIP3    H243992   0.813   1.123   4.181 -1.5209 -2.1047  0.0030
 7501TIP3   OH243993   2.253   2.566   3.203 -0.0541 -0.6909 -0.1991
 7501TIP3    H143994   2.188   2.497   3.216 -2.0318  1.1377  0.1167
 7501TIP3    H243995   2.256   2.612   3.287 -1.3162  1.6342 -1.3380
 7502TIP3   OH243996   5.609   0.765  14.967 -0.1199 -0.3045  0.4332
 7502TIP3    H143997   5.552   0.694  14.938 -0.0603 -0.4019  0.5528
 7502TIP3    H243998   5.698   0.733  14.948  0.0538 -1.2644  2.6394
 7503TIP3   OH243999   1.517   3.641   3.315  0.2747  0.3170 -0.1656
 7503TIP3    H144000   1.536   3.725   3.272 -2.0274  1.3887  0.7201
 7503TIP3    H244001   1.433   3.655   3.359 -0.1150 -2.4330  0.1582
 7504TIP3   OH244002   0.437   5.741   0.460 -0.3073  0.2141 -0.0129
 7504TIP3    H144003   0.345   5.730   0.483 -0.3166 -1.1009 -0.5558
 7504TIP3    H244004   0.437   5.749   0.365 -0.1407  4.0010  0.1748
 7505TIP3   OH244005   2.291   2.568   4.668  0.5318 -0.6521 -0.1892
 7505TIP3    H144006   2.370   2.592   4.717  0.6176  0.7341 -0.9841
 7505TIP3    H244007   2.324   2.517   4.593  0.4559 -2.1064  0.7113
 7506TIP3   OH244008   1.835   6.543   2.544  0.6844  0.1114  0.2281
 7506TIP3    H144009   1.870   6.456   2.527  2.6673  0.4169  2.2380
 7506TIP3    H244010   1.872   6.598   2.475  1.0258 -0.3018  0.0819
 7507TIP3   OH244011   3.718   2.226  14.810  0.2166  0.0688  0.1311
 7507TIP3    H144012   3.716   2.319  14.788  1.2607  0.4980  1.6600
 7507TIP3    H244013   3.809   2.199  14.795  0.5701 -0.0233  2.0630
 7508TIP3   OH244014   1.355   0.366  15.171  1.0265  0.4773  0.1450
 7508TIP3    H144015   1.445   0.374  15.140  1.0503 -0.7077 -0.1650
 7508TIP3    H244016   1.311   0.312  15.105  0.1401  0.8576  0.3971
 7509TIP3   OH244017   6.630   0.048  14.279 -0.0165 -0.0972  0.0308
 7509TIP3    H144018   6.667  -0.028  14.233  1.4649  0.4083  0.3381
 7509TIP3    H244019   6.643   0.028  14.372 -0.1251  0.2906  0.1314
 7510TIP3   OH244020   0.127   3.324   2.899  0.3710  0.0585 -0.0026
 7510TIP3    H144021   0.104   3.412   2.930 -0.9509 -0.4122  0.4100
 7510TIP3    H244022   0.210   3.305   2.943 -0.3978  0.2578  1.6496
 7511TIP3   OH244023   6.617   0.191   4.965  0.5602 -0.0022  0.1925
 7511TIP3    H144024   6.552   0.255   4.937 -1.0840 -1.8165 -0.3045
 7511TIP3    H244025   6.695   0.212   4.914 -0.4843  0.5549 -1.2263
 7512TIP3   OH244026   1.110   3.994  15.764  0.0146  0.0092  0.3414
 7512TIP3    H144027   1.059   4.009  15.844  1.6251 -1.3987  1.7325
 7512TIP3    H244028   1.128   4.082  15.730 -1.6421  0.5930  0.8740
 7513TIP3   OH244029   4.264   1.270   3.058 -0.1954  0.0633  0.1721
 7513TIP3    H144030   4.214   1.260   2.977  0.2335 -0.8774  0.0180
 7513TIP3    H244031   4.209   1.327   3.113 -1.7867 -1.4999  0.2777
 7514TIP3   OH244032   4.330   4.926  12.064 -0.2002 -0.4281 -0.8344
 7514TIP3    H144033   4.246   4.882  12.052 -0.1776 -0.7901  0.2046
 7514TIP3    H244034   4.395   4.861  12.036 -0.2237 -0.6078 -0.4857
 7515TIP3   OH244035   4.957   2.872   3.095  0.0449 -0.3681 -0.1147
 7515TIP3    H144036   4.869   2.839   3.114  0.0538  0.3257  1.2378
 7515TIP3    H244037   5.016   2.806   3.132  0.0696  0.1032  0.7122
 7516TIP3   OH244038   5.435   3.865   4.808  0.3950  0.7829  0.2217
 7516TIP3    H144039   5.508   3.809   4.833  0.6730  0.8199 -0.4860
 7516TIP3    H244040   5.474   3.950   4.792  0.0786  1.0007  0.5871
 7517TIP3   OH244041   3.010   0.100  16.136 -0.2032 -0.2478 -0.0871
 7517TIP3    H144042   3.072   0.100  16.210  0.1084 -1.2847 -0.3224
 7517TIP3    H244043   2.995   0.192  16.117  1.4550  0.0333 -0.1669
 7518TIP3   OH244044   0.622   2.317  15.359  0.1584 -0.3103  0.3990
 7518TIP3    H144045   0.527   2.320  15.358  0.1185 -1.2825 -0.7222
 7518TIP3    H244046   0.646   2.350  15.445 -1.1357  1.0514  0.2835
 7519TIP3   OH244047   6.550   2.781   5.448  0.1527 -0.1226 -0.5180
 7519TIP3    H144048   6.514   2.868   5.465  0.6706 -0.1870  1.0154
 7519TIP3    H244049   6.628   2.797   5.395  0.2042  0.3483 -0.3052
 7520TIP3   OH244050   6.345   5.160   1.436 -0.4823 -0.0005  0.3191
 7520TIP3    H144051   6.424   5.178   1.487 -0.1409  1.6909 -0.7275
 7520TIP3    H244052   6.275   5.203   1.486 -0.9297 -2.0877  1.6172
 7521TIP3   OH244053   6.724   5.079   2.352 -0.0156  0.2060 -0.1515
 7521TIP3    H144054   6.643   5.033   2.377 -0.3174  0.5117 -0.5539
 7521TIP3    H244055   6.702   5.123   2.270  0.6396  0.0990 -0.3847
 7522TIP3   OH244056   5.505   3.727  12.889  0.7984 -0.0522  0.3035
 7522TIP3    H144057   5.595   3.716  12.857 -0.3879 -2.5039 -2.6910
 7522TIP3    H244058   5.482   3.816  12.864  1.6050 -0.2436 -1.2795
 7523TIP3   OH244059   2.901   2.835  16.422 -0.0522  0.4030 -0.1605
 7523TIP3    H144060   2.996   2.842  16.414 -0.1655  0.8249 -1.4989
 7523TIP3    H244061   2.876   2.911  16.475  0.5042 -0.7748  1.8833
 7524TIP3   OH244062   0.236   5.962   0.545  0.1196  0.0577 -0.6260
 7524TIP3    H144063   0.147   5.933   0.527  0.1150 -1.8473  1.8668
 7524TIP3    H244064   0.292   5.902   0.496  0.0215 -1.5516  1.1121
 7525TIP3   OH244065   6.670   4.901  16.967  0.4774 -0.1756 -0.0740
 7525TIP3    H144066   6.728   4.850  17.023  0.0863  0.0512  0.5486
 7525TIP3    H244067   6.728   4.958  16.917  1.0311 -1.9474 -1.5719
 7526TIP3   OH244068   0.456   2.690  16.817 -0.3729 -0.0092  0.3525
 7526TIP3    H144069   0.458   2.738  16.900  0.2789 -0.7471  0.7840
 7526TIP3    H244070   0.498   2.749  16.754 -1.7540  0.9590  0.3106
 7527TIP3   OH244071   4.242   3.396   3.286  0.2469  0.3216  0.4775
 7527TIP3    H144072   4.149   3.386   3.303  0.2303  2.1376  1.7311
 7527TIP3    H244073   4.248   3.407   3.191 -0.7586 -0.1826  0.3417
 7528TIP3   OH244074   3.223   0.825   1.962  0.2745  0.2554  0.2611
 7528TIP3    H144075   3.246   0.871   1.882 -0.2966  1.0008  0.5055
 7528TIP3    H244076   3.240   0.733   1.943 -1.4816  0.2027 -1.3336
 7529TIP3   OH244077   1.698   0.889  12.682  0.1796  0.0540  0.3157
 7529TIP3    H144078   1.650   0.820  12.638 -0.1781 -0.0652  0.8846
 7529TIP3    H244079   1.668   0.970  12.640 -0.9915  0.0356  1.0795
 7530TIP3   OH244080   5.669   2.785  17.399  0.0800  0.4368 -0.1514
 7530TIP3    H144081   5.617   2.854  17.358 -0.9820  0.5350  1.2814
 7530TIP3    H244082   5.759   2.807  17.379 -0.2808  1.8910 -0.2591
 7531TIP3   OH244083   1.771   5.368  11.771 -0.3544  0.1526  0.3219
 7531TIP3    H144084   1.773   5.450  11.821 -2.2635  0.5668 -0.2089
 7531TIP3    H244085   1.829   5.384  11.697 -1.2881  1.3314 -0.1845
 7532TIP3   OH244086   2.801   3.551  15.980 -0.1211  0.0622  0.1883
 7532TIP3    H144087   2.807   3.639  15.944 -1.3048  0.8631  1.8038
 7532TIP3    H244088   2.751   3.502  15.915  1.7885  0.1218 -1.4180
 7533TIP3   OH244089   0.908   1.976   4.541  0.1445  0.3374 -0.0928
 7533TIP3    H144090   0.865   1.897   4.572 -1.0161  0.5007 -1.1858
 7533TIP3    H244091   0.951   2.013   4.618  0.9134 -1.4582  0.3880
 7534TIP3   OH244092   4.502   5.462  12.262  0.3329  0.2064 -0.7042
 7534TIP3    H144093   4.516   5.371  12.235  1.4393 -0.0949  0.7591
 7534TIP3    H244094   4.415   5.484  12.228  0.1915 -1.2852 -1.3783
 7535TIP3   OH244095   4.911   6.500  16.146 -0.0710 -0.6142 -0.0067
 7535TIP3    H144096   4.900   6.521  16.053  0.1086 -2.0565 -0.3797
 7535TIP3    H244097   4.880   6.579  16.192 -0.1462  0.1280 -1.2774
 7536TIP3   OH244098   3.447   5.168  14.851  0.1514 -0.7505 -0.1450
 7536TIP3    H144099   3.537   5.182  14.819  0.6934 -0.7695  1.3150
 7536TIP3    H244100   3.421   5.252  14.888  0.4464 -1.3298  1.4761
 7537TIP3   OH244101   1.962   3.660  12.503  0.2098 -0.0508  0.3701
 7537TIP3    H144102   2.017   3.720  12.453  0.8562  0.4344  1.6320
 7537TIP3    H244103   1.962   3.696  12.592 -0.2883 -1.3176  0.9016
 7538TIP3   OH244104   0.567   5.307  14.717 -0.2800 -0.0010 -0.0302
 7538TIP3    H144105   0.649   5.271  14.685 -0.9376 -1.3191 -0.3248
 7538TIP3    H244106   0.555   5.268  14.803 -2.4771 -3.1514 -1.5301
 7539TIP3   OH244107   0.537   3.693  15.737  0.1646  0.1708 -0.2810
 7539TIP3    H144108   0.605   3.737  15.686  2.2475 -0.0078  2.1161
 7539TIP3    H244109   0.542   3.601  15.710  0.3456  0.2974 -0.6734
 7540TIP3   OH244110   3.709   5.101   3.777  0.2676  0.3100  0.0748
 7540TIP3    H144111   3.743   5.126   3.691 -1.6848 -0.0355 -0.8490
 7540TIP3    H244112   3.629   5.153   3.787 -0.2974 -0.7083  1.0325
 7541TIP3   OH244113   1.200   4.138  11.280  0.3381  0.9881 -0.0776
 7541TIP3    H144114   1.220   4.047  11.300 -1.0864  0.5751 -0.3852
 7541TIP3    H244115   1.235   4.152  11.192  0.2875  0.6437 -0.1523
 7542TIP3   OH244116   1.431   3.896   1.476  0.2845 -0.5209 -0.5425
 7542TIP3    H144117   1.390   3.855   1.553 -0.7796  3.0266  0.9740
 7542TIP3    H244118   1.525   3.898   1.498  0.1349 -0.5887  0.1392
 7543TIP3   OH244119   4.229   2.649  16.498  0.1853  0.0951  0.0167
 7543TIP3    H144120   4.264   2.718  16.441 -1.0628  0.8244  0.0894
 7543TIP3    H244121   4.170   2.600  16.441 -0.8419  0.6451  0.5800
 7544TIP3   OH244122   3.002   2.991   2.690  0.6595  0.0235  0.3411
 7544TIP3    H144123   3.065   3.023   2.626  0.1414 -2.6302 -1.6507
 7544TIP3    H244124   3.042   3.011   2.775  2.8823  0.7968 -0.8152
 7545TIP3   OH244125   0.789   0.397   0.243 -0.0188  0.1747  0.4005
 7545TIP3    H144126   0.817   0.484   0.216 -0.3837  0.2948  0.4146
 7545TIP3    H244127   0.866   0.360   0.286  0.2504  0.3535  0.0771
 7546TIP3   OH244128   5.413   3.968   2.740  0.2148 -0.0723  0.2004
 7546TIP3    H144129   5.430   3.896   2.679  0.7451  0.0949  0.1478
 7546TIP3    H244130   5.337   3.939   2.791 -0.9287  0.2082 -1.2364
 7547TIP3   OH244131   6.003   0.367  14.089 -0.9566  0.8113 -0.0383
 7547TIP3    H144132   5.914   0.332  14.084 -0.5131 -0.1546 -2.0911
 7547TIP3    H244133   5.996   0.455  14.051 -1.3056  1.4191  1.3588
 7548TIP3   OH244134   3.038   2.157  16.587  0.1582  0.3158 -0.1644
 7548TIP3    H144135   3.031   2.207  16.506 -2.9317  0.8141  0.3220
 7548TIP3    H244136   2.986   2.078  16.571  2.0684 -1.1140  0.3250
 7549TIP3   OH244137   1.777   2.386   2.134  0.2809 -0.8832  0.4085
 7549TIP3    H144138   1.687   2.411   2.115 -0.3147 -1.5299  2.1532
 7549TIP3    H244139   1.787   2.300   2.093 -0.5582 -1.6771  1.7824
 7550TIP3   OH244140   6.594   4.891  14.262  0.1429  0.4684  0.6837
 7550TIP3    H144141   6.649   4.839  14.204  1.1663 -0.5741  2.4817
 7550TIP3    H244142   6.533   4.937  14.204  0.0832 -1.6987 -1.0774
 7551TIP3   OH244143   5.156   2.301  17.030  0.1199  0.4340 -0.4599
 7551TIP3    H144144   5.163   2.287  17.124 -0.5069 -2.3304 -0.7331
 7551TIP3    H244145   5.192   2.389  17.016 -0.9443  1.4703  2.4642
 7552TIP3   OH244146   0.817   4.697  13.618 -0.0845 -0.1598 -0.2007
 7552TIP3    H144147   0.857   4.679  13.533  0.1116  0.6485 -0.2842
 7552TIP3    H244148   0.872   4.650  13.680  0.0179 -0.4109 -0.4768
 7553TIP3   OH244149   2.190   4.633  12.638 -0.2604 -0.4403 -0.4014
 7553TIP3    H144150   2.103   4.622  12.602 -0.4572 -1.5808  0.3661
 7553TIP3    H244151   2.207   4.728  12.633 -0.7679 -0.4193 -2.2489
 7554TIP3   OH244152   0.699   0.673  15.383 -0.0212 -0.0565 -0.5362
 7554TIP3    H144153   0.708   0.687  15.477 -1.9171  0.2397 -0.3630
 7554TIP3    H244154   0.789   0.679  15.349  0.5029  1.5519  0.9984
 7555TIP3   OH244155   5.256   0.388   3.964 -0.1412  0.2462  0.1382
 7555TIP3    H144156   5.164   0.369   3.982 -0.8797  3.0022 -0.3400
 7555TIP3    H244157   5.281   0.450   4.032  1.4829 -0.6292  0.3870
 7556TIP3   OH244158   6.408   4.456  14.323  0.1312 -0.0715 -0.0666
 7556TIP3    H144159   6.475   4.467  14.256  0.8410 -0.6138  0.5354
 7556TIP3    H244160   6.369   4.543  14.333  1.3263  0.4544  0.1795
 7557TIP3   OH244161   0.044   5.168   3.396 -0.2331  0.0115  0.0985
 7557TIP3    H144162   0.070   5.121   3.317  0.4941  1.6842 -0.7218
 7557TIP3    H244163  -0.046   5.195   3.379 -0.1556  0.1694 -0.0715
 7558TIP3   OH244164   6.384   0.793  12.328  0.0673 -0.0021  0.3091
 7558TIP3    H144165   6.359   0.885  12.341  0.0780  0.0841 -0.2589
 7558TIP3    H244166   6.347   0.747  12.403  0.1228  0.4803  0.6336
 7559TIP3   OH244167   6.240   6.121   5.437  0.0497  0.6182  0.4757
 7559TIP3    H144168   6.181   6.049   5.458 -0.0921  0.6940  0.3325
 7559TIP3    H244169   6.245   6.173   5.518  0.1296  0.4643  0.5696
 7560TIP3   OH244170   3.303   0.205  14.162  0.0938 -0.3112 -0.0189
 7560TIP3    H144171   3.215   0.227  14.132  0.5415  1.3124 -0.2653
 7560TIP3    H244172   3.361   0.233  14.091  0.8987  0.0354  0.7508
 7561TIP3   OH244173   5.288   0.243  14.652 -0.0071  0.1535  0.0919
 7561TIP3    H144174   5.279   0.314  14.716 -0.7937 -0.3454  0.5523
 7561TIP3    H244175   5.371   0.201  14.675 -1.7011 -1.9753  2.8425
 7562TIP3   OH244176   0.744   6.322  11.942 -0.6298  0.1868 -0.1780
 7562TIP3    H144177   0.691   6.271  11.880  1.9048 -2.0397 -0.6805
 7562TIP3    H244178   0.772   6.259  12.008 -0.6500  1.8567  1.5102
 7563TIP3   OH244179   4.214   3.901   4.223 -0.0691  0.3864  0.3579
 7563TIP3    H144180   4.175   3.954   4.292 -0.0442  1.5274 -0.4826
 7563TIP3    H244181   4.306   3.891   4.249  0.1048  1.3935  0.1448
 7564TIP3   OH244182   3.120   0.474   1.971  0.3332  0.6189 -0.2897
 7564TIP3    H144183   3.157   0.463   1.883  0.7290 -1.9470  0.1372
 7564TIP3    H244184   3.187   0.523   2.019  2.3341 -1.9756 -0.1833
 7565TIP3   OH244185   3.561   6.658   3.578  0.4466 -0.3196  0.2146
 7565TIP3    H144186   3.544   6.673   3.485  1.3384 -0.5280  0.0028
 7565TIP3    H244187   3.542   6.742   3.620  0.5673 -0.0618 -0.2386
 7566TIP3   OH244188   5.928   1.118   3.698 -0.1031 -0.0756  0.0490
 7566TIP3    H144189   5.960   1.202   3.729 -1.7525  0.5795  0.0846
 7566TIP3    H244190   5.833   1.122   3.711 -0.3313 -1.5407 -0.8970
 7567TIP3   OH244191   3.549   0.695   2.639 -0.6711  0.2248 -0.2483
 7567TIP3    H144192   3.465   0.654   2.617 -0.6091  1.1784 -2.5419
 7567TIP3    H244193   3.532   0.789   2.634  0.6735  0.4334 -1.5097
 7568TIP3   OH244194   0.671   0.822  16.580 -0.1988  0.2606 -0.6210
 7568TIP3    H144195   0.599   0.792  16.525 -1.1416 -0.2671  0.8419
 7568TIP3    H244196   0.667   0.766  16.657  1.1095  0.9406 -0.0252
 7569TIP3   OH244197   5.361   4.829  11.937  0.1038 -0.0907 -0.2706
 7569TIP3    H144198   5.451   4.837  11.967 -0.3349 -0.3333  1.2144
 7569TIP3    H244199   5.321   4.913  11.960 -0.5430 -0.7053  0.9639
 7570TIP3   OH244200   5.645   0.565  16.956  0.6997  0.4208 -0.1497
 7570TIP3    H144201   5.667   0.479  16.921  1.6920  0.5652  0.0984
 7570TIP3    H244202   5.601   0.610  16.883 -0.0666 -0.3728 -0.1981
 7571TIP3   OH244203   4.276   3.231  14.065  0.5066 -0.2726  0.0287
 7571TIP3    H144204   4.184   3.214  14.085  0.2131 -0.0137 -1.0221
 7571TIP3    H244205   4.278   3.323  14.038  1.0779 -0.2660  0.0877
 7572TIP3   OH244206   0.933   6.289   2.023  0.2919  0.1743 -0.2309
 7572TIP3    H144207   0.904   6.206   1.986 -2.2285  1.5206 -1.5283
 7572TIP3    H244208   1.028   6.282   2.028  0.1155 -2.9801  0.2904
 7573TIP3   OH244209   2.365   5.186  15.693 -0.4497  0.4627  0.8153
 7573TIP3    H144210   2.291   5.165  15.637 -0.3236 -0.3142  0.9312
 7573TIP3    H244211   2.332   5.178  15.782 -0.1744 -0.1324  0.8728
 7574TIP3   OH244212   2.197   2.281  13.136 -0.8852 -0.0259  0.6861
 7574TIP3    H144213   2.125   2.223  13.113 -1.1423  0.4445  0.3084
 7574TIP3    H244214   2.226   2.248  13.222 -0.4269 -1.2831  0.0824
 7575TIP3   OH244215   1.299   2.207   0.500  0.5056  0.5946 -0.2687
 7575TIP3    H144216   1.356   2.152   0.552  0.7460  0.0929 -1.0440
 7575TIP3    H244217   1.298   2.291   0.546 -0.2082 -0.1615  1.1587
 7576TIP3   OH244218   4.366   2.431  16.920 -0.7317 -0.1888  0.0461
 7576TIP3    H144219   4.414   2.349  16.936  0.2356  0.4133  0.2935
 7576TIP3    H244220   4.366   2.440  16.825 -0.3107 -0.1795  0.0435
 7577TIP3   OH244221   3.433   4.487   2.090  0.0788  0.2237 -0.0979
 7577TIP3    H144222   3.452   4.393   2.093 -0.6979  0.0727  0.5209
 7577TIP3    H244223   3.367   4.500   2.158 -0.4951  1.0616 -0.7899
 7578TIP3   OH244224   4.079   3.416   6.950 -0.5928 -0.4849 -0.3847
 7578TIP3    H144225   4.101   3.325   6.931 -2.3604 -0.9205 -0.4840
 7578TIP3    H244226   3.987   3.414   6.974 -0.1740  1.0232  1.5474
 7579TIP3   OH244227   5.103   2.875  12.226  0.1246  0.0447  0.1255
 7579TIP3    H144228   5.097   2.961  12.269 -3.0263 -0.2078  0.4304
 7579TIP3    H244229   5.074   2.813  12.293 -0.0592 -0.9639 -0.8690
 7580TIP3   OH244230   1.106   2.016  13.087 -0.1673  0.3056 -0.3864
 7580TIP3    H144231   1.180   2.061  13.128  0.7620 -0.2767 -1.3718
 7580TIP3    H244232   1.113   2.038  12.994  0.3704 -1.8795 -0.9246
 7581TIP3   OH244233   2.057   0.109  14.231 -0.7152 -0.0651  0.4470
 7581TIP3    H144234   2.052   0.046  14.159  1.5360 -0.3429  0.4569
 7581TIP3    H244235   2.079   0.056  14.308  1.1615  0.6638  0.4680
 7582TIP3   OH244236   1.705   3.517  15.287 -0.3466 -0.1982 -0.1123
 7582TIP3    H144237   1.765   3.551  15.354  0.4935  0.3359 -1.0970
 7582TIP3    H244238   1.718   3.422  15.289 -0.1182 -0.1628  0.2822
 7583TIP3   OH244239   3.074   2.949   2.984 -0.0329  0.2424  0.2544
 7583TIP3    H144240   3.140   2.916   3.046 -0.5780  0.6683  1.0891
 7583TIP3    H244241   2.992   2.909   3.013 -0.2667  0.3039 -0.3153
 7584TIP3   OH244242   6.377   5.003  14.643 -0.0276  0.2460  0.5909
 7584TIP3    H144243   6.292   5.048  14.646  0.6897  1.6376  2.6872
 7584TIP3    H244244   6.429   5.053  14.580 -0.7112 -0.5723 -0.6503
 7585TIP3   OH244245   3.990   5.738  14.152  0.3005 -0.3109  0.0946
 7585TIP3    H144246   4.079   5.724  14.118  0.4702  0.9252 -0.0401
 7585TIP3    H244247   3.936   5.750  14.074  0.1146 -0.5063  0.1913
 7586TIP3   OH244248   4.021   3.071  12.913  0.0051 -0.1228  0.1461
 7586TIP3    H144249   3.959   3.125  12.864  1.1496  0.2299 -0.9765
 7586TIP3    H244250   4.103   3.079  12.864  0.8687 -0.7968  1.4359
 7587TIP3   OH244251   5.265   4.188   4.199 -0.3264  0.4641 -0.1778
 7587TIP3    H144252   5.359   4.193   4.215 -0.3396  1.2670 -0.2985
 7587TIP3    H244253   5.254   4.223   4.110 -0.6840 -0.1474 -0.3805
 7588TIP3   OH244254   0.950   2.420  13.773  0.9483 -0.6200  0.3581
 7588TIP3    H144255   0.868   2.387  13.809  0.9632 -1.6978 -0.5225
 7588TIP3    H244256   0.933   2.512  13.754  0.3077 -0.5584  1.2043
 7589TIP3   OH244257   2.980   1.310  12.773  0.0851  0.1118 -0.1367
 7589TIP3    H144258   3.005   1.397  12.802 -0.9799  0.5785 -0.5540
 7589TIP3    H244259   2.893   1.297  12.811  0.3059 -0.8404  0.0635
 7590TIP3   OH244260   1.771   1.791  11.091  0.8810 -0.5020  0.2088
 7590TIP3    H144261   1.744   1.760  11.004 -0.8513 -1.5829  1.0898
 7590TIP3    H244262   1.811   1.877  11.073 -1.3862  0.3331 -1.4710
 7591TIP3   OH244263   5.909   4.724  14.447 -0.1855 -0.1046  0.8596
 7591TIP3    H144264   5.866   4.806  14.472 -0.2982  0.7314 -1.7559
 7591TIP3    H244265   5.837   4.665  14.426 -0.1483  0.4488 -1.0011
 7592TIP3   OH244266   1.627   0.156  16.256  0.0219  0.1992  0.0234
 7592TIP3    H144267   1.692   0.200  16.201  1.1862  0.1980  1.3421
 7592TIP3    H244268   1.602   0.079  16.206  1.1816  0.1068 -0.4545
 7593TIP3   OH244269   2.526   2.651   1.525  0.3074 -0.6498  0.0214
 7593TIP3    H144270   2.557   2.588   1.460  1.4955  0.5303 -0.6196
 7593TIP3    H244271   2.431   2.652   1.514  0.3051 -2.0262 -0.2198
 7594TIP3   OH244272   2.737   4.386   0.677 -0.3246 -0.2275  0.6748
 7594TIP3    H144273   2.644   4.410   0.673 -0.2810 -0.0486  0.7725
 7594TIP3    H244274   2.761   4.396   0.769  0.0720  0.7559  0.4724
 7595TIP3   OH244275   2.918   4.757  16.028 -0.8915 -0.2281  0.3876
 7595TIP3    H144276   2.896   4.768  16.120  0.6580  1.0728  0.6528
 7595TIP3    H244277   3.014   4.758  16.026 -0.8926 -0.3947 -1.2271
 7596TIP3   OH244278   5.864   2.402   3.682  0.4722 -0.4324 -1.1089
 7596TIP3    H144279   5.917   2.338   3.633  1.7642 -0.2228 -0.0392
 7596TIP3    H244280   5.928   2.452   3.733 -0.7044  0.3856 -0.3928
 7597TIP3   OH244281   5.414   6.129   5.791  0.2635  0.2203  0.0013
 7597TIP3    H144282   5.326   6.090   5.789  0.2159  0.3374 -2.0514
 7597TIP3    H244283   5.414   6.183   5.870 -0.9186 -1.0812  0.9463
 7598TIP3   OH244284   2.383   5.909  16.874  0.1621 -0.4724  0.3431
 7598TIP3    H144285   2.473   5.879  16.884  0.3524 -1.2235 -2.6811
 7598TIP3    H244286   2.391   6.003  16.861  1.2951 -1.0186 -5.1979
 7599TIP3   OH244287   3.636   0.994  17.443  0.3770 -0.1577 -0.1729
 7599TIP3    H144288   3.682   0.913  17.465 -2.2458 -2.1008 -1.3423
 7599TIP3    H244289   3.621   0.989  17.349 -3.1312 -0.2729  0.2508
 7600TIP3   OH244290   2.734   1.179  13.857 -0.4213  0.8581 -0.1343
 7600TIP3    H144291   2.657   1.210  13.905 -0.1896  0.6661  0.3717
 7600TIP3    H244292   2.773   1.113  13.915  0.4989  1.4278 -0.0915
 7601TIP3   OH244293   3.932   5.397  11.198  0.3503  0.3294 -0.3516
 7601TIP3    H144294   3.942   5.386  11.103  1.7252 -1.4339 -0.0498
 7601TIP3    H244295   4.000   5.460  11.222 -0.9212  1.9144 -0.6692
 7602TIP3   OH244296   1.602   5.344  15.347  0.5495 -0.8571 -0.0303
 7602TIP3    H144297   1.650   5.379  15.272  0.0719 -0.4704 -0.1626
 7602TIP3    H244298   1.511   5.336  15.316  0.6509 -2.2437 -0.0123
 7603TIP3   OH244299   1.830   2.648   2.898  0.6683  0.7651 -0.6697
 7603TIP3    H144300   1.915   2.683   2.928  0.5491  0.7025 -0.2455
 7603TIP3    H244301   1.811   2.578   2.960  1.5328 -0.9731 -2.2542
 7604TIP3   OH244302   6.125   2.607  13.836  0.4535  0.3850  0.3846
 7604TIP3    H144303   6.136   2.532  13.894  1.1359  1.1509  1.2802
 7604TIP3    H244304   6.044   2.590  13.789 -0.4873  0.0563  2.0573
 7605TIP3   OH244305   1.579   0.270  10.875  0.2675 -0.6045  0.1841
 7605TIP3    H144306   1.534   0.355  10.875  0.2451 -0.6166  0.4457
 7605TIP3    H244307   1.517   0.210  10.832  0.9853 -0.1237 -1.6128
 7606TIP3   OH244308   4.854   1.367   2.611  0.5440  0.7636 -0.5686
 7606TIP3    H144309   4.788   1.300   2.627  1.3976 -0.2747 -1.2549
 7606TIP3    H244310   4.823   1.443   2.660 -0.1286 -0.3186  0.7679
 7607TIP3   OH244311   0.726   5.592  15.830  0.2778  0.5195  0.4743
 7607TIP3    H144312   0.759   5.628  15.748  0.3710  0.9025  0.6766
 7607TIP3    H244313   0.745   5.660  15.895 -0.8774  0.7481  0.5987
 7608TIP3   OH244314   3.580   4.470   4.670  0.3514  0.2150 -0.1968
 7608TIP3    H144315   3.552   4.544   4.725 -0.9227 -0.4200  0.0488
 7608TIP3    H244316   3.578   4.505   4.581  1.4704  0.9680  0.0497
 7609TIP3   OH244317   1.214   4.849  15.475  0.0118 -0.5366 -1.0915
 7609TIP3    H144318   1.169   4.813  15.551  1.5210  1.5106  0.9176
 7609TIP3    H244319   1.280   4.783  15.453  1.4164 -0.0592  1.2595
 7610TIP3   OH244320   1.848   1.969   0.215 -0.3200 -0.0713  0.3654
 7610TIP3    H144321   1.827   2.062   0.224 -0.7557  0.0865 -1.6998
 7610TIP3    H244322   1.939   1.961   0.243 -0.6748  0.6960  1.8560
 7611TIP3   OH244323   4.012   0.681  12.963 -0.2760 -0.0758  0.1560
 7611TIP3    H144324   3.946   0.628  12.918  0.8288 -1.4658  0.0819
 7611TIP3    H244325   4.056   0.729  12.893  0.2309 -0.8432 -0.0682
 7612TIP3   OH244326   5.339   6.040  15.846 -0.1287  0.1309  0.2364
 7612TIP3    H144327   5.252   6.038  15.887 -0.6480 -1.0187 -0.8585
 7612TIP3    H244328   5.339   5.964  15.787  2.1773 -0.7809  1.3081
 7613TIP3   OH244329   3.451   2.773  15.295 -0.9227  0.5990  0.4444
 7613TIP3    H144330   3.518   2.721  15.338 -1.0023 -0.8364 -1.0367
 7613TIP3    H244331   3.499   2.844  15.251 -0.3922 -0.1471 -0.2187
 7614TIP3   OH244332   1.101   5.119  16.230  0.0246 -0.3822 -0.1062
 7614TIP3    H144333   1.191   5.150  16.243 -0.2250  1.2256 -1.8531
 7614TIP3    H244334   1.052   5.197  16.205 -1.9030 -1.2261  0.8030
 7615TIP3   OH244335   0.095   5.597   0.302 -0.0948  0.5835 -0.2153
 7615TIP3    H144336   0.173   5.554   0.267  0.0598  2.7024 -2.7846
 7615TIP3    H244337   0.119   5.622   0.391  1.9853  0.7568 -0.7834
 7616TIP3   OH244338   2.700   1.299  13.388 -0.0586 -0.0600  1.1192
 7616TIP3    H144339   2.730   1.328  13.474  0.3592 -1.6692  1.5563
 7616TIP3    H244340   2.658   1.215  13.405  0.0358 -0.4058 -0.2484
 7617TIP3   OH244341   2.605   5.392  14.862 -0.4567  0.1939  0.2349
 7617TIP3    H144342   2.695   5.423  14.871 -0.3937  0.0065  0.2586
 7617TIP3    H244343   2.576   5.377  14.952 -0.5272  0.2972  0.2290
 7618TIP3   OH244344   2.419   4.384  16.391 -0.3038 -0.2457 -0.2984
 7618TIP3    H144345   2.419   4.468  16.437 -1.8653 -0.9043  0.9674
 7618TIP3    H244346   2.426   4.318  16.460  0.0373 -1.2042 -1.2133
 7619TIP3   OH244347   5.217   2.013   6.048  0.4187  0.4528  0.1240
 7619TIP3    H144348   5.291   1.954   6.064 -0.4782 -0.9821 -0.7562
 7619TIP3    H244349   5.256   2.087   6.001  1.7217  1.0236  2.0074
 7620TIP3   OH244350   6.601   5.797  12.687  0.0456 -0.3983 -0.0031
 7620TIP3    H144351   6.656   5.875  12.683 -2.4019  1.4975 -4.0260
 7620TIP3    H244352   6.627   5.745  12.611 -0.6420 -1.8085  0.6769
 7621TIP3   OH244353   0.433   4.482  16.289  0.5655  0.1586 -0.0799
 7621TIP3    H144354   0.419   4.555  16.350  3.8166  1.1167 -0.2776
 7621TIP3    H244355   0.471   4.413  16.343  1.0896  0.0826 -0.5313
 7622TIP3   OH244356   3.945   0.588   4.878 -0.4143  0.4011  0.5239
 7622TIP3    H144357   3.991   0.671   4.889 -1.5072  1.0992 -0.0102
 7622TIP3    H244358   3.931   0.555   4.967  0.8043  0.3334  0.7024
 7623TIP3   OH244359   5.502   0.574  13.992  0.3259  0.5408 -0.1594
 7623TIP3    H144360   5.461   0.597  13.909  1.1636  0.7599 -0.5152
 7623TIP3    H244361   5.485   0.649  14.049 -0.6549  0.1915  0.0247
 7624TIP3   OH244362   2.284   4.241  13.082  0.3866 -0.3685 -0.0272
 7624TIP3    H144363   2.294   4.145  13.085 -1.7808 -0.6170  1.0005
 7624TIP3    H244364   2.347   4.273  13.147  0.6355 -1.1561  0.1372
 7625TIP3   OH244365   1.259   2.095  13.718 -0.2054  0.3852  0.2336
 7625TIP3    H144366   1.287   2.061  13.633 -2.0841  0.4297 -0.4636
 7625TIP3    H244367   1.325   2.064  13.779 -0.3173 -2.1775 -0.7936
 7626TIP3   OH244368   5.168   1.902  15.013 -0.1575  0.0049  0.9795
 7626TIP3    H144369   5.107   1.954  14.961 -1.6971 -0.8890  1.7829
 7626TIP3    H244370   5.128   1.814  15.014  2.3087 -1.2262 -0.3035
 7627TIP3   OH244371   4.646   2.758  14.351  0.2110 -0.2178  0.5713
 7627TIP3    H144372   4.567   2.726  14.396 -0.5737 -1.0337 -1.2994
 7627TIP3    H244373   4.667   2.690  14.288  1.9539  0.3854  0.4450
 7628TIP3   OH244374   0.904   6.358  14.995 -0.0518 -0.0276  0.3766
 7628TIP3    H144375   0.865   6.369  14.908  1.1469  1.0823 -0.0408
 7628TIP3    H244376   0.931   6.266  14.998 -0.9837 -0.3307 -0.0254
 7629TIP3   OH244377   1.001   3.302  13.899 -0.3497  0.5625 -0.4974
 7629TIP3    H144378   0.973   3.378  13.849 -1.7428 -1.0097 -2.2539
 7629TIP3    H244379   1.087   3.279  13.862 -1.7603 -1.1377 -3.0260
 7630TIP3   OH244380   4.166   2.875   5.285 -0.6804 -0.0775  0.5645
 7630TIP3    H144381   4.124   2.907   5.365  0.4993 -0.1601  1.2413
 7630TIP3    H244382   4.101   2.888   5.217 -0.8545  2.2348  1.1025
 7631TIP3   OH244383   2.974   5.148  16.890 -0.1398  0.3202  0.4012
 7631TIP3    H144384   3.068   5.166  16.887 -0.0141 -0.0175  1.5797
 7631TIP3    H244385   2.946   5.182  16.975 -0.5577 -1.9032  1.2236
 7632TIP3   OH244386   0.941   5.559  14.374  0.3624 -0.6511  0.0447
 7632TIP3    H144387   0.896   5.641  14.394 -1.1875 -1.2394 -0.8445
 7632TIP3    H244388   1.022   5.585  14.330  0.4985  0.4108  0.8744
 7633TIP3   OH244389   1.743   3.574  17.050  0.3610 -0.1337 -0.0239
 7633TIP3    H144390   1.794   3.540  16.976  0.5856  0.2192 -0.0390
 7633TIP3    H244391   1.767   3.667  17.053  0.4645 -0.1798  0.5879
 7634TIP3   OH244392   3.413   4.435  13.811 -0.1527 -0.1149 -0.1851
 7634TIP3    H144393   3.349   4.506  13.804  1.1463  1.1427  0.1168
 7634TIP3    H244394   3.494   4.472  13.776  0.1275 -2.1002 -1.8393
 7635TIP3   OH244395   2.335   1.841  16.890 -0.5668  0.4892 -0.3598
 7635TIP3    H144396   2.412   1.795  16.854 -0.9231 -0.5530  0.1757
 7635TIP3    H244397   2.282   1.861  16.813 -0.6710 -0.5134 -0.5667
 7636TIP3   OH244398   4.638   3.809   5.815  0.3810  0.0839  0.1975
 7636TIP3    H144399   4.709   3.793   5.754 -0.5458  0.2869 -0.9648
 7636TIP3    H244400   4.641   3.904   5.831  1.4817 -0.1403  1.5990
 7637TIP3   OH244401   0.299   1.328   6.039 -0.2656  0.8882 -0.4773
 7637TIP3    H144402   0.242   1.338   6.115  1.8766 -1.8485  1.7062
 7637TIP3    H244403   0.385   1.358   6.069  1.3201 -2.9063 -0.6717
 7638TIP3   OH244404   6.717   4.135   0.318  0.9973 -0.0432  0.0755
 7638TIP3    H144405   6.667   4.187   0.254  2.9559  0.8740 -0.7830
 7638TIP3    H244406   6.773   4.199   0.362  1.3133 -1.0145  1.1304
 7639TIP3   OH244407   6.671   6.176   2.079 -0.3484 -0.1159  0.4600
 7639TIP3    H144408   6.748   6.230   2.060 -1.3505  1.0807 -0.3504
 7639TIP3    H244409   6.704   6.086   2.081  0.8845  0.2709 -0.9941
 7640TIP3   OH244410   1.169   5.678   0.160 -0.5384  0.1188 -0.2522
 7640TIP3    H144411   1.163   5.603   0.101  0.7106  0.5328 -0.9633
 7640TIP3    H244412   1.102   5.662   0.226  1.0037 -2.6957  0.8198
 7641TIP3   OH244413   5.112   4.335   3.633 -0.1020 -0.0240 -0.5727
 7641TIP3    H144414   5.028   4.371   3.605  0.3167  0.3966 -1.2884
 7641TIP3    H244415   5.161   4.411   3.666  0.2646 -0.1506 -0.8210
 7642TIP3   OH244416   2.755   2.997  17.012 -0.3894  0.0273 -0.4438
 7642TIP3    H144417   2.679   3.055  17.023 -0.7252 -0.5106  0.1343
 7642TIP3    H244418   2.733   2.943  16.936  0.2609  1.1589 -1.4687
 7643TIP3   OH244419   1.400   3.406  14.169 -0.1813  0.2455 -0.1127
 7643TIP3    H144420   1.474   3.422  14.227 -0.7150 -0.0913  0.6818
 7643TIP3    H244421   1.338   3.356  14.222 -0.1176 -1.2508 -1.3874
 7644TIP3   OH244422   4.480   4.649   2.166 -0.0128  0.0415 -0.5855
 7644TIP3    H144423   4.484   4.559   2.197  1.7964  0.4027  0.4046
 7644TIP3    H244424   4.477   4.642   2.071 -0.9067 -1.0517 -0.4943
 7645TIP3   OH244425   6.055   5.121  15.544 -0.5338  0.4196  0.2633
 7645TIP3    H144426   6.026   5.135  15.634  1.5305  1.6111  0.8156
 7645TIP3    H244427   6.071   5.027  15.537  0.3000  0.4542  1.4935
 7646TIP3   OH244428   3.357   5.189   5.149 -0.5250  0.2579 -0.6993
 7646TIP3    H144429   3.335   5.120   5.087  1.2113 -2.0332  1.0975
 7646TIP3    H244430   3.275   5.207   5.194 -0.7582 -1.5909 -0.3126
 7647TIP3   OH244431   2.384   5.387  13.433  1.1728  0.4840  0.5950
 7647TIP3    H144432   2.398   5.340  13.351  0.7807  0.4483  0.5456
 7647TIP3    H244433   2.375   5.318  13.499  2.3966  0.5212  0.8338
 7648TIP3   OH244434   5.365   4.241  12.972  0.1478  0.0136 -0.6910
 7648TIP3    H144435   5.447   4.289  12.969 -0.5420  1.1825 -3.7730
 7648TIP3    H244436   5.297   4.308  12.959 -1.1605 -1.2188 -0.5134
 7649TIP3   OH244437   0.324   6.510  13.237 -0.4905  0.3717  0.0527
 7649TIP3    H144438   0.302   6.585  13.292 -1.0575  0.1803  0.0949
 7649TIP3    H244439   0.275   6.437  13.276  0.5742 -0.1722  0.4183
 7650TIP3   OH244440   2.457   5.514   3.721 -0.1059 -0.2393 -0.1613
 7650TIP3    H144441   2.541   5.517   3.676 -0.3575  0.8136 -0.6035
 7650TIP3    H244442   2.466   5.577   3.793 -1.0132  1.1114 -1.1671
 7651TIP3   OH244443   4.278   3.373   1.755 -0.3435  0.7669  0.0859
 7651TIP3    H144444   4.320   3.412   1.678 -0.2089  1.2362  0.4004
 7651TIP3    H244445   4.229   3.444   1.795 -1.1628  0.3092 -0.0752
 7652TIP3   OH244446   0.793   4.279  14.387  0.1193 -0.0903 -0.5632
 7652TIP3    H144447   0.880   4.248  14.361  0.2733  0.2188 -0.4355
 7652TIP3    H244448   0.732   4.220  14.343  0.4025 -0.8586  0.0541
 7653TIP3   OH244449   4.437   1.445   4.476 -0.1576 -0.0096  0.5158
 7653TIP3    H144450   4.485   1.525   4.499  1.1213 -0.4001 -0.6082
 7653TIP3    H244451   4.408   1.409   4.559  1.0086  0.5822  1.2010
 7654TIP3   OH244452   4.714   0.489   3.476  0.5505 -0.0562  0.8343
 7654TIP3    H144453   4.632   0.440   3.468  0.0795  1.0632 -2.9839
 7654TIP3    H244454   4.763   0.441   3.543 -1.7965 -2.8055  0.8089
 7655TIP3   OH244455   1.609   2.647   0.262 -0.1995 -0.3115  0.3569
 7655TIP3    H144456   1.568   2.726   0.228  0.9849  0.0237 -0.3458
 7655TIP3    H244457   1.599   2.582   0.192  2.5088  0.4681 -0.8879
 7656TIP3   OH244458   0.522   0.613   5.461 -0.1384  0.5153  0.7444
 7656TIP3    H144459   0.569   0.550   5.516 -0.2983  1.3929  1.9285
 7656TIP3    H244460   0.430   0.594   5.475 -0.2974  2.5157  3.0730
 7657TIP3   OH244461   0.783   1.552   5.609 -0.7231 -0.2121 -0.4528
 7657TIP3    H144462   0.823   1.503   5.680 -1.9126  0.1033  0.4534
 7657TIP3    H244463   0.827   1.638   5.611 -1.5898  0.2209  0.6937
 7658TIP3   OH244464   4.621   1.677  11.695  0.2571  0.2197 -0.0811
 7658TIP3    H144465   4.570   1.598  11.712 -1.0109  1.5290  3.0916
 7658TIP3    H244466   4.556   1.742  11.669  0.9187  0.8189 -0.2580
 7659TIP3   OH244467   2.064   1.443   1.961  0.1639 -0.1227 -0.8364
 7659TIP3    H144468   2.094   1.530   1.988 -0.1210 -0.3312  0.1621
 7659TIP3    H244469   1.977   1.459   1.924 -0.1482 -0.0606 -0.0893
 7660TIP3   OH244470   5.132   1.476  13.443  0.4571  0.5198  0.4955
 7660TIP3    H144471   5.139   1.487  13.349  1.4474  0.4114  0.5524
 7660TIP3    H244472   5.221   1.458  13.473 -0.1842 -2.0479  1.1325
 7661TIP3   OH244473   0.558   3.056   1.390  0.0836  0.3724  0.3421
 7661TIP3    H144474   0.527   3.146   1.396  0.2766  0.4783 -0.2317
 7661TIP3    H244475   0.543   3.031   1.299  0.7662  0.0939  0.2976
 7662TIP3   OH244476   1.570   0.788  16.149 -0.2601  0.8410  0.1617
 7662TIP3    H144477   1.529   0.867  16.185  0.6432  1.7231 -0.6891
 7662TIP3    H244478   1.652   0.819  16.112 -0.1902 -0.4015 -0.7639
 7663TIP3   OH244479   3.599   6.225   3.423  0.9907  0.2513  0.2118
 7663TIP3    H144480   3.636   6.288   3.486 -0.0414  0.0513  1.0456
 7663TIP3    H244481   3.512   6.259   3.404  1.2443  0.2350 -1.0329
 7664TIP3   OH244482   3.567   6.420   0.224 -0.7495 -0.0373  0.1324
 7664TIP3    H144483   3.565   6.516   0.216 -0.9927 -0.0527  0.0105
 7664TIP3    H244484   3.475   6.395   0.233 -0.6818 -0.2577  0.2066
 7665TIP3   OH244485   5.274   0.666   5.330 -0.4768  0.1533  0.1397
 7665TIP3    H144486   5.223   0.612   5.390  0.0641  0.2688  0.7086
 7665TIP3    H244487   5.292   0.746   5.379 -0.6325  0.5446 -0.4331
 7666TIP3   OH244488   2.057   5.185   6.187  0.3555  0.3912  0.0651
 7666TIP3    H144489   2.055   5.261   6.245  1.5165  1.0755 -0.7379
 7666TIP3    H244490   2.138   5.139   6.210 -0.4756 -0.7886  0.7388
 7667TIP3   OH244491   3.576   6.374   4.593 -0.5270  0.4846  0.0570
 7667TIP3    H144492   3.509   6.419   4.645 -0.3929 -0.5818  1.1882
 7667TIP3    H244493   3.621   6.317   4.655 -0.0543 -0.5049 -1.1453
 7668TIP3   OH244494   0.540   2.994  14.174  0.2886  0.4234 -0.4036
 7668TIP3    H144495   0.562   3.001  14.267 -0.8975  2.2414 -0.2140
 7668TIP3    H244496   0.448   2.967  14.173  0.5635 -0.5603 -1.0965
 7669TIP3   OH244497   1.074   4.942  16.427  0.0752 -0.4321 -0.5130
 7669TIP3    H144498   1.168   4.928  16.437  0.1580  1.4835  2.7377
 7669TIP3    H244499   1.066   5.013  16.364  0.8386 -0.1574 -0.3011
 7670TIP3   OH244500   5.133   3.498  11.962  0.2938 -0.4224  0.2710
 7670TIP3    H144501   5.049   3.491  12.009 -0.8842  0.1396 -1.6249
 7670TIP3    H244502   5.139   3.591  11.939  0.3348 -0.8390 -1.5013
 7671TIP3   OH244503   2.576   1.922  12.331 -0.2680  0.5354 -0.1534
 7671TIP3    H144504   2.493   1.881  12.358  0.9502 -2.2886 -0.4279
 7671TIP3    H244505   2.570   1.928  12.236 -0.0833  0.1237 -0.1930
 7672TIP3   OH244506   2.160   0.323   3.789  0.1247  0.3865 -0.6418
 7672TIP3    H144507   2.202   0.256   3.844 -0.0361 -0.4865 -1.5536
 7672TIP3    H244508   2.130   0.389   3.852 -1.1620 -1.1815  0.4887
 7673TIP3   OH244509   4.864   6.574  16.873 -0.2805  0.3045  0.3696
 7673TIP3    H144510   4.791   6.630  16.899 -0.4627  0.6557 -0.8445
 7673TIP3    H244511   4.920   6.631  16.821  2.0585  0.6741  3.0850
 7674TIP3   OH244512   2.404   0.526  15.139 -0.4135 -0.7129 -0.2306
 7674TIP3    H144513   2.363   0.531  15.052  0.7472 -1.1760 -0.8304
 7674TIP3    H244514   2.491   0.489  15.122  0.7940  1.4985  0.8133
 7675TIP3   OH244515   4.331   6.531  16.554  0.0687 -0.3891 -0.2296
 7675TIP3    H144516   4.386   6.504  16.481 -0.1537  0.3645 -0.6861
 7675TIP3    H244517   4.348   6.625  16.563 -1.0052 -0.1804 -0.2619
 7676TIP3   OH244518   2.000   6.356  16.026 -0.0230 -0.0410 -0.4669
 7676TIP3    H144519   2.091   6.379  16.046 -0.1461  0.6379 -0.6593
 7676TIP3    H244520   1.996   6.359  15.930  0.0616 -1.3161 -0.5383
 7677TIP3   OH244521   0.288   6.308  15.931  0.1384 -1.2010  0.3256
 7677TIP3    H144522   0.301   6.230  15.984 -2.7170 -1.3902  0.8829
 7677TIP3    H244523   0.196   6.330  15.942  0.5936  1.6512 -0.6581
 7678TIP3   OH244524   2.283   6.654   1.765  0.4626  0.5370  0.0546
 7678TIP3    H144525   2.290   6.569   1.809 -0.8797  0.2000 -0.3410
 7678TIP3    H244526   2.347   6.649   1.694 -0.3860 -0.6335 -0.6847
 7679TIP3   OH244527   3.316   2.812  11.798 -0.2627  0.0970  0.6820
 7679TIP3    H144528   3.245   2.875  11.784  1.0974  1.4780 -0.4280
 7679TIP3    H244529   3.368   2.816  11.717  0.8651 -1.1466  1.3036
 7680TIP3   OH244530   4.714   0.799   6.419  0.5400  0.6453 -0.1733
 7680TIP3    H144531   4.624   0.775   6.443  0.0702  1.6913 -0.7990
 7680TIP3    H244532   4.733   0.877   6.472  1.3282  0.0592  0.4306
 7681TIP3   OH244533   5.351   5.237   2.544  0.0298 -0.1106  0.3024
 7681TIP3    H144534   5.294   5.309   2.518 -0.5248 -0.1895  1.2381
 7681TIP3    H244535   5.291   5.172   2.582  0.4686 -1.2239 -0.8213
 7682TIP3   OH244536   2.335   3.696  12.500  0.9565 -0.2958 -0.2139
 7682TIP3    H144537   2.319   3.787  12.477 -0.0200 -1.0349 -2.8214
 7682TIP3    H244538   2.420   3.675  12.461  2.5730  0.1352  2.7346
 7683TIP3   OH244539   5.885   4.665   0.228 -0.1578  0.2196 -0.1856
 7683TIP3    H144540   5.973   4.675   0.192 -0.1867 -1.1311 -0.6702
 7683TIP3    H244541   5.827   4.661   0.152 -0.4600 -0.4389  0.0670
 7684TIP3   OH244542   2.832   6.180  14.121  0.4965 -0.3423 -0.2583
 7684TIP3    H144543   2.775   6.109  14.093  2.1447 -1.9408  0.2027
 7684TIP3    H244544   2.806   6.198  14.211 -1.1144  0.9373 -0.9386
 7685TIP3   OH244545   4.467   6.322  16.798  0.2530  0.1112  0.1642
 7685TIP3    H144546   4.557   6.311  16.765  1.5195  3.4983  1.9700
 7685TIP3    H244547   4.478   6.375  16.877 -3.2597 -0.9421  1.5214
 7686TIP3   OH244548   3.375   5.765   2.264 -0.0888  0.0468  0.1061
 7686TIP3    H144549   3.350   5.847   2.306  1.4305  0.9068 -0.5955
 7686TIP3    H244550   3.469   5.774   2.248 -0.4271 -0.5510 -2.7559
 7687TIP3   OH244551   5.779   2.636  15.405 -0.0885  0.3345  0.4299
 7687TIP3    H144552   5.755   2.706  15.466  1.4541  0.4331  0.9687
 7687TIP3    H244553   5.696   2.606  15.368 -0.9360  1.1285  1.6428
 7688TIP3   OH244554   5.012   6.234   6.924 -0.7567  0.3087 -0.4187
 7688TIP3    H144555   5.018   6.328   6.908  1.0158  0.1942 -0.5711
 7688TIP3    H244556   4.972   6.199   6.844 -0.2022  0.7868 -0.9186
 7689TIP3   OH244557   5.509   2.989   6.038 -0.7623 -0.0785 -0.7637
 7689TIP3    H144558   5.446   2.952   6.101  0.6087 -0.7447  0.2745
 7689TIP3    H244559   5.497   2.938   5.958 -0.0479 -1.7216  0.1290
 7690TIP3   OH244560   4.763   5.224   3.673  0.0041  0.2025  0.1489
 7690TIP3    H144561   4.840   5.195   3.624  0.0435  0.3839  0.1052
 7690TIP3    H244562   4.707   5.266   3.607 -1.8040 -3.0517 -0.6394
 7691TIP3   OH244563   5.402   3.392   6.363 -0.0818  0.1893  0.2871
 7691TIP3    H144564   5.329   3.427   6.414 -1.3058 -0.2159 -1.1111
 7691TIP3    H244565   5.474   3.454   6.377 -1.4195  1.8927 -0.1459
 7692TIP3   OH244566   1.624   4.275  17.446 -0.4391  0.4125  0.4520
 7692TIP3    H144567   1.701   4.250  17.497 -1.3518  1.0421  2.2466
 7692TIP3    H244568   1.587   4.349  17.494 -2.8775 -0.6710  0.3763
 7693TIP3   OH244569   6.631   0.002  10.651  0.0663 -0.3640  0.0311
 7693TIP3    H144570   6.576   0.056  10.595 -0.4109 -2.2148 -1.3733
 7693TIP3    H244571   6.574  -0.027  10.722 -0.6336 -1.6587 -1.0118
 7694TIP3   OH244572   5.971   3.723   2.389  0.4575 -0.3084  1.1827
 7694TIP3    H144573   5.987   3.795   2.449  0.2358 -0.1940  1.1072
 7694TIP3    H244574   5.879   3.733   2.364  1.1922  1.2213 -1.2470
 7695TIP3   OH244575   1.466   4.572  14.770 -0.2829  0.0996 -0.2971
 7695TIP3    H144576   1.453   4.482  14.801  0.6056  0.3386  0.8313
 7695TIP3    H244577   1.379   4.604  14.749 -0.7226 -0.6762  0.3113
 7696TIP3   OH244578   4.549   6.005   3.839  0.0216 -0.0437  0.2665
 7696TIP3    H144579   4.574   6.062   3.911 -1.8777  0.5943  0.4684
 7696TIP3    H244580   4.560   6.060   3.761  0.7817 -0.2982  0.1865
 7697TIP3   OH244581   0.305   1.760  14.447  0.3917  0.1101  0.3256
 7697TIP3    H144582   0.278   1.705  14.521 -1.6164 -0.3670 -0.6712
 7697TIP3    H244583   0.225   1.805  14.421  1.3197  1.1418 -0.8463
 7698TIP3   OH244584   3.939   4.944  17.413 -0.1859  0.7442  0.0824
 7698TIP3    H144585   3.953   4.866  17.358 -2.9707 -0.0018  0.2699
 7698TIP3    H244586   3.973   4.918  17.499  0.6816  0.4914 -0.3179
 7699TIP3   OH244587   1.030   2.864   2.507  0.2305  0.1170 -0.0324
 7699TIP3    H144588   0.986   2.811   2.574 -1.6356  1.3410 -0.2013
 7699TIP3    H244589   1.031   2.808   2.430 -2.6463  0.5447 -0.5111
 7700TIP3   OH244590   3.336   6.569   0.505 -0.0006 -0.2839  0.5354
 7700TIP3    H144591   3.409   6.535   0.556  0.4176 -0.5780 -0.2393
 7700TIP3    H244592   3.332   6.662   0.527 -0.3522 -0.5654  1.7159
 7701TIP3   OH244593   5.192   1.879   5.026 -0.0229  0.3288 -0.2964
 7701TIP3    H144594   5.285   1.899   5.017  0.2454 -0.3618  0.7343
 7701TIP3    H244595   5.189   1.783   5.030 -0.9408  0.2658 -1.8811
 7702TIP3   OH244596   4.497   2.214  12.676 -0.5631  0.1377  0.5208
 7702TIP3    H144597   4.524   2.297  12.636  3.4807 -1.0602  0.2745
 7702TIP3    H244598   4.484   2.155  12.601 -0.5337 -0.1669  0.7546
 7703TIP3   OH244599   4.136   0.026   1.183 -0.3232  0.4303  0.5524
 7703TIP3    H144600   4.115  -0.059   1.221 -0.2675  0.1947  0.0615
 7703TIP3    H244601   4.080   0.033   1.106 -0.8171  1.1342  0.9602
 7704TIP3   OH244602   3.074   2.338   4.007  0.2355 -0.2204  0.5290
 7704TIP3    H144603   3.059   2.261   3.952  0.1809  0.3768 -0.3144
 7704TIP3    H244604   3.135   2.391   3.956  0.4239  0.2103  1.1947
 7705TIP3   OH244605   3.643   5.648   3.500  0.1719 -0.3477 -0.4401
 7705TIP3    H144606   3.655   5.676   3.590  0.2330 -1.2289 -0.1625
 7705TIP3    H244607   3.695   5.710   3.448 -0.7921  0.8586  0.0116
 7706TIP3   OH244608   0.865   2.841   3.014  0.6128  0.1925  0.1046
 7706TIP3    H144609   0.937   2.797   3.060  0.7811  1.2885  0.9187
 7706TIP3    H244610   0.857   2.926   3.057 -1.2023  0.0841  0.0535
 7707TIP3   OH244611   3.040   1.807   2.111 -0.3422  0.1877  0.6296
 7707TIP3    H144612   3.100   1.845   2.047 -0.1864 -1.2015 -0.0928
 7707TIP3    H244613   2.965   1.866   2.112 -0.6421 -0.0930 -1.3470
 7708TIP3   OH244614   3.126   1.031   3.178  0.0971  0.1703  1.2260
 7708TIP3    H144615   3.123   1.121   3.209  1.2344  0.4110  0.6949
 7708TIP3    H244616   3.215   1.001   3.200 -0.1525 -0.7082  1.0870
 7709TIP3   OH244617   3.183   5.567  11.217  0.3015 -0.1182  0.1364
 7709TIP3    H144618   3.226   5.498  11.267  1.6913  0.2778 -0.4748
 7709TIP3    H244619   3.115   5.521  11.167  1.7933 -1.2538 -0.9789
 7710TIP3   OH244620   5.786   6.392  16.591  0.2795  0.3632 -0.4281
 7710TIP3    H144621   5.867   6.438  16.570  0.1970  0.6662 -0.0848
 7710TIP3    H244622   5.730   6.458  16.632  0.7548 -0.3845  1.5568
 7711TIP3   OH244623   0.390   2.977   5.206  0.1387 -0.8074  0.2205
 7711TIP3    H144624   0.308   3.025   5.215  1.0224  0.5185  1.5905
 7711TIP3    H244625   0.411   2.947   5.295  1.3952 -0.6702 -0.0073
 7712TIP3   OH244626   1.078   0.944  16.811  0.4733 -0.9686 -0.2790
 7712TIP3    H144627   1.119   0.906  16.889  2.2190 -2.7380 -1.9290
 7712TIP3    H244628   1.140   1.010  16.782 -1.1061  1.1150  0.8389
 7713TIP3   OH244629   2.987   3.203  13.589  0.3584 -0.2924  0.4951
 7713TIP3    H144630   3.046   3.182  13.661  0.2222  0.4546  0.8381
 7713TIP3    H244631   3.031   3.275  13.543  0.2974 -0.5608  0.0098
 7714TIP3   OH244632   5.197   6.605  15.272  1.0815  0.3005  0.0905
 7714TIP3    H144633   5.127   6.540  15.275  1.2590  0.0338 -1.0839
 7714TIP3    H244634   5.178   6.665  15.344 -0.0081 -0.1096  0.1526
 7715TIP3   OH244635   3.465   5.673  14.635  0.2116  0.1975 -0.4759
 7715TIP3    H144636   3.429   5.737  14.574 -4.4814 -0.2529  1.3890
 7715TIP3    H244637   3.417   5.592  14.617  0.7369 -0.7366  1.8849
 7716TIP3   OH244638   0.391   3.627   0.202  0.8476 -0.2841 -0.2147
 7716TIP3    H144639   0.326   3.571   0.159  0.2120  1.4829 -1.6607
 7716TIP3    H244640   0.349   3.713   0.207  0.9860 -0.2512  3.7780
 7717TIP3   OH244641   0.689   0.631  13.314  0.4307 -0.0175 -0.1775
 7717TIP3    H144642   0.596   0.647  13.332  0.5109 -1.1658  1.4729
 7717TIP3    H244643   0.690   0.547  13.269  0.6138  0.4609 -1.0756
 7718TIP3   OH244644   2.534   0.170  15.641 -0.0617 -0.0190 -0.1331
 7718TIP3    H144645   2.537   0.125  15.726  0.8254  1.1608  0.4895
 7718TIP3    H244646   2.481   0.112  15.586 -1.2427 -0.4996  1.4002
 7719TIP3   OH244647   5.357   1.390   4.021  0.1807 -0.4172 -0.0543
 7719TIP3    H144648   5.426   1.402   3.956  1.0466  1.7535  1.1712
 7719TIP3    H244649   5.396   1.334   4.088  1.0980  1.3424  0.9703
 7720TIP3   OH244650   1.387   0.729  15.584  0.3675  0.3267 -0.1394
 7720TIP3    H144651   1.469   0.754  15.541  1.1765 -0.6300  0.7774
 7720TIP3    H244652   1.361   0.647  15.540  0.4672  0.0757  0.2657
 7721TIP3   OH244653   1.804   3.964  16.048  0.3960  0.1227  0.1387
 7721TIP3    H144654   1.726   4.002  16.088 -0.9415 -0.9580 -1.3479
 7721TIP3    H244655   1.836   3.901  16.113 -0.9699 -0.6641  0.0801
 7722TIP3   OH244656   5.302   0.460  12.088  0.4886 -0.7710  0.1438
 7722TIP3    H144657   5.358   0.394  12.050  0.6570  0.0748 -1.1462
 7722TIP3    H244658   5.354   0.540  12.086 -0.1181 -0.3534  0.5888
 7723TIP3   OH244659   4.034   4.439  11.661  0.3690 -0.4648  0.2158
 7723TIP3    H144660   4.094   4.513  11.669 -0.3796  0.2146 -0.3079
 7723TIP3    H244661   4.079   4.379  11.601  0.9633 -0.4267  0.6146
 7724TIP3   OH244662   5.955   3.911  16.648  0.5212  0.1131 -0.1611
 7724TIP3    H144663   5.877   3.905  16.703  1.6580  0.0006  1.4765
 7724TIP3    H244664   5.951   3.999  16.611  0.3157  0.6068  1.0002
 7725TIP3   OH244665   2.866   2.220  13.538 -0.6147  0.0401 -0.3641
 7725TIP3    H144666   2.854   2.167  13.617 -2.8071 -0.7361 -1.1270
 7725TIP3    H244667   2.886   2.156  13.470 -0.0886  0.5588 -0.7019
 7726TIP3   OH244668   5.993   0.530  16.553  0.6574 -0.3526  0.2198
 7726TIP3    H144669   6.043   0.524  16.634  0.2302  0.4801  0.5538
 7726TIP3    H244670   6.057   0.556  16.487  0.5398  1.5332  0.8063
 7727TIP3   OH244671   3.881   4.748  15.004  0.1683 -0.4032  1.3151
 7727TIP3    H144672   3.841   4.696  14.934  0.2554  0.8209  0.3211
 7727TIP3    H244673   3.972   4.758  14.977  0.4521 -0.7277  2.1145
 7728TIP3   OH244674   5.098   2.863  16.770 -0.2543 -0.0451  0.9913
 7728TIP3    H144675   5.066   2.811  16.696 -1.6085 -1.0592  2.2275
 7728TIP3    H244676   5.173   2.911  16.735  0.6468 -2.3164 -0.4211
 7729TIP3   OH244677   2.471   1.267  11.769  0.5712 -0.6771 -0.2130
 7729TIP3    H144678   2.454   1.178  11.737 -1.3619 -1.0707  1.6532
 7729TIP3    H244679   2.408   1.322  11.723  1.0330 -0.4341 -0.5656
 7730TIP3   OH244680   2.750   1.663  12.703 -0.3315  0.1673 -0.4748
 7730TIP3    H144681   2.810   1.666  12.628 -1.6512  1.9515 -1.5450
 7730TIP3    H244682   2.725   1.571  12.710  2.7722 -0.7442  0.2925
 7731TIP3   OH244683   1.285   3.473  14.599 -0.6374  0.3933  0.5363
 7731TIP3    H144684   1.377   3.450  14.588 -0.8436 -0.5129  0.6574
 7731TIP3    H244685   1.240   3.390  14.613 -1.6678  0.6802 -0.8190
 7732TIP3   OH244686   3.779   0.910  16.440  0.2175  0.3081 -0.1074
 7732TIP3    H144687   3.838   0.983  16.422 -0.0492  0.4489 -0.4288
 7732TIP3    H244688   3.792   0.891  16.533  0.6074  0.4773 -0.1250
 7733TIP3   OH244689   2.718   1.123   0.619 -0.0244 -0.3823 -0.1143
 7733TIP3    H144690   2.636   1.092   0.581 -0.7890  0.1333  1.0643
 7733TIP3    H244691   2.743   1.056   0.682  1.4751 -1.4518 -1.7554
 7734TIP3   OH244692   5.877   2.153   6.084  0.3500 -1.0377 -0.5254
 7734TIP3    H144693   5.882   2.194   5.998 -1.7716  0.2721 -0.1017
 7734TIP3    H244694   5.815   2.081   6.073 -0.3825 -0.5084 -0.0116
 7735TIP3   OH244695   5.054   5.401  11.123  0.1999  0.3742  0.0686
 7735TIP3    H144696   5.012   5.467  11.178  1.1921  1.5950 -0.5740
 7735TIP3    H244697   4.982   5.348  11.088 -0.9566  2.8951 -1.6477
 7736TIP3   OH244698   6.596   3.222  17.203 -0.0375 -0.3156 -0.1827
 7736TIP3    H144699   6.670   3.282  17.197 -1.0854  0.9213 -1.2063
 7736TIP3    H244700   6.537   3.249  17.133 -2.6557  0.3770  2.1326
 7737TIP3   OH244701   6.345   3.450   4.823 -0.5749 -0.2337  0.2505
 7737TIP3    H144702   6.412   3.480   4.761  0.0178 -1.4557  0.2703
 7737TIP3    H244703   6.319   3.529   4.870 -1.4595  0.8560 -1.9033
 7738TIP3   OH244704   6.518   3.711  14.009  0.4358 -0.2752 -0.0818
 7738TIP3    H144705   6.479   3.689  14.094 -1.0468  0.7074 -0.4761
 7738TIP3    H244706   6.569   3.633  13.986  0.1604 -0.9028  1.2905
 7739TIP3   OH244707   5.407   1.841  15.365 -0.0381 -0.2756 -0.1463
 7739TIP3    H144708   5.317   1.840  15.398  0.2687 -0.3103  0.7169
 7739TIP3    H244709   5.461   1.828  15.443  0.7070 -0.5726 -0.7014
 7740TIP3   OH244710   3.348   2.010  13.866  0.2654 -0.4831 -0.6022
 7740TIP3    H144711   3.434   2.051  13.870 -0.5667  1.3817 -1.0770
 7740TIP3    H244712   3.349   1.945  13.937  1.5503  0.5207  0.3380
 7741TIP3   OH244713   4.253   3.577   0.604  0.1241 -0.3259  0.0096
 7741TIP3    H144714   4.197   3.558   0.679 -0.4483 -0.0103 -0.3268
 7741TIP3    H244715   4.279   3.490   0.572  1.3142 -0.4427  1.2482
 7742TIP3   OH244716   2.338   0.971   1.562 -0.7347  0.0654  0.6748
 7742TIP3    H144717   2.407   0.906   1.553  0.0399  0.7879  1.3042
 7742TIP3    H244718   2.303   0.957   1.650 -0.2868  0.7658  0.9685
 7743TIP3   OH244719   4.688   1.133   0.346 -1.0716 -0.5990  0.0012
 7743TIP3    H144720   4.617   1.197   0.340 -1.3288 -0.9359 -0.6598
 7743TIP3    H244721   4.762   1.182   0.379 -1.3627 -0.0364 -0.1750
 7744TIP3   OH244722   5.624   4.737  16.167  0.2951  0.1174  0.2489
 7744TIP3    H144723   5.574   4.763  16.090  1.8675 -0.5197 -1.0621
 7744TIP3    H244724   5.659   4.819  16.202  1.9409  0.2424 -1.4932
 7745TIP3   OH244725   5.389   5.021  15.461 -0.1918  0.5915 -0.1679
 7745TIP3    H144726   5.381   5.104  15.413 -0.9517  0.1999 -0.7307
 7745TIP3    H244727   5.313   4.970  15.433  0.2912 -0.3106  0.1496
 7746TIP3   OH244728   2.556   2.651   4.803 -0.2526 -0.0780  0.1764
 7746TIP3    H144729   2.591   2.607   4.880 -0.7978 -0.4606  0.2153
 7746TIP3    H244730   2.613   2.623   4.731 -0.2594 -0.4027  0.2969
 7747TIP3   OH244731   6.384   1.743   2.075  0.0404  0.2792 -0.5062
 7747TIP3    H144732   6.370   1.724   1.983  1.8648 -0.7921 -0.6206
 7747TIP3    H244733   6.422   1.831   2.076  0.9324 -0.0897 -0.8838
 7748TIP3   OH244734   5.853   3.618   4.614  0.3166 -0.2609  0.2436
 7748TIP3    H144735   5.814   3.661   4.690  0.4187  0.2528  0.0103
 7748TIP3    H244736   5.848   3.524   4.634  1.6967 -0.0943  1.5308
 7749TIP3   OH244737   0.964   1.858   5.004  0.4153  0.1418  0.0620
 7749TIP3    H144738   1.059   1.858   5.019  0.4584  1.4019 -0.1415
 7749TIP3    H244739   0.949   1.932   4.946 -0.6444 -0.3537 -0.3107
 7750TIP3   OH244740   0.799   3.907  13.904  0.0471  1.0940 -0.0131
 7750TIP3    H144741   0.834   3.956  13.830  1.3717 -0.4190 -0.4520
 7750TIP3    H244742   0.799   3.816  13.874  0.6075  0.4396  1.8401
 7751TIP3   OH244743   1.991   6.154   3.946  0.1280 -0.2030 -0.0498
 7751TIP3    H144744   1.896   6.147   3.957  0.2373 -1.8323  0.0631
 7751TIP3    H244745   2.027   6.088   4.005  1.1491 -2.3247 -2.8576
 7752TIP3   OH244746   2.945   1.259  16.513  0.1694  0.3582  0.6373
 7752TIP3    H144747   3.001   1.224  16.582 -0.5389  0.4904  1.2960
 7752TIP3    H244748   2.919   1.345  16.545 -0.0641  0.4786  0.1379
 7753TIP3   OH244749   5.241   5.671  16.671 -0.4884 -0.0293 -0.7009
 7753TIP3    H144750   5.335   5.683  16.657  0.3539 -2.7564  1.5901
 7753TIP3    H244751   5.215   5.604  16.607 -0.3899 -0.6880 -0.0643
 7754TIP3   OH244752   3.633   6.551   6.276 -0.4827  0.6318  0.1543
 7754TIP3    H144753   3.610   6.568   6.367 -1.1879  0.9253 -0.0706
 7754TIP3    H244754   3.615   6.458   6.264  0.7503  0.3127  0.6310
 7755TIP3   OH244755   0.756   3.519   4.422 -0.2271 -0.4141 -0.0206
 7755TIP3    H144756   0.710   3.463   4.359  0.3118 -0.9140  0.0256
 7755TIP3    H244757   0.822   3.565   4.371  0.4151 -1.0501  0.2206
 7756TIP3   OH244758   4.990   2.049  13.205  0.4310 -0.4168 -0.4437
 7756TIP3    H144759   5.040   2.069  13.284  0.6854 -0.1484 -0.6723
 7756TIP3    H244760   4.970   2.134  13.166  1.8026 -0.5872 -1.5979
 7757TIP3   OH244761   4.169   5.816   1.692  0.3041 -0.3571  0.2658
 7757TIP3    H144762   4.180   5.751   1.761  0.3497  0.5243  1.1018
 7757TIP3    H244763   4.175   5.766   1.611 -0.0590 -1.4539  0.8978
 7758TIP3   OH244764   5.277   2.470  13.719  0.2321  0.1780 -0.1228
 7758TIP3    H144765   5.290   2.486  13.813 -0.4629  0.4338 -0.0589
 7758TIP3    H244766   5.294   2.554  13.678  2.8369 -0.4568 -0.5098
 7759TIP3   OH244767   2.594   1.212   5.611  0.5634 -0.1108  0.3459
 7759TIP3    H144768   2.658   1.257   5.666 -0.2065 -0.1147  1.2850
 7759TIP3    H244769   2.585   1.126   5.653 -0.4156  0.0729  0.5220
 7760TIP3   OH244770   3.374   6.118   1.726 -0.3056  0.1439 -0.5824
 7760TIP3    H144771   3.287   6.098   1.692  0.0644 -1.5336 -0.5999
 7760TIP3    H244772   3.405   6.036   1.763  1.8691  0.3135 -1.8728
 7761TIP3   OH244773   4.651   3.542  16.640 -0.1434  0.5569 -0.3933
 7761TIP3    H144774   4.678   3.523  16.730 -0.3364  1.0986 -0.2166
 7761TIP3    H244775   4.721   3.504  16.586  1.1078  2.0954  0.0586
 7762TIP3   OH244776   5.801   5.224  16.011  0.1069 -0.1501  0.0112
 7762TIP3    H144777   5.843   5.301  16.048  0.0213  0.1426 -0.4969
 7762TIP3    H244778   5.716   5.220  16.054  1.2809 -1.7768  2.4257
 7763TIP3   OH244779   5.840   1.447   3.927 -0.1794 -0.1893 -0.1207
 7763TIP3    H144780   5.797   1.374   3.972 -1.3546  0.2335 -0.5082
 7763TIP3    H244781   5.769   1.510   3.912  0.9577  1.3880  0.8956
 7764TIP3   OH244782   2.474   4.589   0.370 -0.0653 -0.7690  0.1830
 7764TIP3    H144783   2.515   4.537   0.438  3.5682  1.8507  0.3156
 7764TIP3    H244784   2.523   4.567   0.290  1.8908  2.3252  0.3109
 7765TIP3   OH244785   3.343   5.498  16.152 -0.3317  0.6791 -0.1786
 7765TIP3    H144786   3.316   5.464  16.238 -0.6498 -0.1673 -0.5983
 7765TIP3    H244787   3.396   5.429  16.115 -2.3474 -0.1236 -1.7424
 7766TIP3   OH244788   4.900   4.317   3.900 -0.0449  0.5256 -0.1743
 7766TIP3    H144789   4.832   4.266   3.944  1.4234 -2.1956 -0.8502
 7766TIP3    H244790   4.938   4.371   3.969 -2.4213  1.6675  0.3328
 7767TIP3   OH244791   0.248   5.778   1.149 -0.4029 -0.0577 -0.3362
 7767TIP3    H144792   0.300   5.841   1.200 -1.5796  0.2203  0.5567
 7767TIP3    H244793   0.313   5.734   1.093  0.5736  1.2885 -0.3149
 7768TIP3   OH244794   4.963   6.565   2.185  0.3646  0.1339  0.2871
 7768TIP3    H144795   4.905   6.575   2.109  1.2577 -0.4798 -0.5031
 7768TIP3    H244796   5.051   6.579   2.150  0.8281 -0.6186  1.1054
 7769TIP3   OH244797   1.723   0.151   4.272  0.1142 -0.3147  0.2442
 7769TIP3    H144798   1.675   0.104   4.340  0.1427 -0.6925  0.0106
 7769TIP3    H244799   1.691   0.113   4.190  0.9460 -0.7230  0.0890
 7770TIP3   OH244800   4.264   5.131   2.814  0.2963 -0.2824  0.1163
 7770TIP3    H144801   4.173   5.147   2.839  0.0122  2.0070 -1.9242
 7770TIP3    H244802   4.259   5.075   2.737  0.9074 -3.0995  1.9533
 7771TIP3   OH244803   2.757   6.109   3.120  0.2897 -0.3710 -0.2333
 7771TIP3    H144804   2.784   6.195   3.152  0.2337 -0.4653  0.0663
 7771TIP3    H244805   2.683   6.085   3.176 -0.3493 -0.1650 -0.9633
 7772TIP3   OH244806   4.325   3.954   6.069 -0.2242  0.2286  0.0151
 7772TIP3    H144807   4.345   3.919   6.155 -0.2423  1.3631  0.4954
 7772TIP3    H244808   4.374   4.036   6.064 -1.1216  0.7452 -0.6016
 7773TIP3   OH244809   3.378   1.689   1.189  0.5091  0.3657 -0.1771
 7773TIP3    H144810   3.322   1.622   1.149  0.3484 -0.3534  1.1920
 7773TIP3    H244811   3.391   1.659   1.279  2.4985  0.8971 -0.2413
 7774TIP3   OH244812   1.393   3.055   0.893 -0.0190 -0.0421  0.5641
 7774TIP3    H144813   1.392   3.138   0.941  0.0268 -0.0571  0.5912
 7774TIP3    H244814   1.366   3.078   0.805 -1.9974 -0.3050  1.0637
 7775TIP3   OH244815   3.306   0.358   0.570 -0.7489  0.6060  0.1426
 7775TIP3    H144816   3.388   0.387   0.529 -0.5445  1.7259  1.2815
 7775TIP3    H244817   3.326   0.353   0.663 -1.6793 -0.2037  0.3077
 7776TIP3   OH244818   1.252   4.158  17.193 -0.3524 -0.2127 -0.2280
 7776TIP3    H144819   1.161   4.149  17.222  0.1203 -1.6655  0.8993
 7776TIP3    H244820   1.283   4.068  17.184  1.0866  0.2735 -0.2846
 7777TIP3   OH244821   4.749   4.586   2.844 -0.5203 -0.2517 -0.2315
 7777TIP3    H144822   4.749   4.604   2.938  1.3834  1.9296 -0.5697
 7777TIP3    H244823   4.657   4.576   2.821 -1.1071  0.6121  1.6033
 7778TIP3   OH244824   5.816   2.612  11.494  0.3160  0.0346  0.2998
 7778TIP3    H144825   5.869   2.648  11.423  1.2343 -0.9413  0.4573
 7778TIP3    H244826   5.876   2.609  11.569 -0.1728 -0.4431  0.6761
 7779TIP3   OH244827   2.414   1.979   5.718 -0.2518 -0.1091  0.1854
 7779TIP3    H144828   2.495   2.001   5.764  0.3263  1.1787 -1.3612
 7779TIP3    H244829   2.375   2.063   5.696 -1.6839 -0.7115  0.3052
 7780TIP3   OH244830   3.927   4.180  10.920  0.5957  0.0388 -0.1716
 7780TIP3    H144831   3.846   4.162  10.967  0.0093 -0.2077 -1.2583
 7780TIP3    H244832   3.996   4.160  10.983 -0.1017 -2.3466 -0.0799
 7781TIP3   OH244833   2.689   1.209  12.333  0.2124  0.5531  0.6324
 7781TIP3    H144834   2.721   1.293  12.364 -0.2039  1.3593 -1.0088
 7781TIP3    H244835   2.593   1.218  12.333  0.1756  0.2344  0.0602
 7782TIP3   OH244836   1.596   4.351  12.918  0.0276  0.4346  0.0377
 7782TIP3    H144837   1.518   4.367  12.865  0.0100  1.3139  0.3199
 7782TIP3    H244838   1.597   4.256  12.930 -1.5954  0.4891  0.9050
 7783TIP3   OH244839   4.047   0.819  12.505 -0.1809 -0.1674 -0.3495
 7783TIP3    H144840   4.006   0.736  12.482  1.8102 -1.4908  0.5588
 7783TIP3    H244841   4.005   0.884  12.449 -1.0542 -1.9587 -1.8627
 7784TIP3   OH244842   2.308   2.709   4.104  0.1086  0.1579 -0.8213
 7784TIP3    H144843   2.381   2.670   4.151 -0.6285 -1.0132 -0.6040
 7784TIP3    H244844   2.281   2.642   4.041  0.4465  1.3175 -2.2628
 7785TIP3   OH244845   4.011   1.721   0.147  0.1320 -0.2386 -0.2861
 7785TIP3    H144846   4.104   1.718   0.123  0.4819  2.7502  0.2920
 7785TIP3    H244847   4.009   1.706   0.241  0.4043  2.0360  0.1576
 7786TIP3   OH244848   1.207   5.987   2.173 -0.4156 -0.3667  0.2379
 7786TIP3    H144849   1.177   6.073   2.146  0.3988  0.1401  0.9192
 7786TIP3    H244850   1.255   6.002   2.255  0.1268 -1.3931  0.1301
 7787TIP3   OH244851   6.776   0.021   0.476 -0.0785 -0.2115  0.3427
 7787TIP3    H144852   6.764   0.114   0.460 -0.3577 -0.3677 -0.3493
 7787TIP3    H244853   6.698  -0.021   0.439  1.0798 -0.9273 -1.4234
 7788TIP3   OH244854   1.470   1.103   2.605 -0.2709  0.2017 -0.7173
 7788TIP3    H144855   1.456   1.091   2.511 -1.9430 -0.0404 -0.4708
 7788TIP3    H244856   1.523   1.027   2.631  0.6316  0.5259 -1.5176
 7789TIP3   OH244857   1.255   2.819   1.462  0.1044  0.1625  0.6252
 7789TIP3    H144858   1.213   2.890   1.413 -0.5737 -0.5347  0.1830
 7789TIP3    H244859   1.347   2.846   1.469 -0.1223  1.0322  0.3763
 7790TIP3   OH244860   0.080   0.244  14.247  0.5378  0.1073 -0.4819
 7790TIP3    H144861  -0.010   0.209  14.246  0.1492  0.8736  1.6018
 7790TIP3    H244862   0.130   0.181  14.196 -0.8986 -1.2471 -0.3400
 7791TIP3   OH244863   2.909   3.343  16.561 -0.5008 -0.4416 -0.8694
 7791TIP3    H144864   2.854   3.294  16.500  1.7555 -2.3443 -1.5294
 7791TIP3    H244865   2.941   3.277  16.623  0.7766  0.6265 -0.3326
 7792TIP3   OH244866   5.721   3.702   3.191  0.3661 -0.3879 -0.2534
 7792TIP3    H144867   5.665   3.726   3.117  2.0418  1.6431 -0.9606
 7792TIP3    H244868   5.682   3.747   3.266  0.5388  0.3248 -0.5808
 7793TIP3   OH244869   6.015   0.038  17.464  0.3417  0.3305 -0.1320
 7793TIP3    H144870   5.924   0.033  17.490 -0.4128  1.0848 -2.3564
 7793TIP3    H244871   6.060   0.080  17.538 -0.8633 -1.0254  1.4268
 7794TIP3   OH244872   2.313   6.536  13.135 -0.3961  0.2995 -0.2658
 7794TIP3    H144873   2.387   6.563  13.080 -0.8658  0.4796 -0.8141
 7794TIP3    H244874   2.329   6.443  13.151 -1.1194 -0.1854 -2.1281
 7795TIP3   OH244875   5.734   4.916  15.391  0.1413  0.2307 -0.8973
 7795TIP3    H144876   5.717   4.822  15.389  2.0601 -0.2122  0.6092
 7795TIP3    H244877   5.767   4.936  15.303 -0.1523 -0.5200 -1.1834
 7796TIP3   OH244878   3.314   2.377  16.931 -0.0249 -0.1173 -0.0215
 7796TIP3    H144879   3.389   2.423  16.894  1.1390 -0.5364  1.6950
 7796TIP3    H244880   3.320   2.288  16.895 -0.4371  0.1826 -0.8524
 7797TIP3   OH244881   2.796   0.282  16.328  0.6031  0.2693  0.3109
 7797TIP3    H144882   2.864   0.267  16.263 -0.7352 -1.7149 -0.7307
 7797TIP3    H244883   2.805   0.209  16.390  1.8444  2.1001  2.4698
 7798TIP3   OH244884   4.599   2.300  12.937  0.5579 -0.0440 -0.1139
 7798TIP3    H144885   4.542   2.264  13.005 -3.5095  1.9691 -2.1046
 7798TIP3    H244886   4.587   2.242  12.862 -0.5070  1.4319 -1.1495
 7799TIP3   OH244887   1.916   3.934   4.567  0.3906  0.0207  0.6532
 7799TIP3    H144888   1.897   3.976   4.650  1.0365  0.7703  0.4436
 7799TIP3    H244889   1.901   4.002   4.501 -1.4225 -0.9411  0.0090
 7800TIP3   OH244890   3.398   4.783  14.049  0.0662 -1.1705 -0.0473
 7800TIP3    H144891   3.468   4.841  14.080 -1.5628  0.2966  1.1306
 7800TIP3    H244892   3.393   4.800  13.955 -1.4297  2.0421  0.4592
 7801TIP3   OH244893   4.227   0.187   6.653 -0.0225  0.1509  0.0879
 7801TIP3    H144894   4.208   0.281   6.647  1.2014  0.3148 -3.2097
 7801TIP3    H244895   4.318   0.184   6.684 -0.1375  0.0331  0.4143
 7802TIP3   OH244896   0.034   6.555  16.726  0.2145  0.3896  0.2289
 7802TIP3    H144897   0.024   6.461  16.737 -3.2026  0.7209  0.8925
 7802TIP3    H244898   0.128   6.571  16.740  0.6068 -2.6627  1.8642
 7803TIP3   OH244899   3.416   1.142  14.371 -0.2116 -0.1734 -0.2550
 7803TIP3    H144900   3.501   1.152  14.413 -0.2065 -1.5826  0.1138
 7803TIP3    H244901   3.355   1.124  14.444 -0.5864 -0.4797 -0.6371
 7804TIP3   OH244902   2.003   2.844   5.166 -0.0133 -0.3280 -0.2597
 7804TIP3    H144903   1.918   2.885   5.178 -0.5156 -0.9963 -1.3435
 7804TIP3    H244904   2.010   2.781   5.238  0.0573  0.4904  0.4611
 7805TIP3   OH244905   1.320   2.779  14.317  0.0929  0.3274 -0.0960
 7805TIP3    H144906   1.326   2.752  14.409  0.2364  1.4947  0.2434
 7805TIP3    H244907   1.275   2.863  14.319 -1.6136 -0.4910 -1.2617
 7806TIP3   OH244908   4.535   4.662   1.330 -0.4156 -0.5041 -0.1129
 7806TIP3    H144909   4.575   4.575   1.340  1.4340  0.4204  1.0419
 7806TIP3    H244910   4.606   4.717   1.297 -0.8013  1.1064  1.5840
 7807TIP3   OH244911   5.014   3.670   2.583  0.2922  0.3850 -0.2192
 7807TIP3    H144912   5.003   3.715   2.499 -2.1596 -1.0136 -0.7614
 7807TIP3    H244913   4.975   3.583   2.569 -0.9467  0.3766  2.5503
 7808TIP3   OH244914   5.290   2.446  13.992  0.9670 -0.3055  0.1655
 7808TIP3    H144915   5.286   2.511  14.063 -1.7787  0.5356 -0.6319
 7808TIP3    H244916   5.281   2.362  14.037 -0.9456  0.2241  0.9100
 7809TIP3   OH244917   4.108   0.934  11.835 -0.3980 -0.8711 -0.2727
 7809TIP3    H144918   4.109   0.940  11.931  1.7391 -0.2712 -0.2692
 7809TIP3    H244919   4.030   0.983  11.808 -0.1464  0.3614  1.1119
 7810TIP3   OH244920   5.165   1.512   6.219 -0.6288 -0.7609 -0.0520
 7810TIP3    H144921   5.159   1.592   6.272 -1.6757 -0.3991 -0.6878
 7810TIP3    H244922   5.176   1.442   6.284  0.0053 -0.1391  0.5310
 7811TIP3   OH244923   1.255   1.000   2.236  0.1466 -0.0882  0.3110
 7811TIP3    H144924   1.246   0.923   2.292  2.0155  0.3008  1.1944
 7811TIP3    H244925   1.168   1.041   2.239 -0.1075 -0.6587  2.0637
 7812TIP3   OH244926   0.691   3.426  15.859  0.3438 -0.2279 -0.1384
 7812TIP3    H144927   0.773   3.472  15.842  1.5446 -2.6978 -1.6793
 7812TIP3    H244928   0.642   3.434  15.778  0.5067 -1.4705 -0.3748
 7813TIP3   OH244929   2.946   6.128   6.378  0.2141 -0.1507  0.1728
 7813TIP3    H144930   3.010   6.129   6.449 -0.1993  1.9968  0.5727
 7813TIP3    H244931   2.899   6.046   6.390  0.3633  0.0124  2.1999
 7814TIP3   OH244932   5.097   6.371  14.137 -0.0210  0.3118 -0.5843
 7814TIP3    H144933   5.145   6.423  14.201  2.5915 -2.7140  0.1551
 7814TIP3    H244934   5.012   6.355  14.179 -0.2612  2.3827 -0.1220
 7815TIP3   OH244935   6.533   5.342   2.833 -0.2072  0.2189  0.4568
 7815TIP3    H144936   6.603   5.400   2.862  0.0234 -0.8808  2.2507
 7815TIP3    H244937   6.540   5.341   2.738  1.3319  1.2077  0.5342
 7816TIP3   OH244938   2.038   0.828  11.218 -0.3217 -0.3515 -0.2497
 7816TIP3    H144939   1.953   0.794  11.190 -0.6982  0.5394 -0.2177
 7816TIP3    H244940   2.063   0.889  11.148  0.0303 -0.1939  0.0123
 7817TIP3   OH244941   3.652   1.844  13.188 -0.0044  0.1218  0.4513
 7817TIP3    H144942   3.660   1.849  13.093  0.9155 -0.2032  0.4968
 7817TIP3    H244943   3.626   1.932  13.215 -1.2504 -0.0354 -0.1763
 7818TIP3   OH244944   6.025   4.010   0.711  0.0666 -0.3647 -0.0600
 7818TIP3    H144945   5.934   3.983   0.723 -0.0237  0.3971  1.1061
 7818TIP3    H244946   6.060   4.017   0.800  1.5543 -1.5704 -0.5144
 7819TIP3   OH244947   0.831   5.015  11.569  0.6401 -0.0779  0.1555
 7819TIP3    H144948   0.826   4.939  11.512 -1.7719  1.3514 -1.7784
 7819TIP3    H244949   0.835   5.090  11.509 -3.0199  1.5981  1.6241
 7820TIP3   OH244950   5.126   2.889  17.121  0.4855 -0.0219  0.0769
 7820TIP3    H144951   5.193   2.837  17.076 -0.3225  0.4592 -1.7737
 7820TIP3    H244952   5.106   2.960  17.060 -0.4393  0.8580  1.3634
 7821TIP3   OH244953   6.630   2.715   4.690  0.0354  0.2876  0.0192
 7821TIP3    H144954   6.726   2.724   4.689 -0.0786  2.9130  2.0324
 7821TIP3    H244955   6.598   2.804   4.675 -2.0000 -0.0584  1.8491
 7822TIP3   OH244956   0.298   6.668  10.521 -0.4715  0.0841  0.2254
 7822TIP3    H144957   0.369   6.621  10.564 -0.9712 -0.0550  0.9047
 7822TIP3    H244958   0.330   6.682  10.432  0.2799 -0.2495  0.4330
 7823TIP3   OH244959   4.881   4.037  16.438  0.0534  0.1292  0.3907
 7823TIP3    H144960   4.851   3.991  16.360  1.1507  1.3901 -0.8289
 7823TIP3    H244961   4.800   4.057  16.486 -0.4396 -3.6316  1.4064
 7824TIP3   OH244962   5.982   2.460   2.124 -0.9291 -0.5584 -0.4940
 7824TIP3    H144963   6.061   2.430   2.079 -1.2031 -0.9518 -0.7081
 7824TIP3    H244964   6.015   2.509   2.200 -0.4694  0.1438 -1.1392
 7825TIP3   OH244965   2.427   3.821  16.887 -0.0638 -0.7031 -0.3071
 7825TIP3    H144966   2.419   3.775  16.971  1.2595  0.4260  0.4703
 7825TIP3    H244967   2.515   3.801  16.857 -0.5903 -1.2575 -1.5747
 7826TIP3   OH244968   2.128   6.500  14.772 -0.3130 -0.1349  0.0540
 7826TIP3    H144969   2.100   6.515  14.862 -1.0274  0.0782 -0.2007
 7826TIP3    H244970   2.048   6.477  14.725  0.0684 -0.3378 -0.5095
 7827TIP3   OH244971   1.047   1.421  14.232  0.0205 -0.6440  0.2537
 7827TIP3    H144972   1.048   1.425  14.137  1.9696 -0.5303  0.2367
 7827TIP3    H244973   1.058   1.327  14.252  0.3459 -0.5870  0.3504
 7828TIP3   OH244974   6.224   6.658  11.699 -0.5042 -0.2164 -0.1525
 7828TIP3    H144975   6.162   6.721  11.736  0.7425  0.3733  1.0082
 7828TIP3    H244976   6.244   6.693  11.612 -0.5660  0.4683  0.0973
 7829TIP3   OH244977   2.335   4.913   4.866  0.5807  0.0973  0.3525
 7829TIP3    H144978   2.338   4.926   4.961  0.9098 -0.7857  0.4749
 7829TIP3    H244979   2.420   4.943   4.835  0.5777  0.1263  0.3724
 7830TIP3   OH244980   0.175   2.402   1.653  0.3066  0.2282 -0.6623
 7830TIP3    H144981   0.123   2.467   1.606  0.4115  1.1286  0.4282
 7830TIP3    H244982   0.112   2.333   1.675 -0.0213  0.4254 -0.9667
 7831TIP3   OH244983   6.161   6.373  12.061  0.2089 -0.2120 -0.2628
 7831TIP3    H144984   6.175   6.424  11.980 -0.3679 -2.7948 -2.1192
 7831TIP3    H244985   6.151   6.283  12.030 -0.8420 -1.1901  2.6842
 7832TIP3   OH244986   4.956   6.600   1.147  0.0364 -0.3963  0.0521
 7832TIP3    H144987   4.899   6.577   1.073 -2.8300  0.6829  1.7454
 7832TIP3    H244988   4.986   6.516   1.181 -3.2265 -1.3576  0.9464
 7833TIP3   OH244989   0.206   2.489  12.683 -0.2943 -0.2153 -0.2000
 7833TIP3    H144990   0.226   2.582  12.693 -0.5670 -0.2725  0.9392
 7833TIP3    H244991   0.165   2.463  12.765 -0.1332 -1.3716 -0.4546
 7834TIP3   OH244992   4.153   2.440  16.133  0.0296 -0.4678  0.4513
 7834TIP3    H144993   4.093   2.366  16.135 -0.7207 -0.1221 -3.0332
 7834TIP3    H244994   4.240   2.400  16.137 -0.3323 -1.2137  1.9209
 7835TIP3   OH244995   0.854   4.662  11.000 -0.5315 -0.4247 -0.2104
 7835TIP3    H144996   0.887   4.590  10.947  2.3804 -0.0127  0.8261
 7835TIP3    H244997   0.792   4.622  11.061  0.1901 -1.8681 -0.3954
 7836TIP3   OH244998   3.743   5.082   2.273  0.0535 -0.3416 -0.2986
 7836TIP3    H144999   3.780   5.045   2.353 -0.1227  0.8668  0.3597
 7836TIP3    H245000   3.813   5.073   2.208  0.4203 -0.7766  0.1454
 7837TIP3   OH245001   3.645   2.941  16.576 -0.4135  0.7305  0.2105
 7837TIP3    H145002   3.638   2.951  16.481  0.5711 -1.0308 -0.0886
 7837TIP3    H245003   3.708   3.009  16.602 -0.0485  0.6877 -0.5167
 7838TIP3   OH245004   0.036   1.585  12.500 -0.4332  0.0047  0.8298
 7838TIP3    H145005  -0.042   1.533  12.520 -0.1980 -1.1524 -0.9915
 7838TIP3    H245006   0.003   1.662  12.455 -0.5263 -0.8733 -0.6684
 7839TIP3   OH245007   5.218   1.118   2.327 -0.2299  0.0179  0.8557
 7839TIP3    H145008   5.272   1.060   2.381  0.5462  1.0226  1.1997
 7839TIP3    H245009   5.160   1.161   2.389 -0.1277  0.3278  0.7367
 7840TIP3   OH245010   4.421   5.618  14.241 -0.3221 -0.7300 -0.2863
 7840TIP3    H145011   4.345   5.593  14.293  1.6293 -2.4541  2.0251
 7840TIP3    H245012   4.495   5.579  14.287  1.8493 -0.4757 -3.2396
 7841TIP3   OH245013   6.726   4.128  16.609 -0.2481 -0.5381  0.1589
 7841TIP3    H145014   6.749   4.143  16.517 -2.4002 -0.6796 -0.4799
 7841TIP3    H245015   6.796   4.169  16.659  0.5571  0.2779 -1.5537
 7842TIP3   OH245016   2.369   1.077  15.510  0.0166 -0.0609  0.0162
 7842TIP3    H145017   2.385   1.020  15.585 -0.3601  0.6236  0.6439
 7842TIP3    H245018   2.430   1.150  15.522 -0.6044  0.4579  0.1198
 7843TIP3   OH245019   0.921   4.725   6.098 -0.2188 -0.0154 -0.1034
 7843TIP3    H145020   0.993   4.691   6.150 -0.6607 -1.7951 -0.5949
 7843TIP3    H245021   0.844   4.717   6.154 -0.3298  0.2225 -0.2161
 7844TIP3   OH245022   2.261   0.937  13.535  0.1929  0.0413 -0.3040
 7844TIP3    H145023   2.262   0.879  13.611  0.8767  0.0956 -0.2692
 7844TIP3    H245024   2.314   1.012  13.560 -1.9846  1.4850  0.2380
 7845TIP3   OH245025   5.850   2.592  16.528  0.4967  0.2856 -0.0604
 7845TIP3    H145026   5.784   2.524  16.543  2.6512 -2.2533 -1.3765
 7845TIP3    H245027   5.824   2.633  16.446 -0.4508  0.6760  0.4113
 7846TIP3   OH245028   1.642   4.737   4.625  0.4411  0.5877  0.2460
 7846TIP3    H145029   1.604   4.807   4.678  1.8829  0.0119  2.1897
 7846TIP3    H245030   1.705   4.695   4.684  0.5846 -1.4921 -1.2872
 7847TIP3   OH245031   3.097   3.960   5.410 -0.0108 -0.1460 -0.2291
 7847TIP3    H145032   3.073   3.959   5.317 -0.4501 -2.0092 -0.1387
 7847TIP3    H245033   3.192   3.945   5.409 -0.2558 -1.8735 -0.3675
 7848TIP3   OH245034   4.965   4.099   1.175  0.4986 -0.1966 -0.0521
 7848TIP3    H145035   4.903   4.032   1.204  0.8825 -1.0349 -1.0939
 7848TIP3    H245036   5.006   4.061   1.097 -0.9248  2.1861 -2.1063
 7849TIP3   OH245037   6.198   0.090   0.183 -0.0160 -0.2030 -0.0708
 7849TIP3    H145038   6.143   0.050   0.250  0.2111  0.8134  0.7645
 7849TIP3    H245039   6.286   0.090   0.221  1.1200 -3.8495 -2.2835
 7850TIP3   OH245040   0.233   6.471  16.202  0.5861  0.0070 -0.9281
 7850TIP3    H145041   0.158   6.460  16.261 -0.8710  1.1472 -2.4838
 7850TIP3    H245042   0.248   6.384  16.166 -0.5451 -0.0806 -1.2308
 7851TIP3   OH245043   0.809   3.074   0.687 -0.3326  0.0271  0.2111
 7851TIP3    H145044   0.847   3.013   0.750  1.1498  1.1648  0.4688
 7851TIP3    H245045   0.819   3.030   0.602  0.2749 -0.2975  0.4481
 7852TIP3   OH245046   6.039   6.574   6.090  0.1081  0.0507  0.0754
 7852TIP3    H145047   5.984   6.499   6.112  1.1982 -0.3468  1.6284
 7852TIP3    H245048   6.052   6.620   6.173  0.9956  0.9018 -0.5041
 7853TIP3   OH245049   0.387   2.976   4.016 -0.2595 -0.2213 -0.0338
 7853TIP3    H145050   0.361   2.948   3.928 -1.2001 -1.0524  0.4800
 7853TIP3    H245051   0.482   2.983   4.012 -0.1588 -1.5743 -0.7654
 7854TIP3   OH245052   2.671   3.369   3.459 -0.5030  0.2215 -0.4801
 7854TIP3    H145053   2.715   3.450   3.485 -0.0487 -0.2127  0.1494
 7854TIP3    H245054   2.579   3.392   3.452 -0.7327  0.3245  1.8962
 7855TIP3   OH245055   6.411   1.488   1.342 -0.4781 -0.1896  0.1051
 7855TIP3    H145056   6.362   1.417   1.301  3.1501 -2.7065 -0.4514
 7855TIP3    H245057   6.391   1.479   1.435 -0.2904 -1.8942  0.0270
 7856TIP3   OH245058   1.602   3.017   4.002 -0.2846 -0.1427  0.3328
 7856TIP3    H145059   1.533   3.036   4.065 -0.4634 -0.4259  0.2199
 7856TIP3    H245060   1.682   3.011   4.055 -0.9088 -4.1310  1.1135
 7857TIP3   OH245061   0.070   2.861   4.348  0.3053 -0.2348 -0.5289
 7857TIP3    H145062   0.112   2.943   4.373  1.4997 -0.5096 -1.5028
 7857TIP3    H245063   0.108   2.840   4.262  0.3392 -1.9939 -0.1245
 7858TIP3   OH245064   4.640   5.641   2.077  0.1252  0.5371 -0.4083
 7858TIP3    H145065   4.610   5.602   1.995 -0.1342  2.3473 -1.2408
 7858TIP3    H245066   4.560   5.674   2.118  0.5345  2.6877 -1.1640
 7859TIP3   OH245067   4.172   5.750  14.528  0.0207 -0.1093  0.5461
 7859TIP3    H145068   4.133   5.690  14.464 -0.1356  1.7295 -1.1930
 7859TIP3    H245069   4.229   5.806  14.475 -0.8774  2.1403  1.8379
 7860TIP3   OH245070   4.164   2.243   1.553 -0.0054  0.0230 -0.8373
 7860TIP3    H145071   4.083   2.265   1.599  0.0912 -1.0267 -0.1191
 7860TIP3    H245072   4.135   2.214   1.467 -0.1690  2.2386 -1.5877
 7861TIP3   OH245073   5.133   3.326   4.835 -0.0872  0.1667  0.1136
 7861TIP3    H145074   5.056   3.342   4.890  1.4345  0.7767  2.1831
 7861TIP3    H245075   5.098   3.320   4.746 -2.7643 -1.6163  1.1793
 7862TIP3   OH245076   0.678   3.106  16.801  0.2343  0.0925 -0.1018
 7862TIP3    H145077   0.700   3.015  16.819  1.4690  0.2349 -0.7858
 7862TIP3    H245078   0.705   3.154  16.880 -0.0716 -0.0877  0.1108
 7863TIP3   OH245079   0.285   4.175   4.812  0.0666 -0.0882 -0.3152
 7863TIP3    H145080   0.197   4.152   4.785  0.8969 -0.9587 -2.4541
 7863TIP3    H245081   0.290   4.270   4.800 -0.9577  0.1916  1.1538
 7864TIP3   OH245082   5.256   2.057  11.129  0.0010 -0.5274 -0.0583
 7864TIP3    H145083   5.262   1.968  11.095 -0.3958 -0.7992  0.5757
 7864TIP3    H245084   5.342   2.095  11.111  0.6453 -1.4792  0.8598
 7865TIP3   OH245085   5.067   4.892   3.838  0.3317 -0.2648 -0.2636
 7865TIP3    H145086   5.025   4.876   3.753  0.4159  2.6223 -0.9807
 7865TIP3    H245087   4.996   4.889   3.901 -0.0139 -0.8096 -0.6703
 7866TIP3   OH245088   2.982   1.166  12.262 -0.5872 -0.1267  0.1865
 7866TIP3    H145089   2.887   1.178  12.270 -1.1724 -2.3156 -1.9719
 7866TIP3    H245090   3.013   1.153  12.352 -2.3031  0.6888  0.9373
 7867TIP3   OH245091   6.361   1.137   1.531  0.5564  0.5332 -0.0506
 7867TIP3    H145092   6.410   1.056   1.545 -0.6206 -0.3835 -0.9652
 7867TIP3    H245093   6.418   1.206   1.565  2.4364 -0.4743 -0.9985
 7868TIP3   OH245094   2.395   0.998  17.251  0.0626 -0.0685  0.1074
 7868TIP3    H145095   2.477   1.045  17.264  0.1600  0.0093 -0.6891
 7868TIP3    H245096   2.415   0.934  17.182 -1.0434  1.3318 -1.6034
 7869TIP3   OH245097   4.982   3.308  13.485 -0.1856  0.3037 -0.3155
 7869TIP3    H145098   4.909   3.354  13.444 -0.0338  0.8180 -0.0242
 7869TIP3    H245099   5.052   3.373  13.488 -0.7244  0.8831  2.3339
 7870TIP3   OH245100   4.754   1.916  12.808 -0.5900  0.1175  0.0212
 7870TIP3    H145101   4.662   1.922  12.783 -1.3395  1.2659  2.6612
 7870TIP3    H245102   4.769   1.823  12.823 -0.8316 -0.2671 -1.8691
 7871TIP3   OH245103   6.508   0.967  14.537 -0.2697  0.0360 -0.1177
 7871TIP3    H145104   6.598   0.967  14.502 -0.3030  0.3140 -0.1988
 7871TIP3    H245105   6.457   0.921  14.470 -0.5227  1.4313 -0.9280
 7872TIP3   OH245106   4.309   0.058  14.915  0.0348 -0.3748 -0.1441
 7872TIP3    H145107   4.229   0.036  14.962 -0.4563 -1.3347 -1.3765
 7872TIP3    H245108   4.280   0.083  14.827  1.0871 -1.1582 -0.7500
 7873TIP3   OH245109   3.315   0.597   1.487  0.4994 -0.5089 -0.7551
 7873TIP3    H145110   3.316   0.684   1.528  0.4170 -0.8374 -0.0344
 7873TIP3    H245111   3.401   0.590   1.445  0.4506 -0.0214 -0.9439
 7874TIP3   OH245112   1.687   5.355  16.631 -0.4922 -0.6322 -0.2894
 7874TIP3    H145113   1.608   5.331  16.680 -1.4130 -0.1247 -1.4558
 7874TIP3    H245114   1.745   5.279  16.639 -1.1459 -1.0611  0.4936
 7875TIP3   OH245115   2.769   6.231   5.407  0.2964  0.0057 -0.1684
 7875TIP3    H145116   2.701   6.296   5.422  0.4167 -0.0978  0.8748
 7875TIP3    H245117   2.785   6.234   5.312  0.8266  1.9951 -0.0465
 7876TIP3   OH245118   0.889   4.591  14.465 -0.1016  0.0665 -0.3349
 7876TIP3    H145119   0.944   4.598  14.387  1.9873  0.8543  1.1247
 7876TIP3    H245120   0.850   4.504  14.458  1.5721 -0.6686 -1.3293
 7877TIP3   OH245121   2.829   0.066  12.482 -0.0378  0.0069  0.5985
 7877TIP3    H145122   2.733   0.069  12.487  0.0392  0.8108  1.9015
 7877TIP3    H245123   2.848   0.099  12.394 -0.8920  2.2181  1.1622
 7878TIP3   OH245124   1.816   6.410  14.304  0.1272 -0.4142  0.4475
 7878TIP3    H145125   1.857   6.336  14.259  0.5185 -0.5134  0.9708
 7878TIP3    H245126   1.853   6.409  14.392  0.5170  0.7024  0.3128
 7879TIP3   OH245127   2.867   4.819   4.073 -0.2111  0.1034  0.3971
 7879TIP3    H145128   2.818   4.818   3.991  0.2939 -0.8201  0.0883
 7879TIP3    H245129   2.839   4.899   4.117 -0.8479  0.3650 -0.4574
 7880TIP3   OH245130   5.893   0.071   4.774  0.2846 -0.0393  0.6204
 7880TIP3    H145131   5.890   0.159   4.736 -1.2820 -0.2009  0.2994
 7880TIP3    H245132   5.898   0.085   4.868  0.3723  0.3925  0.5513
 7881TIP3   OH245133   0.650   3.777   0.176 -0.1483 -0.3823 -0.0287
 7881TIP3    H145134   0.562   3.743   0.159 -0.3015 -0.3646  0.7083
 7881TIP3    H245135   0.640   3.834   0.252  0.7738 -1.6323  1.0675
 7882TIP3   OH245136   3.551   0.454   4.184  0.2031  0.3703  0.1365
 7882TIP3    H145137   3.607   0.398   4.238  2.9021  2.9803  0.3364
 7882TIP3    H245138   3.566   0.424   4.095 -0.9931 -1.2585  0.4382
 7883TIP3   OH245139   5.782   6.578  15.968 -0.3339  0.5840  0.1077
 7883TIP3    H145140   5.755   6.617  15.885  0.1198  1.7873  0.5072
 7883TIP3    H245141   5.738   6.630  16.035 -0.3527 -0.1019  0.6442
 7884TIP3   OH245142   2.787   5.322  12.503 -0.8641 -0.2714 -0.5107
 7884TIP3    H145143   2.761   5.391  12.443  0.7661  0.3190 -0.5816
 7884TIP3    H245144   2.872   5.292  12.470  1.0484  1.3813  2.4744
 7885TIP3   OH245145   3.039   0.127   5.764  0.0192  0.2315  0.4250
 7885TIP3    H145146   3.030   0.113   5.859  0.8198 -0.4502  0.4141
 7885TIP3    H245147   3.056   0.220   5.755  2.2500 -0.0343  1.1666
 7886TIP3   OH245148   4.503   2.547  13.350 -0.2911 -0.1776  0.5627
 7886TIP3    H145149   4.599   2.546  13.351 -0.1901  2.0589 -0.0950
 7886TIP3    H245150   4.477   2.482  13.416  1.6567 -0.9935  0.5843
 7887TIP3   OH245151   6.552   4.236  15.731  0.0997 -0.6656 -0.1122
 7887TIP3    H145152   6.544   4.196  15.818 -0.9931  2.4836  1.4078
 7887TIP3    H245153   6.462   4.244  15.700  0.3962 -0.7027 -1.0145
 7888TIP3   OH245154   1.804   1.970  15.454 -0.4747  0.0966  0.0005
 7888TIP3    H145155   1.715   1.938  15.466 -0.1712 -0.4717  0.8936
 7888TIP3    H245156   1.842   1.969  15.542  0.1758  1.0521 -0.2566
 7889TIP3   OH245157   2.919   2.889   5.073  0.1281  0.0849 -0.1233
 7889TIP3    H145158   3.005   2.865   5.110  1.7003  2.9148 -1.6085
 7889TIP3    H245159   2.919   2.849   4.986 -0.2504 -0.2454  0.0273
 7890TIP3   OH245160   4.704   3.817  15.247 -0.3215 -0.6666  0.9097
 7890TIP3    H145161   4.674   3.866  15.171  1.7549  0.8538  0.9791
 7890TIP3    H245162   4.756   3.746  15.211  0.9253  0.2389  0.8712
 7891TIP3   OH245163   0.681   0.648  16.827  0.5398 -0.2822  0.1296
 7891TIP3    H145164   0.662   0.565  16.783  0.4928  0.7432 -1.8519
 7891TIP3    H245165   0.777   0.656  16.823  0.5343 -0.1693  0.2090
 7892TIP3   OH245166   4.547   0.185   5.817  0.3064 -0.3323  0.3756
 7892TIP3    H145167   4.458   0.178   5.851 -1.0050  1.2942 -2.3981
 7892TIP3    H245168   4.546   0.264   5.764  3.2046 -0.7328 -0.4158
 7893TIP3   OH245169   1.397   0.713  11.344 -0.1364  0.2320  0.4626
 7893TIP3    H145170   1.420   0.801  11.374 -1.6426 -0.1368  2.9474
 7893TIP3    H245171   1.479   0.678  11.308  0.4887  2.5938 -0.5665
 7894TIP3   OH245172   4.082   0.687   2.963  0.6569  0.2491  0.1339
 7894TIP3    H145173   4.164   0.734   2.973 -0.4091  1.7599  2.5072
 7894TIP3    H245174   4.086   0.617   3.028  0.5652 -0.5280 -0.6636
 7895TIP3   OH245175   5.653   4.285  11.600  0.2135 -0.3179  0.3197
 7895TIP3    H145176   5.585   4.269  11.665 -2.8536  0.1365 -2.5057
 7895TIP3    H245177   5.690   4.198  11.582 -0.2587 -0.7207  1.2396
 7896TIP3   OH245178   5.065   4.135  11.974  0.6299 -0.0930  0.3570
 7896TIP3    H145179   5.151   4.112  11.939  0.0085  0.1334 -1.3950
 7896TIP3    H245180   5.083   4.204  12.038  1.6225  1.0567 -1.1030
 7897TIP3   OH245181   2.760   5.040   1.646 -0.5261  0.3492  0.9782
 7897TIP3    H145182   2.805   5.091   1.580 -1.1974  0.5033  0.6319
 7897TIP3    H245183   2.668   5.067   1.639 -0.5500  0.6427  2.2238
 7898TIP3   OH245184   2.347   3.458  12.640  0.4214 -0.6439 -0.1165
 7898TIP3    H145185   2.410   3.526  12.663 -1.2491  0.7370  0.5875
 7898TIP3    H245186   2.277   3.505  12.595 -1.4032 -1.6564  1.5516
 7899TIP3   OH245187   1.113   1.396   1.148 -0.3978  0.3381  0.4472
 7899TIP3    H145188   1.142   1.345   1.223  0.0436  0.3630  0.2960
 7899TIP3    H245189   1.030   1.435   1.176  0.4699  1.5514  1.4584
 7900TIP3   OH245190   4.196   3.955  10.526  0.7968 -0.0699  0.1304
 7900TIP3    H145191   4.153   3.968  10.610  1.9137 -2.7781  1.2487
 7900TIP3    H245192   4.185   4.038  10.480 -1.6475  0.8242  2.0982
 7901TIP3   OH245193   3.562   2.866   5.748  0.9009 -0.0356  0.4876
 7901TIP3    H145194   3.582   2.778   5.716  1.8578 -0.0052  0.9750
 7901TIP3    H245195   3.644   2.897   5.787  0.3220  0.7133  1.1433
 7902TIP3   OH245196   5.689   2.651   0.185 -0.2961 -0.3444 -0.3385
 7902TIP3    H145197   5.721   2.566   0.155  0.2015 -0.4046  0.3478
 7902TIP3    H245198   5.682   2.703   0.105  2.6164  0.0459 -0.4337
 7903TIP3   OH245199   2.372   2.782   1.214 -0.0688 -0.1616  0.1950
 7903TIP3    H145200   2.399   2.856   1.269 -0.6999  0.3009 -0.0999
 7903TIP3    H245201   2.448   2.724   1.213  0.0931  0.0020  1.2379
 7904TIP3   OH245202   3.372   2.988   1.209  0.0955  0.0626 -0.5227
 7904TIP3    H145203   3.433   3.052   1.245 -0.8753  1.3314 -1.0863
 7904TIP3    H245204   3.369   3.007   1.116 -0.0887 -0.9197 -0.7275
 7905TIP3   OH245205   1.978   3.083   5.740  0.0136  0.3721 -0.0888
 7905TIP3    H145206   2.069   3.105   5.764 -0.4248  1.4263  0.6997
 7905TIP3    H245207   1.925   3.134   5.801 -1.1200 -0.6060 -0.2336
 7906TIP3   OH245208   4.829   3.292   0.304  0.5298  0.3314  0.3699
 7906TIP3    H145209   4.829   3.260   0.394 -0.0175  1.0710  0.6489
 7906TIP3    H245210   4.741   3.274   0.272 -0.4636  3.1029  1.1616
 7907TIP3   OH245211   4.060   6.089  14.441  0.2422  0.3541 -0.3387
 7907TIP3    H145212   4.015   6.173  14.453 -0.5238  0.3602 -2.7607
 7907TIP3    H245213   3.991   6.023  14.444  0.6030 -0.0292 -0.2651
 7908TIP3   OH245214   1.197   1.893  15.272  0.0160  0.1299 -0.2436
 7908TIP3    H145215   1.165   1.938  15.194 -0.9484  1.7416  1.0314
 7908TIP3    H245216   1.292   1.907  15.271  0.1893 -0.8737 -1.6944
 7909TIP3   OH245217   5.716   0.949  13.405  0.2115  0.2676 -0.0385
 7909TIP3    H145218   5.747   1.005  13.334 -3.0244  2.6760  0.2146
 7909TIP3    H245219   5.788   0.888  13.421  2.3927  1.8057 -3.0451
 7910TIP3   OH245220   5.563   2.486   5.136 -0.4632 -0.4326  0.0840
 7910TIP3    H145221   5.546   2.396   5.109  0.2018 -0.2421 -1.0468
 7910TIP3    H245222   5.487   2.510   5.188 -1.4230 -1.1142 -0.9586
 7911TIP3   OH245223   6.339   5.433  13.235  0.0787  0.1539 -0.5420
 7911TIP3    H145224   6.380   5.431  13.321 -1.8070  0.1177  0.4021
 7911TIP3    H245225   6.284   5.511  13.237  1.0570  0.9600 -2.2630
 7912TIP3   OH245226   3.719   6.356  14.237 -0.2945 -0.2048 -0.7668
 7912TIP3    H145227   3.699   6.327  14.326 -0.4608  0.3643 -0.6137
 7912TIP3    H245228   3.787   6.423  14.248 -1.6555  1.2384 -0.8982
 7913TIP3   OH245229   3.914   2.002  12.986 -0.1240  0.1103  0.7988
 7913TIP3    H145230   3.832   1.953  12.983 -0.8263  1.3029 -0.3478
 7913TIP3    H245231   3.975   1.950  12.934 -0.0893 -0.8527  1.7704
 7914TIP3   OH245232   0.455   3.703  14.261  0.3956  0.4142 -0.2912
 7914TIP3    H145233   0.447   3.779  14.318 -0.4012  0.1214  0.0076
 7914TIP3    H245234   0.500   3.735  14.184  0.4703  1.0843  0.0242
 7915TIP3   OH245235   1.915   5.926  14.899  0.1907 -0.1852  0.1532
 7915TIP3    H145236   1.922   6.016  14.931 -2.1207  0.1621 -0.2026
 7915TIP3    H245237   1.903   5.874  14.978  0.0156 -0.0018  0.2483
 7916TIP3   OH245238   1.577   5.834  16.986  0.5713  0.0631  0.5830
 7916TIP3    H145239   1.638   5.902  16.957  1.1279 -0.2469  1.0016
 7916TIP3    H245240   1.565   5.778  16.909 -0.8097  1.2761 -0.1183
 7917TIP3   OH245241   4.259   0.701  12.144  0.0277 -1.0127 -0.5714
 7917TIP3    H145242   4.333   0.667  12.093 -0.3496 -0.8648 -1.2186
 7917TIP3    H245243   4.233   0.781  12.099 -0.2727 -0.8474 -0.1130
 7918TIP3   OH245244   2.336   0.599  14.844 -0.2480  0.4073 -0.5866
 7918TIP3    H145245   2.368   0.667  14.785 -1.0520  1.1337 -0.2133
 7918TIP3    H245246   2.342   0.639  14.931  1.1854 -0.7426 -0.1091
 7919TIP3   OH245247   2.070   3.652   4.193 -0.4680  0.3098 -0.1159
 7919TIP3    H145248   2.066   3.747   4.202 -1.3980  0.4054 -1.2184
 7919TIP3    H245249   2.145   3.636   4.136 -2.0262  0.6575 -2.4186
 7920TIP3   OH245250   5.731   4.479  16.290  0.4360  0.2804 -0.4705
 7920TIP3    H145251   5.712   4.554  16.233 -1.1470  0.1770 -0.1101
 7920TIP3    H245252   5.733   4.516  16.379 -1.6908 -0.2542 -0.1369
 7921TIP3   OH245253   4.788   2.410   0.827 -0.3306  0.8618  0.2815
 7921TIP3    H145254   4.692   2.414   0.827 -0.4830 -1.4355  0.0517
 7921TIP3    H245255   4.812   2.421   0.735 -0.6089 -1.3854 -0.1094
 7922TIP3   OH245256   3.999   6.224  12.657 -0.2043 -0.0456  0.4229
 7922TIP3    H145257   4.016   6.195  12.567 -0.6198  1.5631 -0.2195
 7922TIP3    H245258   3.915   6.269  12.652  1.4255  3.4262  0.7036
 7923TIP3   OH245259   2.760   5.716  13.760  0.9605 -0.2300  0.4436
 7923TIP3    H145260   2.691   5.657  13.730  1.6048 -0.6275 -0.2662
 7923TIP3    H245261   2.792   5.758  13.680  0.6305  0.9637  0.9149
 7924TIP3   OH245262   3.883   0.509   6.119  0.5360  0.1551  0.5238
 7924TIP3    H145263   3.851   0.424   6.089  0.6026 -0.1798  1.3755
 7924TIP3    H245264   3.824   0.534   6.190  1.9243 -0.3383  1.9193
 7925TIP3   OH245265   2.306   0.014   3.600  0.1960 -0.3553  0.3036
 7925TIP3    H145266   2.254  -0.042   3.543  1.4674 -1.2194 -0.0438
 7925TIP3    H245267   2.317  -0.037   3.681 -0.7681  0.4550  0.9666
 7926TIP3   OH245268   6.114   0.943   2.808 -0.7483 -0.1985 -0.6206
 7926TIP3    H145269   6.161   0.912   2.885 -0.2418 -1.3819 -1.3709
 7926TIP3    H245270   6.117   1.038   2.814  2.7064 -0.1551 -1.1727
 7927TIP3   OH245271   0.845   6.099  13.068 -0.3072  0.1283  0.7506
 7927TIP3    H145272   0.864   6.006  13.060 -2.5833 -0.2835 -0.9898
 7927TIP3    H245273   0.784   6.105  13.141 -1.7910 -0.0916 -0.4252
 7928TIP3   OH245274   2.382   3.021  14.849 -0.2856  0.2844 -0.1469
 7928TIP3    H145275   2.393   3.092  14.912 -1.4075 -0.4945  0.9554
 7928TIP3    H245276   2.423   2.945  14.891 -0.8898 -0.2012 -0.4243
 7929TIP3   OH245277   3.551   1.378  15.630  0.0054 -0.6303  0.0923
 7929TIP3    H145278   3.526   1.286  15.619  1.6091 -0.9930 -0.7977
 7929TIP3    H245279   3.642   1.382  15.600 -0.2446  1.3900 -0.5175
 7930TIP3   OH245280   1.853   5.758   2.563 -0.0055 -0.3795  0.5582
 7930TIP3    H145281   1.766   5.794   2.579  0.7696  1.8936  0.1103
 7930TIP3    H245282   1.864   5.690   2.630 -2.4016 -1.3214  0.0756
 7931TIP3   OH245283   4.122   5.148   3.315 -0.4504  0.1388 -0.4035
 7931TIP3    H145284   4.042   5.123   3.361  0.2268  0.4701  1.0354
 7931TIP3    H245285   4.153   5.226   3.361  1.0358 -0.3610 -0.4903
 7932TIP3   OH245286   2.009   0.155   6.575 -0.6063 -0.1684  0.5744
 7932TIP3    H145287   2.016   0.240   6.532 -0.3323 -0.2829  0.3907
 7932TIP3    H245288   1.917   0.149   6.602 -0.5195  0.3935  1.0123
 7933TIP3   OH245289   3.274   2.399  13.462 -0.2105 -0.1747  0.3391
 7933TIP3    H145290   3.293   2.412  13.369 -0.0043  0.6571  0.4941
 7933TIP3    H245291   3.179   2.405  13.467 -0.2583 -0.6647  0.1217
 7934TIP3   OH245292   1.741   4.306  16.086 -0.4261  0.1759  0.0671
 7934TIP3    H145293   1.721   4.281  15.996  1.9812 -0.0358 -0.4789
 7934TIP3    H245294   1.704   4.235  16.139 -2.0687  0.4171 -0.7034
 7935TIP3   OH245295   1.603   5.584  10.359  0.2981  0.8000 -0.5023
 7935TIP3    H145296   1.692   5.620  10.354  0.1284  1.4097  0.5931
 7935TIP3    H245297   1.593   5.557  10.450 -0.6731  0.8216 -0.5942
 7936TIP3   OH245298   5.366   2.151   3.453 -0.3539  0.0572  0.6886
 7936TIP3    H145299   5.375   2.091   3.527 -0.4900 -0.6652  0.1336
 7936TIP3    H245300   5.452   2.191   3.444  0.7748 -2.4358 -0.9192
 7937TIP3   OH245301   5.767   3.179  16.723 -0.4349  0.1350 -0.4594
 7937TIP3    H145302   5.731   3.138  16.645 -0.4352 -3.0704  1.0490
 7937TIP3    H245303   5.691   3.217  16.768 -0.8177 -0.2164 -0.8110
 7938TIP3   OH245304   1.126   3.616   5.110 -0.3344  0.6265  0.0255
 7938TIP3    H145305   1.067   3.544   5.090  1.5683 -0.4233 -2.4011
 7938TIP3    H245306   1.203   3.574   5.148  0.8264  1.2851 -1.4750
 7939TIP3   OH245307   4.097   0.951   6.024 -0.0525  0.2511 -0.4168
 7939TIP3    H145308   4.176   1.004   6.023  0.2133 -0.1392 -0.1775
 7939TIP3    H245309   4.030   1.009   6.061  0.3353  0.2788  0.2522
 7940TIP3   OH245310   4.892   0.593  12.045  0.2550 -0.2320  0.2026
 7940TIP3    H145311   4.850   0.509  12.065  0.9042 -0.9390 -1.2455
 7940TIP3    H245312   4.851   0.620  11.962  0.5165  0.5532  0.3263
 7941TIP3   OH245313   3.244   0.762   4.777  0.2040  0.4325  0.1387
 7941TIP3    H145314   3.154   0.782   4.753  0.4678  0.3106 -0.9798
 7941TIP3    H245315   3.286   0.734   4.696  0.2420 -3.3050  1.2416
 7942TIP3   OH245316   0.078   2.366  11.621 -0.4882 -0.3113 -0.1206
 7942TIP3    H145317   0.159   2.368  11.672 -0.7871  0.9934  0.3267
 7942TIP3    H245318   0.084   2.285  11.571  0.4908 -0.8897  0.8828
 7943TIP3   OH245319   5.894   3.160   0.622  0.4531 -0.4738 -0.7573
 7943TIP3    H145320   5.843   3.080   0.634  2.1737 -1.7733 -1.6472
 7943TIP3    H245321   5.959   3.157   0.692 -0.3433  0.9341  0.0904
 7944TIP3   OH245322   0.949   5.550   3.632  0.7024  0.1055 -0.2776
 7944TIP3    H145323   1.004   5.610   3.582 -1.4351  1.3019 -1.3447
 7944TIP3    H245324   0.943   5.471   3.578  0.5807  0.3623 -0.6427
 7945TIP3   OH245325   4.679   4.521  10.572 -0.2642 -1.0383 -0.2835
 7945TIP3    H145326   4.622   4.574  10.628 -2.0618 -0.9517 -2.1097
 7945TIP3    H245327   4.748   4.581  10.544  1.0009 -1.2033  2.1345
 7946TIP3   OH245328   6.604   0.233  15.069  0.8696 -0.0292  0.0064
 7946TIP3    H145329   6.591   0.202  14.979 -0.7543  3.2746 -1.0750
 7946TIP3    H245330   6.662   0.168  15.109 -1.3972 -3.7298 -2.1523
 7947TIP3   OH245331   3.230   1.135  13.394 -0.3558  0.2851 -0.3517
 7947TIP3    H145332   3.150   1.117  13.346 -0.7805  1.5411 -0.1581
 7947TIP3    H245333   3.201   1.171  13.477  0.3952  0.9766 -0.3720
 7948TIP3   OH245334   2.332   4.486   4.751  0.2141 -0.2654  0.0244
 7948TIP3    H145335   2.396   4.483   4.679  1.6368  0.2977  1.2071
 7948TIP3    H245336   2.381   4.454   4.827 -1.5203 -1.7331  0.5796
 7949TIP3   OH245337   4.620   0.642  14.911 -0.8064  0.3571  0.1670
 7949TIP3    H145338   4.664   0.558  14.896  1.0772  1.3495 -0.2066
 7949TIP3    H245339   4.546   0.620  14.968 -1.2553 -1.7607 -1.1191
 7950TIP3   OH245340   5.544   4.552  16.755 -0.2193  0.0415 -0.2171
 7950TIP3    H145341   5.528   4.551  16.849  0.3187 -2.1806 -0.0976
 7950TIP3    H245342   5.459   4.529  16.717 -0.1265 -0.3062 -0.2114
 7951TIP3   OH245343   3.083   1.449  12.281 -0.6566  0.2174  0.2342
 7951TIP3    H145344   2.991   1.446  12.308 -0.9798 -0.3895 -0.8345
 7951TIP3    H245345   3.133   1.428  12.360 -1.4431  0.4143  0.7932
 7952TIP3   OH245346   1.844   6.390   3.795 -0.1100 -0.0792  0.3422
 7952TIP3    H145347   1.798   6.359   3.717 -0.2511  0.8713  0.0267
 7952TIP3    H245348   1.896   6.315   3.824 -1.1936 -0.9015  0.2063
 7953TIP3   OH245349   1.500   5.633   0.873 -0.5615  0.1881 -1.0567
 7953TIP3    H145350   1.560   5.592   0.811  1.0471  1.3113 -0.3321
 7953TIP3    H245351   1.428   5.666   0.819  0.3763  0.3927 -2.2215
 7954TIP3   OH245352   2.384   6.163   3.323 -0.2136  0.2318 -0.1814
 7954TIP3    H145353   2.444   6.231   3.353  0.7574 -0.8318  0.3853
 7954TIP3    H245354   2.308   6.172   3.381  0.7662 -0.4389  1.2804
 7955TIP3   OH245355   3.935   3.155   5.956  0.0081 -0.2835  0.1039
 7955TIP3    H145356   3.968   3.191   6.039 -0.7473 -0.2770  0.4143
 7955TIP3    H245357   3.957   3.222   5.891  1.8681 -0.9110  0.0305
 7956TIP3   OH245358   4.114   5.287   4.837  0.1104  0.2592  0.7626
 7956TIP3    H145359   4.184   5.225   4.858 -0.3927 -0.5580  0.1035
 7956TIP3    H245360   4.050   5.276   4.908  0.1388  0.2016  0.7794
 7957TIP3   OH245361   4.381   6.199  12.770 -0.1079 -0.6218 -0.5665
 7957TIP3    H145362   4.330   6.239  12.700  1.9627  2.2119 -0.6061
 7957TIP3    H245363   4.343   6.236  12.850 -0.2098 -1.1067 -0.3878
 7958TIP3   OH245364   6.770   6.252   3.057 -0.0299 -0.3424 -0.1064
 7958TIP3    H145365   6.675   6.251   3.067 -0.0939 -0.7476 -0.7276
 7958TIP3    H245366   6.799   6.170   3.096  0.0734 -0.2060  0.1090
 7959TIP3   OH245367   4.592   5.339   6.338  0.0563  0.6274  0.1465
 7959TIP3    H145368   4.524   5.288   6.383  0.3584 -1.1100 -1.2677
 7959TIP3    H245369   4.614   5.409   6.400 -2.6179  0.9467  0.8616
 7960TIP3   OH245370   5.585   4.438  14.618 -0.3300 -0.3870 -0.6476
 7960TIP3    H145371   5.608   4.510  14.676 -0.2917 -1.0002  0.1196
 7960TIP3    H245372   5.665   4.420  14.568 -0.7224  0.9811 -1.8510
 7961TIP3   OH245373   4.395   3.189  16.804  0.6737 -0.0247  0.2032
 7961TIP3    H145374   4.455   3.248  16.850 -1.2064  1.2142  1.1821
 7961TIP3    H245375   4.431   3.102  16.821  1.6641  0.6087  1.5957
 7962TIP3   OH245376   2.372   4.929  15.797  0.0348  0.4339  0.3424
 7962TIP3    H145377   2.369   4.870  15.873  1.1747  0.2889  0.2855
 7962TIP3    H245378   2.452   4.904  15.751  0.1875  1.5993 -0.0388
 7963TIP3   OH245379   5.064   1.527   1.058 -1.0253 -0.7348 -0.1593
 7963TIP3    H145380   5.144   1.528   1.005 -1.7019 -1.3882 -1.2304
 7963TIP3    H245381   5.030   1.616   1.052 -1.4435 -0.9554 -1.4136
 7964TIP3   OH245382   6.333   1.513   1.630  0.3941  1.0807 -0.3927
 7964TIP3    H145383   6.264   1.474   1.684  1.2251 -0.7817 -0.5815
 7964TIP3    H245384   6.349   1.599   1.669 -1.0446  0.9702  0.4991
 7965TIP3   OH245385   5.772   3.896  17.342 -0.1326  0.1419  0.0099
 7965TIP3    H145386   5.750   3.950  17.418 -0.4732  0.9473 -0.6623
 7965TIP3    H245387   5.828   3.827  17.378  1.9575  2.0432  0.5601
 7966TIP3   OH245388   3.648   5.245  12.890 -0.2774 -0.2267 -0.0863
 7966TIP3    H145389   3.709   5.172  12.900 -0.6567 -0.6214 -0.6083
 7966TIP3    H245390   3.594   5.243  12.970  0.3644  0.1088  0.3622
 7967TIP3   OH245391   3.314   4.067   1.334 -0.0051 -0.0981  0.9350
 7967TIP3    H145392   3.379   4.060   1.404 -0.2470  2.8642  1.5952
 7967TIP3    H245393   3.362   4.105   1.260 -0.4108 -0.3373  0.5437
 7968TIP3   OH245394   2.278   5.954  10.820  0.3210 -0.1320 -0.0542
 7968TIP3    H145395   2.223   5.958  10.742  1.5269 -0.8498 -0.9698
 7968TIP3    H245396   2.216   5.959  10.893 -0.9512 -0.7978 -1.0445
 7969TIP3   OH245397   6.553   6.638  15.052 -0.2036  0.1970  0.0647
 7969TIP3    H145398   6.511   6.689  15.121  0.8046 -1.1459  1.7401
 7969TIP3    H245399   6.638   6.681  15.040  0.9009 -1.3136  1.9061
 7970TIP3   OH245400   0.608   3.574   3.343 -0.4703  0.0833 -0.1502
 7970TIP3    H145401   0.610   3.506   3.410 -2.3008 -1.2043 -1.3105
 7970TIP3    H245402   0.689   3.561   3.293  0.6152  0.6702  1.3657
 7971TIP3   OH245403   6.738   5.085  15.286 -0.3464 -0.0071 -0.1770
 7971TIP3    H145404   6.769   5.018  15.347 -1.3306 -2.6490 -2.3835
 7971TIP3    H245405   6.781   5.064  15.203 -1.3424  1.6041 -1.1527
 7972TIP3   OH245406   1.050   5.193  14.036 -0.3458  0.1498  0.2863
 7972TIP3    H145407   0.989   5.119  14.037 -1.1804  0.7567 -1.4202
 7972TIP3    H245408   1.068   5.211  14.128 -0.4969 -1.8566  0.7458
 7973TIP3   OH245409   2.665   4.524   3.919 -0.0355  0.3722 -0.0755
 7973TIP3    H145410   2.598   4.545   3.853  0.4058 -1.6657 -1.2928
 7973TIP3    H245411   2.616   4.512   4.000 -0.9465  0.5396 -0.5857
 7974TIP3   OH245412   0.943   1.987   0.024  0.0230 -0.0794 -0.1459
 7974TIP3    H145413   0.850   1.986  -0.001  0.1680  1.7621 -0.8882
 7974TIP3    H245414   0.941   2.008   0.118 -0.2970  0.8805 -0.3571
 7975TIP3   OH245415   6.153   0.121  16.580 -0.3223  0.1354  0.0377
 7975TIP3    H145416   6.152   0.078  16.495 -0.6623  0.0354  0.0908
 7975TIP3    H245417   6.245   0.128  16.603  0.0701  3.0443 -1.8063
 7976TIP3   OH245418   3.297   3.208   2.048  0.2184 -0.4372 -0.2918
 7976TIP3    H145419   3.226   3.148   2.024 -0.3627  0.3134 -0.4836
 7976TIP3    H245420   3.255   3.294   2.055  1.2657  0.1903 -1.3154
 7977TIP3   OH245421   3.757   2.694  12.622  0.1359  0.1589 -0.0618
 7977TIP3    H145422   3.713   2.779  12.625  0.1994  0.1663  1.0497
 7977TIP3    H245423   3.710   2.645  12.555 -0.5192  0.7416 -0.0432
 7978TIP3   OH245424   4.836   3.874  16.194 -0.8621  0.1783  0.1107
 7978TIP3    H145425   4.757   3.924  16.212 -0.3311  1.0323  0.1441
 7978TIP3    H245426   4.897   3.938  16.156 -0.1693 -0.4481  0.1310
 7979TIP3   OH245427   0.615   6.481   0.293 -0.4832 -0.1128  0.1748
 7979TIP3    H145428   0.542   6.430   0.258 -0.7636  0.2479  0.2237
 7979TIP3    H245429   0.585   6.572   0.287  0.7617  0.2364 -1.7240
 7980TIP3   OH245430   2.893   1.717  11.975  0.2886 -0.4351  0.1315
 7980TIP3    H145431   2.892   1.795  12.030 -1.0580  0.4142 -1.0300
 7980TIP3    H245432   2.937   1.746  11.894 -0.3792 -0.8076 -0.3767
 7981TIP3   OH245433   0.863   6.617  11.926  0.1808  0.0507 -0.1574
 7981TIP3    H145434   0.840   6.524  11.927  0.0598  0.0775  1.1344
 7981TIP3    H245435   0.787   6.661  11.964 -1.0156  1.0268 -3.3641
 7982TIP3   OH245436   0.628   0.519  12.077 -0.2994 -0.3658 -0.3773
 7982TIP3    H145437   0.552   0.562  12.116  0.2317  0.8067 -0.5928
 7982TIP3    H245438   0.656   0.578  12.007  0.8469 -0.7595 -0.2678
 7983TIP3   OH245439   2.515   0.381  17.193  0.7058 -0.3350 -0.0059
 7983TIP3    H145440   2.438   0.433  17.173 -0.3662 -1.0251  2.0122
 7983TIP3    H245441   2.512   0.370  17.288  2.3991 -1.7666 -0.0654
 7984TIP3   OH245442   4.248   2.657  17.455  0.5416  0.4145 -0.3301
 7984TIP3    H145443   4.170   2.620  17.496  0.3078 -0.1478 -1.2519
 7984TIP3    H245444   4.321   2.628  17.509  0.0466  1.7677  1.1201
 7985TIP3   OH245445   3.951   4.011  16.204  0.3140  0.7519 -0.2902
 7985TIP3    H145446   4.016   3.942  16.198  0.6302  1.0509 -0.3743
 7985TIP3    H245447   3.907   3.997  16.288 -1.0476 -0.7895 -1.1939
 7986TIP3   OH245448   5.930   5.003  13.862 -0.0433  0.1261 -0.2841
 7986TIP3    H145449   5.898   4.950  13.789  0.2410  1.3575 -1.3486
 7986TIP3    H245450   5.995   5.061  13.822 -1.3677  2.2752  0.5220
 7987TIP3   OH245451   1.681   6.736   2.240  0.0141  0.8015 -0.4085
 7987TIP3    H145452   1.659   6.710   2.151  0.0641  0.5260 -0.3407
 7987TIP3    H245453   1.759   6.685   2.262 -0.6447  0.0310  0.1943
 7988TIP3   OH245454   6.560   5.292   3.739  0.0518 -0.1979  0.0800
 7988TIP3    H145455   6.653   5.304   3.760 -0.4041 -0.2134  2.3255
 7988TIP3    H245456   6.527   5.380   3.721  0.5027 -0.2042 -0.8394
 7989TIP3   OH245457   6.567   4.264   0.098 -0.1737 -0.2741 -0.4604
 7989TIP3    H145458   6.476   4.264   0.127 -0.4992 -2.1052 -1.3125
 7989TIP3    H245459   6.563   4.294   0.007 -0.1018 -1.4322 -0.8646
 7990TIP3   OH245460   1.493   6.151  14.784 -0.3119  0.2332 -0.1236
 7990TIP3    H145461   1.551   6.224  14.806 -0.9507  1.1199 -1.2886
 7990TIP3    H245462   1.421   6.159  14.846 -0.0343  0.1588  0.2133
 7991TIP3   OH245463   3.436   4.269  13.316  0.7729 -0.0285 -0.3919
 7991TIP3    H145464   3.430   4.196  13.255  0.7283 -0.7892  0.4982
 7991TIP3    H245465   3.519   4.254  13.363  1.6596  1.4618 -1.3929
 7992TIP3   OH245466   3.341   3.638  13.737 -0.3587  0.2565 -0.0925
 7992TIP3    H145467   3.295   3.716  13.766 -0.7944 -0.2479  0.6011
 7992TIP3    H245468   3.284   3.565  13.763  0.0117 -0.2932 -0.7719
 7993TIP3   OH245469   3.069   0.919   3.421  0.2917  0.4409 -0.6129
 7993TIP3    H145470   3.142   0.958   3.468  2.2047 -0.3174 -2.7615
 7993TIP3    H245471   3.082   0.946   3.330 -3.4786  2.2041 -0.7955
 7994TIP3   OH245472   5.534   5.846  14.286 -0.4471  0.4167  0.2643
 7994TIP3    H145473   5.466   5.801  14.237 -0.3057 -0.4106  0.8163
 7994TIP3    H245474   5.566   5.914  14.226 -0.9121  0.0258 -0.4361
 7995TIP3   OH245475   0.996   5.892   1.991  0.0102 -0.0041  0.0436
 7995TIP3    H145476   1.077   5.938   2.013 -0.1502  0.5666 -0.5166
 7995TIP3    H245477   0.941   5.960   1.951 -0.2584 -0.6727 -0.7480
 7996TIP3   OH245478   2.512   4.952  16.557  0.4371 -0.0708  0.0693
 7996TIP3    H145479   2.590   4.911  16.594  0.0819  0.5693  1.6266
 7996TIP3    H245480   2.439   4.916  16.609 -0.1516  0.4375 -0.3821
 7997TIP3   OH245481   2.582   1.018  12.714  0.2592 -0.1823 -0.2304
 7997TIP3    H145482   2.606   0.996  12.804  0.2669 -0.2803 -0.2562
 7997TIP3    H245483   2.527   1.096  12.722  0.8045  0.2016 -0.1913
 7998TIP3   OH245484   1.841   3.977  11.303  0.1676 -0.7268 -0.0428
 7998TIP3    H145485   1.855   3.883  11.288  0.6936 -0.2903 -2.7194
 7998TIP3    H245486   1.902   4.021  11.244  0.1519  1.3338  1.3796
 7999TIP3   OH245487   3.364   6.595  14.416  0.0834 -0.1711 -0.0067
 7999TIP3    H145488   3.388   6.591  14.509  0.0051 -0.1733  0.0132
 7999TIP3    H245489   3.424   6.534  14.374  1.8001  1.6150 -0.3133
 8000TIP3   OH245490   2.957   0.649   6.358  0.1207  0.6858 -0.0471
 8000TIP3    H145491   2.929   0.644   6.449  0.9895  0.0082  0.1962
 8000TIP3    H245492   2.938   0.563   6.322 -0.6482  1.0957 -0.6474
 8001TIP3   OH245493   3.803   6.690   3.240 -0.3598 -0.6278  0.3250
 8001TIP3    H145494   3.872   6.732   3.188  0.9337 -0.4498  2.0681
 8001TIP3    H245495   3.843   6.608   3.269 -1.6857 -1.5385 -0.3660
 8002TIP3   OH245496   3.619   0.194  15.082 -0.6482  0.2298  0.5452
 8002TIP3    H145497   3.700   0.222  15.039  0.4744 -0.1469  2.3448
 8002TIP3    H245498   3.570   0.148  15.013  0.2840  1.1410 -0.7728
 8003TIP3   OH245499   2.444   2.014   3.163 -0.0026  0.0570 -0.9112
 8003TIP3    H145500   2.444   1.937   3.107  1.0012  0.5946 -1.6655
 8003TIP3    H245501   2.392   1.988   3.239  1.3482 -1.7998 -0.5703
 8004TIP3   OH245502   6.010   5.523  15.963 -0.0083  0.7973 -0.4821
 8004TIP3    H145503   5.943   5.526  16.031  0.9902 -0.2496  0.5986
 8004TIP3    H245504   6.065   5.598  15.981 -0.3721  1.1510 -0.8241
 8005TIP3   OH245505   5.093   5.393  11.819  0.2479  0.2131 -0.0609
 8005TIP3    H145506   5.063   5.348  11.898  0.4288  0.7890  0.3400
 8005TIP3    H245507   5.070   5.333  11.748 -1.1796  0.3058  0.2902
 8006TIP3   OH245508   4.987   2.139   6.146 -0.1450 -0.1495 -0.1223
 8006TIP3    H145509   4.973   2.209   6.081 -1.3271 -0.9199 -0.7313
 8006TIP3    H245510   5.058   2.086   6.109 -1.9997 -1.6495 -1.7945
 8007TIP3   OH245511   5.617   2.860  12.013 -0.4705  0.0144  0.1671
 8007TIP3    H145512   5.632   2.768  12.031 -1.2854 -1.0333 -3.5025
 8007TIP3    H245513   5.525   2.874  12.037 -0.0039  0.2861  1.9125
 8008TIP3   OH245514   1.761   0.164   4.841 -0.3316  0.2916  0.0590
 8008TIP3    H145515   1.854   0.146   4.854 -0.6347 -0.7295  0.8956
 8008TIP3    H245516   1.755   0.260   4.838  0.6847  0.3717  0.3912
 8009TIP3   OH245517   1.915   1.783   2.671 -0.5482  0.2391  0.2392
 8009TIP3    H145518   1.933   1.816   2.583 -0.5125  0.6713  0.4063
 8009TIP3    H245519   1.971   1.836   2.728  0.0073 -0.5655  0.4495
 8010TIP3   OH245520   5.941   4.364  13.205 -0.1786 -0.2521  0.0972
 8010TIP3    H145521   6.029   4.401  13.216  0.6995 -2.0749 -0.3621
 8010TIP3    H245522   5.923   4.371  13.111 -1.0512  1.1690  0.3418
 8011TIP3   OH245523   1.026   5.906   6.653  0.5557  0.8200  0.3212
 8011TIP3    H145524   0.985   5.953   6.581 -1.2955 -1.8491 -0.5438
 8011TIP3    H245525   0.967   5.920   6.728 -0.6577 -0.9449 -0.2480
 8012TIP3   OH245526   3.361   2.374   2.337  0.1799 -0.8255 -0.2224
 8012TIP3    H145527   3.339   2.363   2.244  0.9430  0.8358 -0.6236
 8012TIP3    H245528   3.276   2.381   2.381 -0.2885  2.7482 -1.3932
 8013TIP3   OH245529   4.222   2.968   3.326  0.7632  0.1287 -0.0457
 8013TIP3    H145530   4.224   3.013   3.410  0.7862 -1.9695  1.1439
 8013TIP3    H245531   4.269   2.886   3.341 -2.0634 -1.8511 -1.1289
 8014TIP3   OH245532   6.756   1.590  16.559  1.0133  0.0029  0.4631
 8014TIP3    H145533   6.754   1.502  16.522 -1.5606 -0.8498  2.3199
 8014TIP3    H245534   6.825   1.587  16.625 -0.2979 -1.3225  1.8667
 8015TIP3   OH245535   6.419   5.767   1.013  0.4686  0.2477  1.0834
 8015TIP3    H145536   6.438   5.733   1.100 -0.4377 -1.4207  0.6725
 8015TIP3    H245537   6.334   5.729   0.991  0.1238  1.6065 -0.0532
 8016TIP3   OH245538   2.216   3.314   6.193 -0.1332 -0.0264  0.7816
 8016TIP3    H145539   2.303   3.318   6.234 -0.2756  0.4975  1.0415
 8016TIP3    H245540   2.194   3.221   6.192  0.6779 -0.2200  0.2010
 8017TIP3   OH245541   2.260   3.378  13.406  0.0448  0.2233 -0.0530
 8017TIP3    H145542   2.315   3.358  13.482  1.7173 -0.6026 -1.4508
 8017TIP3    H245543   2.267   3.473  13.397  1.2760  0.1324 -0.2185
 8018TIP3   OH245544   3.759   0.780  11.471  0.2434  0.0256  0.4212
 8018TIP3    H145545   3.840   0.770  11.421  0.5275  0.6097  0.7544
 8018TIP3    H245546   3.690   0.752  11.411  0.8093 -2.1250  0.6969
 8019TIP3   OH245547   1.682   1.733   0.276 -0.1864 -0.5952 -0.3255
 8019TIP3    H145548   1.745   1.803   0.257 -1.4238  0.2009 -1.6879
 8019TIP3    H245549   1.735   1.653   0.272  0.9283  0.1193 -0.4928
 8020TIP3   OH245550   4.688   5.748  15.136  0.3756 -0.2257 -0.6039
 8020TIP3    H145551   4.711   5.695  15.059  0.5820 -0.5897 -0.2944
 8020TIP3    H245552   4.639   5.822  15.100  0.4769 -0.3883 -1.0883
 8021TIP3   OH245553   0.142   0.709   1.179  0.2136  0.0244 -0.8495
 8021TIP3    H145554   0.097   0.707   1.094 -0.2866 -0.6091 -0.5784
 8021TIP3    H245555   0.193   0.628   1.181  2.0143  1.0891 -1.4728
 8022TIP3   OH245556   1.089   1.926   0.457  0.1662 -0.8530 -0.2220
 8022TIP3    H145557   1.051   1.985   0.392  0.4607  1.0560  1.2823
 8022TIP3    H245558   1.121   1.851   0.405 -0.7922 -0.0199 -2.0975
 8023TIP3   OH245559   3.994   3.180  17.086  0.7742  0.5802  0.2881
 8023TIP3    H145560   3.904   3.150  17.076  1.1733 -0.4170 -0.3946
 8023TIP3    H245561   4.025   3.139  17.167  0.7836  0.4869  0.2383
 8024TIP3   OH245562   2.582   5.536   5.331 -0.1956 -0.0019  0.0230
 8024TIP3    H145563   2.575   5.554   5.425 -0.4353 -1.3958  0.2996
 8024TIP3    H245564   2.527   5.459   5.317 -2.0671  1.5526 -1.7296
 8025TIP3   OH245565   1.052   4.637  17.349  0.2921  0.6085 -0.4154
 8025TIP3    H145566   1.008   4.635  17.434  1.7710  0.9438  0.4048
 8025TIP3    H245567   1.008   4.571  17.297  1.3424 -1.8861  1.6609
 8026TIP3   OH245568   5.239   3.541  11.581  0.4959  0.1510 -0.2944
 8026TIP3    H145569   5.303   3.580  11.520  0.2943 -0.4736 -0.9263
 8026TIP3    H245570   5.221   3.454  11.543  0.2519 -0.1888  0.5845
 8027TIP3   OH245571   4.656   4.352  11.566 -0.4346 -0.6694  0.3014
 8027TIP3    H145572   4.631   4.410  11.493 -0.5438  1.1737  1.7203
 8027TIP3    H245573   4.610   4.389  11.641  2.1445 -0.5546  1.9275
 8028TIP3   OH245574   1.863   4.928   3.522 -0.2682 -0.2503 -0.0981
 8028TIP3    H145575   1.851   5.021   3.507  0.3082 -0.0790  0.4608
 8028TIP3    H245576   1.888   4.893   3.436  0.4891  0.2797 -0.1051
 8029TIP3   OH245577   4.707   4.779  17.382  0.0206  0.7293 -0.7797
 8029TIP3    H145578   4.676   4.863  17.417 -1.1862  0.7829 -1.8915
 8029TIP3    H245579   4.630   4.740  17.342 -0.0957 -2.0951  1.8088
 8030TIP3   OH245580   4.836   0.369   3.246 -0.5987 -0.4332 -0.0600
 8030TIP3    H145581   4.811   0.418   3.325  0.3668  1.1035 -0.6698
 8030TIP3    H245582   4.889   0.431   3.195 -1.0069 -1.4647 -1.8152
 8031TIP3   OH245583   6.751   6.731  17.366  0.2372  0.2322  0.3100
 8031TIP3    H145584   6.777   6.784  17.290 -1.2981  0.2309 -0.2536
 8031TIP3    H245585   6.782   6.643  17.346 -0.5829  0.1216 -0.5889
 8032TIP3   OH245586   2.961   4.882  16.865  0.5302  0.2935  0.3844
 8032TIP3    H145587   2.948   4.977  16.869 -0.5629  0.3555 -2.5965
 8032TIP3    H245588   3.048   4.872  16.825 -0.1080  0.1001 -1.0040
 8033TIP3   OH245589   4.228   4.880  17.334 -0.0324 -0.7313  0.7819
 8033TIP3    H145590   4.187   4.793  17.337 -1.8901  0.0285 -0.8340
 8033TIP3    H245591   4.192   4.926  17.409 -0.7110 -0.6854  0.4368
 8034TIP3   OH245592   5.013   4.051  15.995  0.2094  0.1583  0.4988
 8034TIP3    H145593   4.983   4.015  15.912  0.7167 -1.4488  0.9711
 8034TIP3    H245594   5.047   4.138  15.974 -2.5271  1.1052 -0.4493
 8035TIP3   OH245595   3.576   1.538  16.107 -0.0423  0.0198 -0.1218
 8035TIP3    H145596   3.492   1.549  16.151 -0.3304  0.4608 -0.7620
 8035TIP3    H245597   3.619   1.623  16.118  0.0545 -0.0016 -0.3437
 8036TIP3   OH245598   5.720   6.226   1.949  0.5439  0.1431 -0.2737
 8036TIP3    H145599   5.720   6.153   1.888 -1.1172  0.1259 -0.3001
 8036TIP3    H245600   5.628   6.251   1.957  0.7863  0.6328  1.6271
 8037TIP3   OH245601   1.776   0.925  14.348  0.2151 -0.4887  0.1856
 8037TIP3    H145602   1.795   0.955  14.437 -1.1205 -0.2948  0.4176
 8037TIP3    H245603   1.861   0.894  14.315  1.2631  1.6565  0.6505
 8038TIP3   OH245604   5.393   6.669   0.195  0.1365  0.0413 -0.3422
 8038TIP3    H145605   5.380   6.728   0.121  0.8707  0.4493 -0.1605
 8038TIP3    H245606   5.377   6.582   0.159 -2.3698  0.4145 -0.2761
 8039TIP3   OH245607   0.888   5.943  15.194  0.3975  0.3279  0.7347
 8039TIP3    H145608   0.801   5.916  15.166  0.2459  1.1938  0.3328
 8039TIP3    H245609   0.873   5.991  15.276  0.3817  1.2226  0.2249
 8040TIP3   OH245610   3.387   0.917   3.180 -0.2610  0.0880 -0.1537
 8040TIP3    H145611   3.423   0.837   3.141 -1.8750 -1.5338  1.4893
 8040TIP3    H245612   3.464   0.972   3.196  0.7544 -0.4904 -2.5662
 8041TIP3   OH245613   2.162   4.902  11.646  0.3600  0.0919  0.2979
 8041TIP3    H145614   2.129   4.907  11.736 -1.0406  0.4407 -0.2075
 8041TIP3    H245615   2.167   4.994  11.618  1.2385  0.0141  0.1488
 8042TIP3   OH245616   1.482   4.648   0.274 -0.2606 -0.3081  0.0144
 8042TIP3    H145617   1.501   4.742   0.279 -2.0789  0.0438  3.2801
 8042TIP3    H245618   1.437   4.637   0.191 -0.5404  1.8553 -0.1750
 8043TIP3   OH245619   6.216   6.208  13.365 -0.4434 -0.4478  0.2218
 8043TIP3    H145620   6.205   6.225  13.271  3.5057 -1.2807 -0.5727
 8043TIP3    H245621   6.209   6.113  13.373  0.4774 -0.5005  0.5101
 8044TIP3   OH245622   1.320   4.629  14.088  0.2887 -0.2367  0.7604
 8044TIP3    H145623   1.227   4.612  14.076  0.4777 -1.7306  1.1830
 8044TIP3    H245624   1.355   4.548  14.124  1.5608  0.6480  1.6451
 8045TIP3   OH245625   0.762   6.584   3.862 -0.3284 -0.5991  0.3665
 8045TIP3    H145626   0.756   6.649   3.792  1.6338  0.0293  0.7086
 8045TIP3    H245627   0.836   6.614   3.915 -0.7007 -1.9955  1.7364
 8046TIP3   OH245628   4.616   5.075   3.874  0.2883  0.8681 -0.6099
 8046TIP3    H145629   4.639   4.987   3.847  1.2794  1.0631 -0.4349
 8046TIP3    H245630   4.654   5.132   3.807 -0.8656  1.1415 -1.0538
 8047TIP3   OH245631   3.354   2.439  13.736 -0.2818 -0.2007  0.1997
 8047TIP3    H145632   3.327   2.372  13.799 -0.1592 -0.5973 -0.1633
 8047TIP3    H245633   3.313   2.413  13.654 -1.6736  1.1295  0.4228
 8048TIP3   OH245634   3.021   4.199   5.052  0.4758  1.2582 -0.3897
 8048TIP3    H145635   3.014   4.104   5.043 -0.8498  1.4229 -1.3352
 8048TIP3    H245636   3.097   4.211   5.110  1.1785 -0.3290 -0.9062
 8049TIP3   OH245637   0.355   2.308   4.861  0.2799  0.0754  0.2628
 8049TIP3    H145638   0.322   2.365   4.792  1.9694  0.8615  0.0660
 8049TIP3    H245639   0.419   2.252   4.818  0.4057 -0.3154  0.9401
 8050TIP3   OH245640   4.009   5.867   4.094 -0.0203  0.0426 -0.4385
 8050TIP3    H145641   3.918   5.877   4.121  0.0685  0.3565 -0.2502
 8050TIP3    H245642   4.016   5.919   4.013  0.1736  0.6418 -0.0461
 8051TIP3   OH245643   0.628   3.106  13.906  0.0551  0.2917 -0.2056
 8051TIP3    H145644   0.587   3.098  13.992  1.0242 -0.7471  0.1853
 8051TIP3    H245645   0.606   3.195  13.877 -2.4667 -0.2156 -0.0489
 8052TIP3   OH245646   2.937   3.178  17.353  0.1026 -0.2165  0.0671
 8052TIP3    H145647   2.904   3.092  17.327 -1.7128  0.6326 -0.6360
 8052TIP3    H245648   2.869   3.213  17.411  0.0316  1.3410 -0.9005
 8053TIP3   OH245649   0.698   3.717  13.719  0.2858 -0.2485  0.3385
 8053TIP3    H145650   0.757   3.707  13.644  1.5874 -1.0640  1.4238
 8053TIP3    H245651   0.637   3.785  13.691  1.4492  0.3155 -1.0282
 8054TIP3   OH245652   1.776   6.717   5.389  0.2152 -0.0247 -0.5136
 8054TIP3    H145653   1.708   6.650   5.397  0.3317 -0.2561 -1.3409
 8054TIP3    H245654   1.729   6.797   5.369  0.1451 -0.0666 -0.5147
 8055TIP3   OH245655   1.540   0.251   6.041  0.3890 -0.2840 -0.1517
 8055TIP3    H145656   1.594   0.236   6.118  0.2692 -1.1992 -0.2293
 8055TIP3    H245657   1.453   0.268   6.075  0.6303  0.7723 -0.0414
 8056TIP3   OH245658   2.837   1.702  14.261 -0.2296  0.6950  0.6968
 8056TIP3    H145659   2.842   1.642  14.336  1.1470  0.1533  0.2043
 8056TIP3    H245660   2.871   1.785  14.296  0.0223  0.5546  0.7926
 8057TIP3   OH245661   2.656   6.191   0.520  0.2515 -0.0244  0.5189
 8057TIP3    H145662   2.621   6.263   0.469 -1.6411 -1.5578 -0.4797
 8057TIP3    H245663   2.746   6.181   0.489  0.3628  1.5084  0.2895
 8058TIP3   OH245664   0.862   5.321  14.917  0.0175  0.4753  0.3360
 8058TIP3    H145665   0.852   5.291  14.827 -1.9308  1.1593  0.2607
 8058TIP3    H245666   0.793   5.274  14.965  0.4558  0.7834  1.2849
 8059TIP3   OH245667   0.400   2.945   5.471  0.0703  0.4907 -0.3784
 8059TIP3    H145668   0.393   3.040   5.463 -0.5150  0.3712 -1.5970
 8059TIP3    H245669   0.345   2.922   5.546  0.5756  1.1438  0.2024
 8060TIP3   OH245670   5.168   5.608   5.757  0.3492 -0.3830  0.2526
 8060TIP3    H145671   5.129   5.583   5.673  1.5747 -1.1678 -0.1038
 8060TIP3    H245672   5.137   5.541   5.818  0.9268 -0.8611  0.0250
 8061TIP3   OH245673   6.459   4.009  11.656  0.3592  0.7917  0.5427
 8061TIP3    H145674   6.455   3.953  11.579 -3.5377 -0.3565  1.3471
 8061TIP3    H245675   6.534   3.976  11.706  0.1861 -1.5550 -0.5953
 8062TIP3   OH245676   6.422   1.935  15.131 -0.0716  0.2796 -0.1117
 8062TIP3    H145677   6.390   1.868  15.071  2.3792 -1.2166  0.1115
 8062TIP3    H245678   6.442   2.010  15.075 -1.8124  0.4900 -0.5111
 8063TIP3   OH245679   3.840   4.097  15.587  0.0645  0.2662 -0.2166
 8063TIP3    H145680   3.748   4.076  15.603  0.2831  0.0968  0.9066
 8063TIP3    H245681   3.846   4.191  15.601  0.3344  0.0580  1.1958
 8064TIP3   OH245682   3.747   0.407  11.783 -0.3474 -0.0417 -0.1489
 8064TIP3    H145683   3.722   0.492  11.747 -0.0796  0.6885  1.3074
 8064TIP3    H245684   3.843   0.407  11.781 -0.3380 -0.1544  0.1841
 8065TIP3   OH245685   1.629   3.565   4.758  0.2235  0.3982 -0.0339
 8065TIP3    H145686   1.682   3.603   4.687 -2.0259  1.3598 -1.3036
 8065TIP3    H245687   1.582   3.493   4.717 -0.2401  0.2212  0.7903
 8066TIP3   OH245688   5.074   6.414   3.808 -0.6447 -0.2332  0.5653
 8066TIP3    H145689   5.055   6.413   3.902 -1.4530 -4.0279  0.5243
 8066TIP3    H245690   5.003   6.464   3.770 -0.3540  1.3000  1.9145
 8067TIP3   OH245691   1.212   4.367  17.453  0.1505 -0.2779  0.5901
 8067TIP3    H145692   1.217   4.348  17.359 -2.3592 -1.1261  0.5465
 8067TIP3    H245693   1.263   4.298  17.494 -1.3801 -1.8577 -0.0471
 8068TIP3   OH245694   3.297   4.718  16.258  0.3023  0.0985  0.0945
 8068TIP3    H145695   3.369   4.668  16.219  0.7035  0.4293  0.4062
 8068TIP3    H245696   3.305   4.702  16.352  0.7286  1.1310  0.2400
 8069TIP3   OH245697   3.207   4.822  16.769 -0.4804  0.2853  0.4320
 8069TIP3    H145698   3.255   4.897  16.733 -1.7902  0.7601 -0.4241
 8069TIP3    H245699   3.229   4.749  16.711  1.1787 -0.1504  1.5513
 8070TIP3   OH245700   4.578   1.915  13.745  0.1206 -0.5779  0.3755
 8070TIP3    H145701   4.518   1.842  13.760 -0.4660  0.0326  1.1014
 8070TIP3    H245702   4.522   1.987  13.715  0.8539 -0.7558 -1.5166
 8071TIP3   OH245703   5.884   0.402  12.420 -0.2731  0.6208 -0.9755
 8071TIP3    H145704   5.812   0.364  12.470  0.1046  0.6741 -0.3728
 8071TIP3    H245705   5.870   0.373  12.330 -1.3886  1.1489 -0.9807
 8072TIP3   OH245706   0.107   1.412   2.084 -0.2574  0.1916 -0.1158
 8072TIP3    H145707   0.193   1.425   2.123  0.1017 -2.0908 -0.0100
 8072TIP3    H245708   0.122   1.350   2.013 -1.4801  1.5213 -1.6152
 8073TIP3   OH245709   2.740   6.159   4.905  0.0573 -0.4748 -0.5703
 8073TIP3    H145710   2.662   6.121   4.946 -0.1713  1.9358  1.4772
 8073TIP3    H245711   2.707   6.200   4.825 -0.6872 -0.0442 -0.0618
 8074TIP3   OH245712   1.160   4.105   2.697  0.0875 -0.1995 -0.5957
 8074TIP3    H145713   1.133   4.013   2.695 -0.0720 -0.1894  0.4952
 8074TIP3    H245714   1.250   4.105   2.665 -0.5193 -0.4817 -2.4365
 8075TIP3   OH245715   5.912   5.869  14.689 -0.2232  0.0748 -0.1189
 8075TIP3    H145716   6.004   5.880  14.710 -0.2968 -0.1145  0.3020
 8075TIP3    H245717   5.909   5.870  14.593 -0.1186  2.8864 -0.1717
 8076TIP3   OH245718   3.918   2.579   2.640  0.0711  0.3340  0.2073
 8076TIP3    H145719   3.986   2.579   2.573 -0.4435 -2.5449 -0.4646
 8076TIP3    H245720   3.863   2.655   2.619 -0.6138 -0.9338 -3.3274
 8077TIP3   OH245721   5.894   4.214  13.429 -0.5296  0.0607  0.1015
 8077TIP3    H145722   5.871   4.284  13.491 -0.5980  0.8192 -0.7522
 8077TIP3    H245723   5.892   4.257  13.344 -0.6975 -1.0311 -0.4547
 8078TIP3   OH245724   1.764   4.852   1.804 -0.0793  0.4864 -0.1822
 8078TIP3    H145725   1.856   4.838   1.784 -0.0669  1.7194 -1.1422
 8078TIP3    H245726   1.726   4.886   1.723 -1.3749  0.0241  0.1988
 8079TIP3   OH245727   0.139   0.085   6.383 -0.4047  0.3372  0.7425
 8079TIP3    H145728   0.199   0.063   6.313  1.0320  1.0004  1.7182
 8079TIP3    H245729   0.052   0.071   6.346  0.3306 -2.1947 -0.2085
 8080TIP3   OH245730   6.149   2.719   0.596 -0.2977 -0.1001  0.4991
 8080TIP3    H145731   6.142   2.808   0.561  0.2725 -0.0416  0.5301
 8080TIP3    H245732   6.183   2.730   0.684  1.1087 -0.4204  0.0202
 8081TIP3   OH245733   0.758   6.127  12.147  1.0766  0.1821 -0.4204
 8081TIP3    H145734   0.825   6.060  12.134  1.2206  0.1959  0.1956
 8081TIP3    H245735   0.771   6.156  12.237  0.4945  0.4687 -0.4246
 8082TIP3   OH245736   4.525   4.802   0.291  0.4397 -0.4970  0.2074
 8082TIP3    H145737   4.432   4.789   0.271 -0.2407  0.3417  2.4585
 8082TIP3    H245738   4.562   4.714   0.292 -0.7268 -1.0094  0.8266
 8083TIP3   OH245739   1.234   3.253  14.860  0.0375 -0.6603  0.2306
 8083TIP3    H145740   1.161   3.274  14.801  0.7326  0.4955 -0.2648
 8083TIP3    H245741   1.242   3.330  14.916  0.7383 -0.8679  0.4194
 8084TIP3   OH245742   4.725   5.817  16.986 -0.2721 -0.2580  0.1037
 8084TIP3    H145743   4.725   5.912  16.986 -1.0016 -0.2460  0.6556
 8084TIP3    H245744   4.634   5.793  16.968 -0.2260 -0.8331  0.5972
 8085TIP3   OH245745   6.048   3.021   3.457  0.6206 -0.1946  0.4379
 8085TIP3    H145746   5.962   3.060   3.443  0.0556 -0.8029  2.0147
 8085TIP3    H245747   6.030   2.928   3.472  1.7220 -0.6461 -0.8435
 8086TIP3   OH245748   1.372   0.877   2.007 -0.4542 -0.6678 -0.5622
 8086TIP3    H145749   1.461   0.843   2.013 -0.1466 -0.0531 -1.3185
 8086TIP3    H245750   1.360   0.929   2.086  0.6325  0.9187 -1.3692
 8087TIP3   OH245751   4.069   5.841  13.444 -0.1688  1.0522 -0.7697
 8087TIP3    H145752   4.158   5.818  13.416 -0.5956  0.3242 -1.6101
 8087TIP3    H245753   4.042   5.766  13.497 -0.1072  1.4925 -0.1210
 8088TIP3   OH245754   2.885   5.472   3.829 -0.5814  0.1771  0.0822
 8088TIP3    H145755   2.922   5.432   3.908  1.5479  2.4003  0.3415
 8088TIP3    H245756   2.822   5.537   3.863 -1.2726 -0.3379 -0.1828
 8089TIP3   OH245757   5.056   2.483   5.076  0.2222 -0.3028 -0.6580
 8089TIP3    H145758   4.972   2.517   5.047  0.4746  0.5674 -0.4053
 8089TIP3    H245759   5.118   2.510   5.008  0.5390  0.3475 -0.1268
 8090TIP3   OH245760   6.429   0.358   2.940 -0.5090  0.1403  0.1062
 8090TIP3    H145761   6.432   0.449   2.969 -2.1635  0.7835 -1.5659
 8090TIP3    H245762   6.336   0.340   2.925 -0.1494 -1.6012 -0.2788
 8091TIP3   OH245763   2.322   6.677  12.056  0.2877 -0.4458  0.2184
 8091TIP3    H145764   2.297   6.735  12.128  0.1621  0.3048 -0.4192
 8091TIP3    H245765   2.412   6.652  12.077  1.3384  2.0993 -0.7923
 8092TIP3   OH245766   2.815   2.297   4.102  0.1594 -0.2602  0.3768
 8092TIP3    H145767   2.852   2.241   4.171 -1.4166 -1.3933  0.3626
 8092TIP3    H245768   2.890   2.346   4.068  1.2724 -0.9752  1.6966
 8093TIP3   OH245769   2.901   0.027  17.446 -0.2403 -0.1751 -0.5324
 8093TIP3    H145770   2.937   0.116  17.442 -0.3358 -0.1399 -0.6109
 8093TIP3    H245771   2.861   0.022  17.533 -0.2701 -0.1273 -0.5431
 8094TIP3   OH245772   1.888   6.736   1.793  0.1558 -0.2760 -0.8176
 8094TIP3    H145773   1.810   6.730   1.848  0.9682 -1.1335  0.2967
 8094TIP3    H245774   1.889   6.654   1.743  0.6771 -0.5654 -0.3453
 8095TIP3   OH245775   3.270   3.080  17.220 -0.7753  0.0330  0.2559
 8095TIP3    H145776   3.313   3.161  17.249 -0.5383 -0.1710  0.4800
 8095TIP3    H245777   3.339   3.030  17.176 -1.6564  1.4099 -2.9743
 8096TIP3   OH245778   3.287   2.346   1.383 -0.6501 -0.0668 -0.0275
 8096TIP3    H145779   3.351   2.332   1.453 -0.3177 -1.0106 -0.5045
 8096TIP3    H245780   3.242   2.263   1.374 -0.1206 -0.2209 -1.4867
 8097TIP3   OH245781   2.856   4.562  15.248  0.5388  0.9542 -0.9401
 8097TIP3    H145782   2.873   4.589  15.158  0.0420 -1.9543 -2.0010
 8097TIP3    H245783   2.772   4.517  15.245  0.5008  0.8097  0.9874
 8098TIP3   OH245784   4.949   5.117  11.359  0.0300  0.3473  0.3949
 8098TIP3    H145785   4.973   5.099  11.450  0.6927  1.4542  0.4647
 8098TIP3    H245786   4.924   5.210  11.359 -1.9621 -0.1405 -0.1690
 8099TIP3   OH245787   3.727   0.919   3.652  0.4226 -0.3435  0.7593
 8099TIP3    H145788   3.778   0.847   3.615  0.6485  0.1696  0.0425
 8099TIP3    H245789   3.637   0.903   3.622  0.7898  0.6787 -1.0304
 8100TIP3   OH245790   4.766   4.474  12.802 -0.3372 -0.3998  0.3875
 8100TIP3    H145791   4.683   4.506  12.768  1.1667  0.1390 -3.1740
 8100TIP3    H245792   4.774   4.385  12.768  1.4289  0.3182 -1.2962
 8101TIP3   OH245793   2.387   5.339   1.533  0.2629  0.1052  0.3758
 8101TIP3    H145794   2.353   5.421   1.497  2.6938 -0.2893 -3.4243
 8101TIP3    H245795   2.334   5.271   1.491  0.3882 -0.3590  0.9549
 8102TIP3   OH245796   0.759   1.329  14.508  0.3357  0.0471 -0.2529
 8102TIP3    H145797   0.725   1.337  14.597 -1.7166 -1.5447 -0.8322
 8102TIP3    H245798   0.815   1.251  14.510 -0.4718 -0.5473 -0.5584
 8103TIP3   OH245799   3.851   4.254  12.613 -0.1623  0.1741 -0.2759
 8103TIP3    H145800   3.839   4.298  12.697  0.0014  1.3947 -0.8689
 8103TIP3    H245801   3.765   4.256  12.572  0.1986  1.6095 -1.0598
 8104TIP3   OH245802   4.236   5.378   3.557 -0.6736 -0.0053  0.0034
 8104TIP3    H145803   4.328   5.353   3.564 -0.8670 -0.8203 -0.2388
 8104TIP3    H245804   4.233   5.438   3.483 -0.4920 -0.8279 -0.6877
 8105TIP3   OH245805   3.748   3.377   0.912 -0.3867 -0.1572  0.0306
 8105TIP3    H145806   3.806   3.328   0.970  1.4073  1.9406  0.1033
 8105TIP3    H245807   3.767   3.343   0.825 -0.9988 -1.2860  0.3074
 8106TIP3   OH245808   2.287   1.730   4.776  0.1912 -0.1394 -0.4560
 8106TIP3    H145809   2.363   1.673   4.788 -0.8803 -1.3785  0.8106
 8106TIP3    H245810   2.318   1.799   4.717  2.2987 -0.5761  0.0398
 8107TIP3   OH245811   1.282   3.254  11.915 -0.5057  0.4067 -0.4079
 8107TIP3    H145812   1.334   3.316  11.966 -1.6695 -0.0110  1.4207
 8107TIP3    H245813   1.346   3.206  11.862  0.7014  1.3806  0.1270
 8108TIP3   OH245814   6.314   1.374  11.724 -0.1372 -0.1338 -1.0114
 8108TIP3    H145815   6.394   1.401  11.681 -0.1817  0.3001 -0.8220
 8108TIP3    H245816   6.279   1.304  11.668 -0.0114  0.1796 -1.4833
 8109TIP3   OH245817   1.049   0.491  11.097 -0.4140 -0.1927 -0.1134
 8109TIP3    H145818   1.092   0.468  11.180  2.3476  0.0656 -1.3783
 8109TIP3    H245819   1.101   0.447  11.030 -0.3101  2.5587 -1.9867
 8110TIP3   OH245820   4.449   5.632  15.014  0.4683 -0.4479  0.0586
 8110TIP3    H145821   4.390   5.566  15.051 -0.6247  1.0266  1.0963
 8110TIP3    H245822   4.482   5.680  15.091  1.3171  0.1458 -0.6561
 8111TIP3   OH245823   2.103   4.164  12.228 -0.0669  0.0196  0.3878
 8111TIP3    H145824   2.078   4.093  12.168  1.4313  0.6838 -1.0948
 8111TIP3    H245825   2.154   4.121  12.296  5.3109 -0.0553 -3.0723
 8112TIP3   OH245826   6.608   1.429  13.092  0.2481 -0.1953  0.1232
 8112TIP3    H145827   6.680   1.457  13.147 -1.5336  0.5675  2.2229
 8112TIP3    H245828   6.594   1.501  13.031  0.1101  0.4889  0.9400
 8113TIP3   OH245829   5.007   2.384  16.230  0.7763  0.0559 -0.0876
 8113TIP3    H145830   5.074   2.347  16.287  1.2609 -0.8818 -1.2203
 8113TIP3    H245831   5.048   2.460  16.190  1.8273 -1.4501 -2.0460
 8114TIP3   OH245832   6.166   3.347   3.200  0.0435  0.3035  0.3505
 8114TIP3    H145833   6.209   3.273   3.243 -2.2525 -0.2854  1.8180
 8114TIP3    H245834   6.184   3.334   3.107  1.0658 -1.1669  0.7196
 8115TIP3   OH245835   3.115   0.502   2.922  0.3202  0.1813 -0.7407
 8115TIP3    H145836   3.022   0.486   2.938  0.5976 -0.1669  0.6099
 8115TIP3    H245837   3.144   0.425   2.873 -0.1161  0.3653 -1.3111
 8116TIP3   OH245838   0.814   3.849   5.985 -0.2880 -0.3716 -0.0948
 8116TIP3    H145839   0.835   3.835   6.077  0.9248  0.3933 -0.2386
 8116TIP3    H245840   0.828   3.942   5.971  0.6219 -0.6666 -1.3077
 8117TIP3   OH245841   3.817   4.445   3.230  0.5223  0.0446 -0.0355
 8117TIP3    H145842   3.729   4.409   3.216  0.9170 -1.5275  1.2057
 8117TIP3    H245843   3.854   4.452   3.142 -1.0347  1.3202 -0.6369
 8118TIP3   OH245844   4.493   4.016  14.084  0.4332  0.8256 -0.1399
 8118TIP3    H145845   4.447   4.056  14.157 -0.2612  2.0481 -1.2100
 8118TIP3    H245846   4.584   4.043  14.095  0.3420  0.9693  0.2778
 8119TIP3   OH245847   6.284   0.883   4.275 -0.3296  0.0077  0.5463
 8119TIP3    H145848   6.239   0.802   4.301  1.5041 -1.3637 -0.3147
 8119TIP3    H245849   6.234   0.915   4.200 -2.4401  1.0275  2.2684
 8120TIP3   OH245850   4.220   3.810   3.572 -0.1034  0.0960  0.0526
 8120TIP3    H145851   4.282   3.784   3.640 -0.8390 -1.6130  0.1243
 8120TIP3    H245852   4.146   3.751   3.583 -0.4221  0.0294 -1.9778
 8121TIP3   OH245853   5.637   4.123  12.179  0.0702 -0.3944 -0.6427
 8121TIP3    H145854   5.730   4.107  12.164  0.1875  0.8726 -1.4745
 8121TIP3    H245855   5.628   4.125  12.274  0.5822 -2.0391 -0.5305
 8122TIP3   OH245856   1.808   3.109  14.573 -0.2525 -0.3094 -0.3948
 8122TIP3    H145857   1.821   3.192  14.618  0.6461 -0.6779  0.0667
 8122TIP3    H245858   1.721   3.080  14.598 -0.5330  0.4468 -0.4871
 8123TIP3   OH245859   6.353   2.481   0.665 -0.3750  0.0750 -0.2856
 8123TIP3    H145860   6.364   2.511   0.575  1.3236 -0.7023 -0.3628
 8123TIP3    H245861   6.280   2.420   0.661 -0.8197  0.6346 -0.9799
 8124TIP3   OH245862   4.048   5.187   3.982 -0.3090  0.5802 -0.1525
 8124TIP3    H145863   3.996   5.136   3.920  3.8554 -2.5876 -1.4483
 8124TIP3    H245864   4.113   5.233   3.929  1.7674 -0.1487  1.5941
 8125TIP3   OH245865   6.547   2.182   1.224  0.1825 -0.3272  0.6433
 8125TIP3    H145866   6.473   2.191   1.284 -0.3628  1.0191 -0.1955
 8125TIP3    H245867   6.507   2.182   1.137  1.1843  0.7482  0.1614
 8126TIP3   OH245868   0.491   4.862   3.194  0.2713  0.1053  0.1294
 8126TIP3    H145869   0.402   4.832   3.211  0.3012  0.0459  0.1822
 8126TIP3    H245870   0.546   4.807   3.251  0.4257 -0.5114 -0.5917
 8127TIP3   OH245871   4.346   4.875  16.428  0.1972  0.3110 -0.4194
 8127TIP3    H145872   4.396   4.869  16.347  0.1260 -0.2232 -0.4277
 8127TIP3    H245873   4.254   4.877  16.400  0.1244 -1.0047 -0.3127
 8128TIP3   OH245874   5.101   6.102   4.693 -0.2984 -0.2416  0.0133
 8128TIP3    H145875   5.125   6.118   4.784  2.4622  0.8997 -0.7925
 8128TIP3    H245876   5.176   6.055   4.656  0.2211  2.2467 -2.4316
 8129TIP3   OH245877   0.829   4.974  14.060  0.1845  0.6216  0.4321
 8129TIP3    H145878   0.774   4.906  14.020 -0.7448  0.7248  1.4644
 8129TIP3    H245879   0.766   5.041  14.088  0.6669  0.2011  2.7414
 8130TIP3   OH245880   6.089   5.734  11.317  0.0928  0.3182  0.3596
 8130TIP3    H145881   6.016   5.691  11.274  0.3946 -0.6487  0.7792
 8130TIP3    H245882   6.074   5.720  11.411  1.2820 -0.7186  0.4220
 8131TIP3   OH245883   1.122   1.769   1.448  0.3799  0.6124 -0.3246
 8131TIP3    H145884   1.123   1.725   1.363 -1.6668 -2.3439  1.0342
 8131TIP3    H245885   1.037   1.812   1.452 -0.8677 -1.8099  1.2975
 8132TIP3   OH245886   3.344   3.839  11.745 -0.0710 -0.3977 -0.3815
 8132TIP3    H145887   3.249   3.828  11.745 -0.3404  1.5179  0.9684
 8132TIP3    H245888   3.378   3.752  11.722 -2.1515 -0.6570 -2.8955
 8133TIP3   OH245889   1.154   5.289   0.240 -0.0185 -0.2154  0.0605
 8133TIP3    H145890   1.182   5.353   0.174  1.5760 -1.1429 -0.2064
 8133TIP3    H245891   1.115   5.218   0.190 -0.4902 -0.0973  0.2577
 8134TIP3   OH245892   2.436   5.758   2.649 -0.4327  0.6766  0.2125
 8134TIP3    H145893   2.417   5.716   2.732  0.4459  0.4773  0.3239
 8134TIP3    H245894   2.375   5.832   2.644 -1.3826 -0.0751  0.4205
 8135TIP3   OH245895   0.653   2.429   6.122 -0.1961 -0.3204 -0.1793
 8135TIP3    H145896   0.638   2.470   6.037  0.7821  0.2698 -0.0924
 8135TIP3    H245897   0.743   2.454   6.145 -0.5202 -0.2610  1.1409
 8136TIP3   OH245898   3.709   5.368   4.126 -0.0054 -0.0770  0.0219
 8136TIP3    H145899   3.756   5.368   4.209 -0.5649  0.6156  0.3472
 8136TIP3    H245900   3.761   5.428   4.070 -0.1440  0.1853  0.1731
 8137TIP3   OH245901   2.478   5.986  16.279 -0.1350 -0.4655 -0.3663
 8137TIP3    H145902   2.537   5.947  16.343  2.3814  0.9973 -1.6380
 8137TIP3    H245903   2.410   5.920  16.266  0.9756 -2.0903  1.4765
 8138TIP3   OH245904   6.190   0.064   2.540  0.6019 -0.0114 -0.3915
 8138TIP3    H145905   6.130   0.074   2.466  0.0979 -0.3335 -0.0281
 8138TIP3    H245906   6.246  -0.009   2.515 -0.3595 -0.9232  0.0635
 8139TIP3   OH245907   5.132   3.388   0.200 -0.3377 -0.1701  0.0143
 8139TIP3    H145908   5.072   3.462   0.212  0.2896  0.2179  0.7995
 8139TIP3    H245909   5.077   3.311   0.214 -0.9975  0.1375 -0.8109
 8140TIP3   OH245910   3.656   0.180  17.234  0.5767 -0.4651 -0.3364
 8140TIP3    H145911   3.564   0.205  17.237  0.3791 -1.2406  0.6684
 8140TIP3    H245912   3.692   0.229  17.160 -0.7085 -0.4035 -0.9472
 8141TIP3   OH245913   0.645   2.128   0.370  0.2583  0.2498 -0.6009
 8141TIP3    H145914   0.550   2.120   0.375  0.3163  0.2008  1.8517
 8141TIP3    H245915   0.661   2.223   0.375  0.3277  0.1890  1.4784
 8142TIP3   OH245916   0.903   0.033  14.935  0.1213  0.1361  0.3631
 8142TIP3    H145917   0.907   0.030  14.840  0.6723 -0.0562  0.3872
 8142TIP3    H245918   0.990   0.061  14.962 -0.6280  2.3074  0.7409
 8143TIP3   OH245919   3.869   0.828  15.269 -0.3903 -0.3434 -0.0763
 8143TIP3    H145920   3.926   0.884  15.322 -0.5475  0.0372 -0.3089
 8143TIP3    H245921   3.804   0.887  15.233  0.3803 -0.3900 -1.6204
 8144TIP3   OH245922   5.821   4.327  11.206 -0.1363 -0.3629  0.4451
 8144TIP3    H145923   5.876   4.378  11.265 -0.2502 -0.7281  0.8674
 8144TIP3    H245924   5.873   4.249  11.185 -0.1829 -0.3387  0.2304
 8145TIP3   OH245925   2.347   0.567  13.170 -0.0121 -0.0108  0.3934
 8145TIP3    H145926   2.368   0.655  13.199  0.4926 -0.4391  1.4124
 8145TIP3    H245927   2.284   0.535  13.235 -1.2270  0.0651 -0.7230
 8146TIP3   OH245928   4.389   4.409  16.156  0.3634 -0.4787  0.0934
 8146TIP3    H145929   4.463   4.441  16.104 -1.7865  0.3343 -2.7351
 8146TIP3    H245930   4.325   4.479  16.152 -0.4320 -0.9485  2.9038
 8147TIP3   OH245931   1.195   2.865   0.566 -1.2777  0.1304 -0.4306
 8147TIP3    H145932   1.224   2.773   0.564  1.7671  0.9732 -1.4853
 8147TIP3    H245933   1.146   2.873   0.648 -1.1416 -2.2917 -0.0334
 8148TIP3   OH245934   0.571   4.930   2.866 -0.4251 -0.7144 -1.0228
 8148TIP3    H145935   0.497   4.874   2.844 -2.2649  1.5851 -1.1017
 8148TIP3    H245936   0.588   4.980   2.786  0.6230 -0.5637 -0.7183
 8149TIP3   OH245937   0.965   0.763   2.667 -0.4670  0.0976 -0.1102
 8149TIP3    H145938   1.044   0.730   2.710  1.2660  1.0792 -2.3643
 8149TIP3    H245939   0.964   0.857   2.689 -2.3947 -0.2994  1.8379
 8150TIP3   OH245940   2.471   6.528  13.529  0.3108  0.1445  0.1468
 8150TIP3    H145941   2.556   6.513  13.569  0.0450  0.5105  0.8575
 8150TIP3    H245942   2.476   6.616  13.493  1.0835 -0.7205 -2.0267
 8151TIP3   OH245943   1.776   2.559  15.958  0.5263 -0.5578 -0.3933
 8151TIP3    H145944   1.794   2.624  15.890 -0.2923 -0.0438 -0.1304
 8151TIP3    H245945   1.749   2.610  16.034  1.3282 -1.1306  0.3028
 8152TIP3   OH245946   4.708   1.257  16.176 -0.0216 -1.1584 -0.0528
 8152TIP3    H145947   4.669   1.309  16.246  1.0252 -1.2440  0.6307
 8152TIP3    H245948   4.643   1.190  16.156 -0.0637 -1.5698  1.3485
 8153TIP3   OH245949   2.319   4.112   3.733  0.6555  0.4167  0.5046
 8153TIP3    H145950   2.290   4.203   3.742  0.6510  0.4052  0.6130
 8153TIP3    H245951   2.377   4.098   3.808  3.2019  1.2732 -1.1796
 8154TIP3   OH245952   0.072   1.937  14.375 -0.4085  0.0701 -0.6431
 8154TIP3    H145953   0.028   1.983  14.304 -2.4161  0.5074  0.7959
 8154TIP3    H245954   0.028   1.853  14.381  1.7145 -1.2057 -1.7604
 8155TIP3   OH245955   1.517   5.911   3.965  0.2480 -0.7244 -0.2603
 8155TIP3    H145956   1.506   5.817   3.980 -5.3786 -0.6870 -1.9599
 8155TIP3    H245957   1.542   5.918   3.873  2.7234 -0.4073  0.3530
 8156TIP3   OH245958   6.426   4.422   4.872  0.5225 -0.4794 -0.2299
 8156TIP3    H145959   6.346   4.383   4.910  0.6718  1.0625  1.8965
 8156TIP3    H245960   6.460   4.478   4.943  1.2822  2.0553 -2.4303
 8157TIP3   OH245961   5.783   5.878  12.601  0.1085 -0.2414  0.0270
 8157TIP3    H145962   5.870   5.869  12.562 -0.3620 -1.1618 -0.8559
 8157TIP3    H245963   5.749   5.961  12.566  1.1382  0.8059  1.4369
 8158TIP3   OH245964   4.856   3.999   6.439 -1.3031 -0.0444  0.5792
 8158TIP3    H145965   4.823   3.928   6.383 -0.0080 -1.9409  2.0525
 8158TIP3    H245966   4.797   3.998   6.515 -1.6461  0.9118  0.3333
 8159TIP3   OH245967   1.949   5.610   0.264  0.2916 -0.7444  0.3776
 8159TIP3    H145968   1.857   5.627   0.284  0.0284 -1.0888 -0.4701
 8159TIP3    H245969   1.986   5.577   0.346  0.0074  0.6844  1.1078
 8160TIP3   OH245970   4.853   2.319  14.687  0.4982 -0.3054  0.0364
 8160TIP3    H145971   4.933   2.363  14.657 -0.2511  0.9435 -0.1967
 8160TIP3    H245972   4.826   2.265  14.613  1.1751 -0.7992  0.1484
 8161TIP3   OH245973   6.134   1.684   3.458 -0.4798  0.2656 -0.4962
 8161TIP3    H145974   6.218   1.673   3.502  0.1119  0.0689 -1.6435
 8161TIP3    H245975   6.088   1.602   3.471 -0.1370  0.0576 -0.5999
 8162TIP3   OH245976   4.215   3.861   0.492 -0.0550 -0.4125  0.1598
 8162TIP3    H145977   4.120   3.870   0.496 -0.3257 -2.2639 -0.6999
 8162TIP3    H245978   4.232   3.773   0.525  0.9003 -1.7417 -3.4267
 8163TIP3   OH245979   5.825   6.105  12.893  0.0861  0.8260 -0.1720
 8163TIP3    H145980   5.904   6.057  12.872  0.1032 -0.3451  2.1748
 8163TIP3    H245981   5.838   6.192  12.855  1.6640  0.0899 -1.3936
 8164TIP3   OH245982   2.193   5.838   6.303  0.0549 -0.3916  0.4147
 8164TIP3    H145983   2.236   5.801   6.380 -0.0625 -1.0481  0.1695
 8164TIP3    H245984   2.176   5.930   6.327  2.5865  0.2311  0.0888
 8165TIP3   OH245985   5.583   6.734  13.827  0.5760 -0.2670  0.0490
 8165TIP3    H145986   5.545   6.801  13.770  1.4896  1.7834  1.6889
 8165TIP3    H245987   5.641   6.684  13.770  1.3229  1.5766 -0.9157
 8166TIP3   OH245988   1.773   2.247  13.632  0.5025  0.2497  0.3800
 8166TIP3    H145989   1.853   2.240  13.579  0.8978 -0.1495  1.0107
 8166TIP3    H245990   1.721   2.171  13.607  1.1099 -0.4652  1.2308
 8167TIP3   OH245991   1.965   5.079  16.901  1.0898 -0.2570 -0.3159
 8167TIP3    H145992   1.943   5.171  16.914  2.3540 -0.0288  0.3874
 8167TIP3    H245993   2.060   5.078  16.890  0.8842 -1.2300 -2.7439
 8168TIP3   OH245994   0.286   4.756   4.601  0.0183  0.1120  0.1887
 8168TIP3    H145995   0.363   4.733   4.549 -0.0424 -0.4190  0.3303
 8168TIP3    H245996   0.227   4.798   4.539  0.3020  0.2618  0.0170
 8169TIP3   OH245997   0.759   2.858  14.081 -0.2639  0.0538 -0.0341
 8169TIP3    H145998   0.837   2.911  14.095 -0.1756 -0.1224  0.1647
 8169TIP3    H245999   0.689   2.905  14.127 -0.1423 -0.1029  0.3239
 8170TIP3   OH246000   6.297   5.532   1.341 -0.4715  0.1257  0.4101
 8170TIP3    H146001   6.308   5.532   1.436 -0.2551  1.6221  0.4072
 8170TIP3    H246002   6.351   5.459   1.311 -0.6019 -0.4159  1.4342
 8171TIP3   OH246003   4.509   2.200  16.919 -0.1571  0.1184  0.1080
 8171TIP3    H146004   4.600   2.220  16.896 -0.3080  0.7603  0.0480
 8171TIP3    H246005   4.509   2.106  16.935  0.3961  0.0093 -0.4772
 8172TIP3   OH246006   4.055   3.812  12.801 -0.5216 -0.3966  0.1720
 8172TIP3    H146007   4.018   3.768  12.878  0.5382 -0.9833  0.3668
 8172TIP3    H246008   4.080   3.899  12.834  1.7213 -1.2989  1.0529
 8173TIP3   OH246009   1.788   6.326   2.320 -0.1939 -0.2887  0.6396
 8173TIP3    H146010   1.881   6.346   2.309 -0.0929 -1.0764 -0.0332
 8173TIP3    H246011   1.750   6.342   2.234 -0.3249 -1.7541  0.3945
 8174TIP3   OH246012   1.596   4.890   5.398  0.5750 -0.4621 -0.0084
 8174TIP3    H146013   1.501   4.885   5.410  0.3457  0.6396 -1.1396
 8174TIP3    H246014   1.631   4.900   5.486 -0.3343 -1.1025  0.4393
 8175TIP3   OH246015   3.484   6.124  14.734 -0.8239 -0.2525 -0.4553
 8175TIP3    H146016   3.478   6.063  14.660 -3.2112 -0.1420 -0.4453
 8175TIP3    H246017   3.418   6.093  14.796  0.2138  0.4342  1.0761
 8176TIP3   OH246018   4.560   4.818  12.525  0.2015  0.0474 -0.0940
 8176TIP3    H146019   4.573   4.751  12.592  0.2967 -1.7780 -1.8409
 8176TIP3    H246020   4.532   4.769  12.447 -1.4761  2.2467 -0.9558
 8177TIP3   OH246021   6.369   3.714  14.704  0.2435  0.1321 -0.2859
 8177TIP3    H146022   6.408   3.712  14.791 -1.3643  1.3911  0.5210
 8177TIP3    H246023   6.397   3.797  14.667 -0.4359  0.3718 -0.2783
 8178TIP3   OH246024   4.207   6.722   0.226 -0.8115  0.0361 -0.0574
 8178TIP3    H146025   4.130   6.776   0.245 -0.7822  0.8342 -1.9412
 8178TIP3    H246026   4.279   6.766   0.272 -1.0422  0.8393 -0.4421
 8179TIP3   OH246027   4.810   6.690   4.624  0.5900 -0.0240  0.1229
 8179TIP3    H146028   4.874   6.640   4.675 -0.5641 -0.3608  1.3045
 8179TIP3    H246029   4.806   6.775   4.668  0.8214  0.2995 -0.4644
 8180TIP3   OH246030   2.277   2.606   2.011 -0.0306  0.1135  0.1767
 8180TIP3    H146031   2.192   2.615   1.967  0.4075 -0.8484 -0.9097
 8180TIP3    H246032   2.322   2.537   1.962  1.0926  0.0989  1.1969
 8181TIP3   OH246033   0.552   5.716   1.011  0.3127 -1.0524 -0.2210
 8181TIP3    H146034   0.577   5.627   0.983 -2.6643 -1.3901 -2.2968
 8181TIP3    H246035   0.533   5.762   0.930 -4.3239 -0.5771  0.8566
 8182TIP3   OH246036   1.263   6.547   0.679 -0.4082  0.0580 -0.3050
 8182TIP3    H146037   1.187   6.598   0.650 -0.5165  1.1223  1.6944
 8182TIP3    H246038   1.336   6.608   0.679  0.0662 -0.4941 -0.4608
 8183TIP3   OH246039   4.248   2.033   4.829  0.6163  0.4056  0.3679
 8183TIP3    H146040   4.305   2.110   4.830  0.0758  0.8079  1.5017
 8183TIP3    H246041   4.173   2.058   4.882 -0.0484 -0.5570 -0.0902
 8184TIP3   OH246042   5.291   5.792  15.743 -0.1742  0.0929 -0.1889
 8184TIP3    H146043   5.254   5.839  15.669 -2.2464  1.4673  1.5913
 8184TIP3    H246044   5.218   5.742  15.779  1.2041 -1.9717 -0.0595
 8185TIP3   OH246045   2.161   1.695   2.055  0.5133  0.0474  0.1684
 8185TIP3    H146046   2.192   1.721   2.142 -0.1523  0.3057  0.3298
 8185TIP3    H246047   2.082   1.747   2.041  1.3290  0.9790 -1.1518
 8186TIP3   OH246048   5.531   5.839   0.799 -0.0961 -0.6403  0.4449
 8186TIP3    H146049   5.620   5.869   0.779 -0.2036 -0.1223  0.7216
 8186TIP3    H246050   5.500   5.802   0.716 -0.2045  0.6481 -0.1135
 8187TIP3   OH246051   0.503   5.471   3.556 -0.1706  0.0652  0.1806
 8187TIP3    H146052   0.519   5.451   3.648 -0.9792 -2.0044 -0.0623
 8187TIP3    H246053   0.411   5.496   3.552  0.4799  2.6735  0.2547
 8188TIP3   OH246054   6.119   4.809   5.205  0.1952  0.6837 -0.1706
 8188TIP3    H146055   6.034   4.771   5.226  0.2616 -0.2063 -1.3905
 8188TIP3    H246056   6.138   4.867   5.278  0.7574 -2.7144  2.6601
 8189TIP3   OH246057   4.144   5.439  13.548  0.1289 -0.0692 -0.4978
 8189TIP3    H146058   4.162   5.347  13.528 -3.1399 -1.4398  1.8556
 8189TIP3    H246059   4.101   5.473  13.470  0.5182 -0.8233 -1.0497
 8190TIP3   OH246060   4.372   5.948   0.999  0.4553 -0.1180  0.0999
 8190TIP3    H146061   4.432   5.883   0.963  0.7340 -0.0105  0.3627
 8190TIP3    H246062   4.286   5.922   0.967  0.7498  0.2556 -1.0578
 8191TIP3   OH246063   2.695   1.929   1.450 -0.6739 -0.2484 -0.2501
 8191TIP3    H146064   2.599   1.933   1.445 -0.6083  1.8558 -0.7256
 8191TIP3    H246065   2.713   1.913   1.543 -1.5213  1.9755  0.3745
 8192TIP3   OH246066   2.118   3.100  16.980 -0.3168  0.1690 -0.5073
 8192TIP3    H146067   2.183   3.085  17.049 -0.5358 -1.2166 -0.5869
 8192TIP3    H246068   2.170   3.116  16.901 -0.0604  1.9738 -0.0200
 8193TIP3   OH246069   3.942   2.274   1.687  0.5390 -0.5549 -0.0579
 8193TIP3    H146070   3.882   2.280   1.612  0.1430 -0.8798  0.2296
 8193TIP3    H246071   3.938   2.182   1.713  0.4179 -0.3702  0.5781
 8194TIP3   OH246072   0.627   1.043   1.149 -0.0500  0.2112  0.1485
 8194TIP3    H146073   0.552   0.984   1.151 -1.5028  1.9682  0.6183
 8194TIP3    H246074   0.671   1.024   1.066 -0.8904 -0.9792 -0.0515
 8195TIP3   OH246075   2.715   3.202  16.384  0.1086 -0.0958  0.3394
 8195TIP3    H146076   2.679   3.117  16.361 -0.9586  0.3748  0.2179
 8195TIP3    H246077   2.656   3.265  16.344  0.8578  0.7116  0.4651
 8196TIP3   OH246078   5.499   6.293   5.043  0.6097 -0.2155 -0.1750
 8196TIP3    H146079   5.586   6.327   5.066 -0.0642  2.2001 -0.8580
 8196TIP3    H246080   5.442   6.323   5.115  0.3541 -2.1435  0.4868
 8197TIP3   OH246081   2.712   1.435   3.393  0.5753  0.1980  0.0953
 8197TIP3    H146082   2.698   1.341   3.385 -0.5539  0.3476  0.1936
 8197TIP3    H246083   2.807   1.444   3.403  0.6115 -0.9998  1.0544
 8198TIP3   OH246084   3.635   1.024  15.255 -0.0045  0.3331  0.0254
 8198TIP3    H146085   3.543   1.000  15.250 -0.6753  2.9152 -1.5375
 8198TIP3    H246086   3.650   1.042  15.348 -1.0269 -0.2157  0.3118
 8199TIP3   OH246087   2.525   1.449  12.154  0.7411 -0.4479  0.3077
 8199TIP3    H146088   2.443   1.491  12.130  2.0091  1.6612 -0.5426
 8199TIP3    H246089   2.548   1.488  12.238  2.2141  1.1029 -0.7596
 8200TIP3   OH246090   4.470   4.299   3.350  0.2183  0.3350 -0.3400
 8200TIP3    H146091   4.454   4.320   3.442 -0.6360  1.9253 -0.8148
 8200TIP3    H246092   4.478   4.204   3.348 -2.7433 -0.0592  0.9670
 8201TIP3   OH246093   4.890   0.763  16.372  0.0705 -0.3091  0.0780
 8201TIP3    H146094   4.835   0.746  16.449 -1.0538  0.1324 -0.6082
 8201TIP3    H246095   4.928   0.849  16.388 -0.4794 -0.0401 -0.0296
 8202TIP3   OH246096   5.781   5.312   0.886  0.5862 -0.4635  0.0152
 8202TIP3    H146097   5.691   5.281   0.896  0.5176 -1.5593 -2.9161
 8202TIP3    H246098   5.833   5.232   0.879  1.6159  0.1592  0.4361
 8203TIP3   OH246099   1.195   0.988  13.086  0.3867  0.3559  0.1769
 8203TIP3    H146100   1.261   1.030  13.141  0.5816  0.3474 -0.0471
 8203TIP3    H246101   1.189   0.898  13.120 -0.2865  0.6615  0.8815
 8204TIP3   OH246102   1.381   0.917   6.062  0.5391 -0.5510  0.1769
 8204TIP3    H146103   1.441   0.854   6.022 -1.0239 -1.4025 -0.9628
 8204TIP3    H246104   1.304   0.865   6.085  0.9934  0.0628  3.6173
 8205TIP3   OH246105   4.963   4.543  15.582  0.0628  0.5218  0.3330
 8205TIP3    H146106   4.900   4.596  15.534  0.3893  0.6442  0.0298
 8205TIP3    H246107   4.944   4.559  15.674 -1.6247 -0.9312  0.3019
 8206TIP3   OH246108   0.111   0.534  12.367  0.0856 -0.3085  0.1561
 8206TIP3    H146109   0.070   0.613  12.402  0.9921 -0.4367  1.5771
 8206TIP3    H246110   0.098   0.540  12.273  0.5303  1.7664  0.1882
 8207TIP3   OH246111   1.443   1.808   4.615  0.3806 -0.1373 -0.1995
 8207TIP3    H146112   1.396   1.889   4.595 -1.3111 -0.8093  0.7452
 8207TIP3    H246113   1.494   1.829   4.693 -1.5413 -0.4171  1.2192
 8208TIP3   OH246114   2.027   5.284   4.565 -0.0791  0.1404  0.0590
 8208TIP3    H146115   2.017   5.261   4.473 -2.1060  1.3824 -0.0870
 8208TIP3    H246116   2.032   5.200   4.610 -0.3522 -0.5043 -1.0660
 8209TIP3   OH246117   1.173   0.246   3.546 -0.0655 -0.0252 -0.0164
 8209TIP3    H146118   1.215   0.315   3.495 -0.4799  0.5740  0.4390
 8209TIP3    H246119   1.193   0.166   3.498 -1.0519  0.5857 -1.5499
 8210TIP3   OH246120   3.231   4.312   1.518 -0.7489 -0.0814 -0.7093
 8210TIP3    H146121   3.156   4.291   1.463 -1.3424  0.2105 -0.0293
 8210TIP3    H246122   3.306   4.305   1.460 -1.5143  2.0845 -2.0512
 8211TIP3   OH246123   1.101   4.281  12.392  0.2114 -0.4161 -0.6281
 8211TIP3    H146124   1.132   4.224  12.462 -0.2943 -1.3793 -1.1535
 8211TIP3    H246125   1.172   4.343  12.378 -0.9390  2.0535  3.0336
 8212TIP3   OH246126   5.096   1.976   2.990  0.5444 -0.1201  0.2798
 8212TIP3    H146127   5.022   2.022   3.028 -0.3625 -0.2208 -1.2674
 8212TIP3    H246128   5.058   1.896   2.954  1.1012  0.4929 -1.8088
 8213TIP3   OH246129   2.561   3.367  16.178  0.2111  0.0894  0.0662
 8213TIP3    H146130   2.494   3.433  16.163  2.2196  2.3079  0.2605
 8213TIP3    H246131   2.518   3.284  16.156 -2.7527  1.2850  0.8375
 8214TIP3   OH246132   2.293   5.876  13.295  0.3517 -0.0417 -0.1801
 8214TIP3    H146133   2.278   5.793  13.249  3.7018 -1.3500  0.8429
 8214TIP3    H246134   2.361   5.919  13.244 -0.1586  1.3372  0.2652
 8215TIP3   OH246135   1.804   5.184   4.802  0.0767 -0.0846 -0.3023
 8215TIP3    H146136   1.782   5.217   4.889  0.1285 -1.6188  0.3203
 8215TIP3    H246137   1.899   5.176   4.802  0.3272  2.1960 -1.3877
 8216TIP3   OH246138   3.688   3.625   4.508  0.3596  0.0099 -0.4053
 8216TIP3    H146139   3.630   3.594   4.438 -1.7423 -0.0101  1.2484
 8216TIP3    H246140   3.769   3.650   4.463 -0.9706  0.1880 -2.8564
 8217TIP3   OH246141   4.009   4.994  11.577  0.0255  0.0686 -0.0501
 8217TIP3    H146142   3.969   4.910  11.600 -1.0835  0.5128 -0.2991
 8217TIP3    H246143   3.948   5.034  11.515  1.7661 -0.0248 -1.9276
 8218TIP3   OH246144   0.555   2.774  14.895 -0.0446  0.0925  0.2820
 8218TIP3    H146145   0.480   2.715  14.893  0.5099 -0.6164  0.1176
 8218TIP3    H246146   0.574   2.793  14.803  1.1781 -1.3007  0.2099
 8219TIP3   OH246147   1.990   3.638  14.840 -0.2590  0.1153 -0.0488
 8219TIP3    H146148   2.060   3.694  14.806  0.1419 -1.0473 -1.1895
 8219TIP3    H246149   2.035   3.560  14.872 -1.0725 -0.9765 -1.4877
 8220TIP3   OH246150   2.904   6.387  13.257 -0.2410  0.2155 -0.1054
 8220TIP3    H146151   2.855   6.468  13.269 -0.8971 -0.2929  0.7177
 8220TIP3    H246152   2.840   6.317  13.272  0.7015 -0.4643  0.9406
 8221TIP3   OH246153   5.075   4.216   6.221  0.2709 -0.0968 -0.1529
 8221TIP3    H146154   5.050   4.268   6.298  0.3024 -0.3148  0.0064
 8221TIP3    H246155   5.110   4.279   6.159 -0.5683  0.2050 -0.3352
 8222TIP3   OH246156   5.555   0.967  14.063 -0.0412  0.5872  0.2936
 8222TIP3    H146157   5.581   0.933  13.977 -0.7197 -0.5285  0.4973
 8222TIP3    H246158   5.625   1.027  14.088  0.7586  0.0225 -0.5154
 8223TIP3   OH246159   2.024   0.458   2.510  0.5037  0.2916  0.2004
 8223TIP3    H146160   2.029   0.554   2.517 -1.3555  0.4369  0.2201
 8223TIP3    H246161   1.994   0.442   2.420  1.9377 -0.3556 -0.1856
 8224TIP3   OH246162   3.602   6.012   6.041  0.3218  0.0859 -0.1934
 8224TIP3    H146163   3.623   5.925   6.076 -1.4391 -1.1818 -1.9945
 8224TIP3    H246164   3.654   6.018   5.960  0.5493  0.7854  0.0004
 8225TIP3   OH246165   4.775   2.266  16.901  0.2053 -0.2071 -0.6320
 8225TIP3    H146166   4.865   2.247  16.873  1.1022  0.7439  1.4387
 8225TIP3    H246167   4.780   2.353  16.942 -1.5111 -0.4584  0.1955
 8226TIP3   OH246168   2.095   6.000  14.679 -0.1482 -0.0558  0.0437
 8226TIP3    H146169   2.037   5.956  14.741 -0.8772 -1.4585 -1.5686
 8226TIP3    H246170   2.116   6.084  14.721  0.4116 -1.4407  2.7324
 8227TIP3   OH246171   0.100   3.638   2.775  0.0235 -0.6339  0.1529
 8227TIP3    H146172   0.051   3.656   2.694  1.7383  0.0069 -0.7917
 8227TIP3    H246173   0.033   3.639   2.844 -1.2977  0.1578 -1.0726
 8228TIP3   OH246174   4.759   4.178  11.198  0.4751 -0.2031 -0.2550
 8228TIP3    H146175   4.742   4.087  11.172  1.3479 -0.8544  1.3310
 8228TIP3    H246176   4.854   4.185  11.200  0.5244 -0.2671  2.7093
 8229TIP3   OH246177   3.555   5.623  11.795  0.0656  0.0038  0.2765
 8229TIP3    H146178   3.479   5.583  11.837  0.2799 -0.2107  0.4538
 8229TIP3    H246179   3.617   5.552  11.784  0.8083  0.4492  1.4036
 8230TIP3   OH246180   6.660   0.219   4.113  0.4331 -0.2049  0.1156
 8230TIP3    H146181   6.720   0.266   4.056 -0.3847  0.4229 -0.2275
 8230TIP3    H246182   6.578   0.267   4.108 -0.9832 -2.5801 -1.6024
 8231TIP3   OH246183   1.511   2.295   3.168 -0.3804 -0.0824  0.3720
 8231TIP3    H146184   1.422   2.302   3.204 -0.1266  0.6437  0.8719
 8231TIP3    H246185   1.501   2.240   3.091 -1.2123 -0.2881  0.6158
 8232TIP3   OH246186   4.316   6.275   6.343  0.4247 -0.0233 -0.1897
 8232TIP3    H146187   4.256   6.348   6.351 -1.3533 -1.5795  2.0556
 8232TIP3    H246188   4.371   6.280   6.421  0.6381 -0.7748 -0.2808
 8233TIP3   OH246189   4.978   1.118  13.362 -0.1330  0.2087  0.0575
 8233TIP3    H146190   5.059   1.108  13.312  0.5647 -1.3360  1.3974
 8233TIP3    H246191   4.950   1.208  13.345  1.8891  0.7941 -0.4029
 8234TIP3   OH246192   5.800   4.596   6.892 -0.2584  0.5275  0.0047
 8234TIP3    H146193   5.873   4.551   6.848 -0.6567  0.2835 -0.4085
 8234TIP3    H246194   5.830   4.686   6.901 -0.2268  0.6173 -0.9089
 8235TIP3   OH246195   4.744   0.147  12.807 -0.5060  0.4451 -0.1023
 8235TIP3    H146196   4.796   0.202  12.864  0.0265  0.9416 -1.0484
 8235TIP3    H246197   4.805   0.118  12.739 -1.9840  3.5115 -3.0475
 8236TIP3   OH246198   5.648   4.915   1.823  0.0302 -0.2180 -0.0057
 8236TIP3    H146199   5.665   4.839   1.879  0.1466 -0.5693 -0.5162
 8236TIP3    H246200   5.556   4.905   1.796  0.3553 -0.7591 -0.9452
 8237TIP3   OH246201   2.112   3.743  16.059  0.0194 -0.0771  0.2997
 8237TIP3    H146202   2.111   3.650  16.036 -2.3950 -0.0189 -0.1249
 8237TIP3    H246203   2.034   3.755  16.113  1.2685  1.3774  1.8834
 8238TIP3   OH246204   2.642   0.662  17.210 -0.1044 -0.1578 -0.6062
 8238TIP3    H146205   2.594   0.630  17.286  1.1617 -1.7159 -0.4055
 8238TIP3    H246206   2.575   0.686  17.147 -1.1497 -1.9690 -0.2265
 8239TIP3   OH246207   2.102   4.994   2.764  0.3048 -0.1975  0.4328
 8239TIP3    H146208   2.149   4.997   2.681  0.9174 -0.8559  0.7350
 8239TIP3    H246209   2.141   4.919   2.810  0.3529  0.4735  1.5243
 8240TIP3   OH246210   2.879   3.471  17.239 -0.4822 -0.9748 -0.3027
 8240TIP3    H146211   2.923   3.412  17.300 -0.0688 -0.8011 -0.4323
 8240TIP3    H246212   2.864   3.418  17.161  0.4374 -0.7534 -0.6481
 8241TIP3   OH246213   0.110   3.216   3.942  0.5469  0.0424  0.3083
 8241TIP3    H146214   0.059   3.159   3.884 -1.0589  1.0874  0.6478
 8241TIP3    H246215   0.094   3.181   4.030  1.5968 -0.4882  0.3056
 8242TIP3   OH246216   3.979   6.115   4.371  0.2465  0.1622  0.0416
 8242TIP3    H146217   3.901   6.165   4.396  0.8991  0.5388  1.3869
 8242TIP3    H246218   4.032   6.176   4.320 -0.4859 -0.2143 -1.2244
 8243TIP3   OH246219   2.846   1.343   1.571  0.1569 -0.8247  0.0678
 8243TIP3    H146220   2.762   1.316   1.608 -0.8811 -3.2267 -3.5158
 8243TIP3    H246221   2.825   1.373   1.483  2.9716 -0.7649 -0.6695
 8244TIP3   OH246222   1.572   3.552   1.147 -0.0463 -0.0720  0.5067
 8244TIP3    H146223   1.486   3.542   1.106 -0.5057 -3.5836  1.9543
 8244TIP3    H246224   1.632   3.504   1.090  0.3477 -0.1651  0.9849
 8245TIP3   OH246225   3.662   2.183  11.742 -0.0566  0.5092 -0.0885
 8245TIP3    H146226   3.697   2.258  11.789 -0.4293 -0.7817  2.4258
 8245TIP3    H246227   3.582   2.216  11.701 -0.2181  1.5039  0.9777
 8246TIP3   OH246228   6.303   5.181   4.340  0.2316  0.3692  0.6206
 8246TIP3    H146229   6.336   5.231   4.415 -1.3521  2.2458  0.1648
 8246TIP3    H246230   6.208   5.196   4.342 -0.0452 -1.0278 -0.7305
 8247TIP3   OH246231   2.579   4.487   4.599  0.0266  0.2692  0.4402
 8247TIP3    H146232   2.630   4.443   4.531 -2.2550 -0.7919 -0.7113
 8247TIP3    H246233   2.643   4.514   4.664  2.2080  0.4791 -1.6619
 8248TIP3   OH246234   2.083   3.402  12.518 -0.5142 -0.0028 -0.0123
 8248TIP3    H146235   2.058   3.495  12.511 -0.7258 -0.0201  0.4547
 8248TIP3    H246236   2.043   3.361  12.442 -0.0398  0.3697 -0.4712
 8249TIP3   OH246237   1.921   6.727   3.929  0.0236 -0.4198  0.4973
 8249TIP3    H146238   1.944   6.808   3.975  1.2681 -0.3478 -0.2002
 8249TIP3    H246239   1.875   6.756   3.851  2.9520 -0.1007 -1.2738
 8250TIP3   OH246240   3.128   1.853   1.415 -0.3003  0.0135  0.3552
 8250TIP3    H146241   3.207   1.902   1.390  0.5546 -0.8133  1.3051
 8250TIP3    H246242   3.073   1.918   1.460  0.2069  0.4204  0.4046
 8251TIP3   OH246243   1.917   5.823  15.158  0.3268 -0.4975  1.0126
 8251TIP3    H146244   2.013   5.819  15.163  0.4423  1.0363  0.7972
 8251TIP3    H246245   1.888   5.805  15.247  1.0883  2.9624  2.1403
 8252TIP3   OH246246   0.115   2.407  14.529 -0.6671  0.2178  0.6542
 8252TIP3    H146247   0.147   2.320  14.556 -1.7897  0.5769  3.4852
 8252TIP3    H246248   0.056   2.389  14.456  3.0677 -0.7791 -2.4623
 8253TIP3   OH246249   1.647   5.642   3.978 -0.6005  0.2955 -0.2308
 8253TIP3    H146250   1.632   5.602   4.064 -0.9205 -0.3955 -0.6020
 8253TIP3    H246251   1.685   5.572   3.925  0.0362  0.8457 -0.5284
 8254TIP3   OH246252   0.629   1.900   3.233 -0.2648 -0.4776  0.0092
 8254TIP3    H146253   0.695   1.832   3.244  0.8355  0.6664  0.8836
 8254TIP3    H246254   0.545   1.855   3.243  0.4509 -1.6181  1.1540
 8255TIP3   OH246255   5.735   6.600   3.407 -0.0191  0.3065 -0.1131
 8255TIP3    H146256   5.823   6.598   3.445 -0.1909  1.2132  0.3588
 8255TIP3    H246257   5.746   6.649   3.325  0.0328 -0.1630 -0.3910
 8256TIP3   OH246258   2.499   0.306  14.770  0.0406  0.3013 -0.3067
 8256TIP3    H146259   2.557   0.364  14.720  0.1728  0.2848 -0.1734
 8256TIP3    H246260   2.479   0.234  14.711 -1.5538  1.3567 -1.1178
 8257TIP3   OH246261   0.575   5.765   0.702 -0.3118 -0.0949  0.0887
 8257TIP3    H146262   0.645   5.702   0.723  1.7265  1.6631 -1.1036
 8257TIP3    H246263   0.554   5.748   0.611  0.0596  0.7346 -0.1616
 8258TIP3   OH246264   0.653   0.375   2.545  0.6185 -0.5120 -0.3640
 8258TIP3    H146265   0.568   0.385   2.588 -0.2524  0.0883 -2.1527
 8258TIP3    H246266   0.715   0.418   2.604 -0.6225  0.8325  0.0098
 8259TIP3   OH246267   1.785   0.867   2.187  0.0486 -0.2257  0.2861
 8259TIP3    H146268   1.833   0.853   2.105  1.1495 -0.9979  1.0303
 8259TIP3    H246269   1.844   0.920   2.240 -0.4289 -0.1776  0.7758
 8260TIP3   OH246270   0.205   4.848   3.259  0.6771 -0.0530  0.0612
 8260TIP3    H146271   0.185   4.853   3.352  1.0074  0.8666  0.0902
 8260TIP3    H246272   0.154   4.918   3.218  1.0441 -0.0173 -0.3524
 8261TIP3   OH246273   0.025   5.414   2.181  0.2806  0.0495 -0.0443
 8261TIP3    H146274   0.099   5.473   2.164 -0.9325  1.5874 -0.1988
 8261TIP3    H246275  -0.041   5.439   2.117 -0.7135 -0.7028  0.6505
 8262TIP3   OH246276   2.137   1.842   3.030 -0.2001 -0.3030 -0.0287
 8262TIP3    H146277   2.228   1.838   3.001 -0.1659  1.2358 -0.1924
 8262TIP3    H246278   2.088   1.865   2.952 -0.8457 -1.7621 -0.0894
 8263TIP3   OH246279   1.689   0.987   5.268  0.1486  0.4138 -0.3459
 8263TIP3    H146280   1.636   0.908   5.267 -0.4660  0.7826  1.0537
 8263TIP3    H246281   1.779   0.956   5.276 -0.2000 -0.1673  2.3220
 8264TIP3   OH246282   4.014   5.091  15.413  0.3582 -0.7714  0.1098
 8264TIP3    H146283   3.987   5.138  15.492  0.0941 -3.5287  1.8100
 8264TIP3    H246284   4.104   5.119  15.397 -0.4944  1.9255 -0.3374
 8265TIP3   OH246285   3.779   0.642   3.533 -0.2857 -0.3683  0.4493
 8265TIP3    H146286   3.749   0.695   3.459 -1.9813  0.0553  1.3634
 8265TIP3    H246287   3.737   0.557   3.519 -0.5829 -0.2967  0.8729
 8266TIP3   OH246288   0.264   4.238   2.939 -0.1544  0.4244  0.2398
 8266TIP3    H146289   0.349   4.220   2.899  0.3193 -1.1231  1.8375
 8266TIP3    H246290   0.283   4.305   3.005 -1.3538  5.0097 -3.4658
 8267TIP3   OH246291   6.339   0.999   5.900 -0.8829  0.4618 -0.3802
 8267TIP3    H146292   6.373   1.081   5.864  0.6442  0.2268  0.4609
 8267TIP3    H246293   6.270   1.027   5.961 -2.0679  0.9565 -1.8699
 8268TIP3   OH246294   0.882   2.097  11.704  0.2425 -0.6401 -0.2844
 8268TIP3    H146295   0.905   2.080  11.613 -0.1162 -0.1733 -0.4723
 8268TIP3    H246296   0.807   2.157  11.699  1.2582  0.7289  0.3299
 8269TIP3   OH246297   4.982   0.834  12.760  0.7487  0.4536 -0.6945
 8269TIP3    H146298   4.947   0.921  12.779  0.1926 -0.1554  1.3683
 8269TIP3    H246299   4.930   0.803  12.686 -2.2057  0.1784  1.3126
 8270TIP3   OH246300   5.525   1.001   3.939  0.1455  0.3708 -0.4251
 8270TIP3    H146301   5.548   0.945   4.013  0.7455  0.2898 -0.6727
 8270TIP3    H246302   5.435   0.975   3.917 -0.1998  0.6963  0.5416
 8271TIP3   OH246303   3.869   2.361   4.920  0.6889  0.5045 -0.5274
 8271TIP3    H146304   3.911   2.427   4.976  1.1952  0.3357 -0.6957
 8271TIP3    H246305   3.913   2.370   4.835  0.8817 -0.1501 -0.5046
 8272TIP3   OH246306   2.325   1.906  12.933 -0.3269  0.2898  0.3024
 8272TIP3    H146307   2.316   1.820  12.891 -2.2370  0.7545 -0.3496
 8272TIP3    H246308   2.242   1.951  12.913  1.2726  2.9431 -0.8820
 8273TIP3   OH246309   3.073   4.344   1.762 -0.1226 -0.2439  0.1019
 8273TIP3    H146310   3.123   4.422   1.785 -0.9675  0.3081  0.1225
 8273TIP3    H246311   3.107   4.317   1.677 -1.6490  1.7764 -1.2430
 8274TIP3   OH246312   2.546   6.001   4.667  0.5184  0.4723 -0.6590
 8274TIP3    H146313   2.623   6.039   4.626  0.7971 -1.8645 -2.4850
 8274TIP3    H246314   2.528   5.921   4.617 -2.6560  0.5300  0.1411
 8275TIP3   OH246315   2.263   5.584  12.645 -0.5161  0.5571 -0.1164
 8275TIP3    H146316   2.345   5.621  12.677 -1.0146  1.7010 -0.1349
 8275TIP3    H246317   2.276   5.577  12.550 -0.1429 -0.0534 -0.0292
 8276TIP3   OH246318   3.289   3.638   0.939 -0.2213 -0.0500  0.3549
 8276TIP3    H146319   3.255   3.670   1.023  0.0661  2.4667 -0.4071
 8276TIP3    H246320   3.332   3.555   0.961 -2.1419 -0.6421  2.2597
 8277TIP3   OH246321   5.738   3.628  14.110  0.4942  0.4109  0.5788
 8277TIP3    H146322   5.832   3.618  14.094  0.4548 -0.7725  0.9498
 8277TIP3    H246323   5.697   3.567  14.048  0.0730 -0.3551  1.5926
 8278TIP3   OH246324   0.466   4.064  10.809  0.3142 -0.1809 -0.0163
 8278TIP3    H146325   0.487   4.099  10.723 -0.2555  0.1273 -0.0345
 8278TIP3    H246326   0.454   3.970  10.794  2.0554 -0.4533  0.0744
 8279TIP3   OH246327   4.206   0.617  13.147 -0.1917  0.2597 -0.7161
 8279TIP3    H146328   4.130   0.633  13.092 -0.5276 -1.2523 -0.7497
 8279TIP3    H246329   4.247   0.540  13.109  1.9754  1.6203 -1.3081
 8280TIP3   OH246330   3.961   2.410   0.601  0.2308 -0.1235 -0.1593
 8280TIP3    H146331   4.003   2.398   0.516 -0.2761 -0.9319 -0.3118
 8280TIP3    H246332   3.871   2.379   0.587 -0.5815  1.9809  0.0256
 8281TIP3   OH246333   2.024   2.935   3.397 -0.1564  0.3743  0.0187
 8281TIP3    H146334   1.964   2.884   3.451  0.2206  1.2995  1.3598
 8281TIP3    H246335   2.031   2.885   3.316  0.5767 -1.9775  1.4264
 8282TIP3   OH246336   2.531   2.162   5.962  0.0037  0.1239 -0.1654
 8282TIP3    H146337   2.482   2.113   6.028 -0.8682  2.4792  1.0608
 8282TIP3    H246338   2.578   2.095   5.913 -3.3214 -2.1871 -0.5337
 8283TIP3   OH246339   1.475   3.669  12.717  0.3857  0.4860  0.3125
 8283TIP3    H146340   1.426   3.738  12.672 -0.7898  0.7909  1.9702
 8283TIP3    H246341   1.538   3.637  12.652  0.0872  2.2386 -0.8880
 8284TIP3   OH246342   6.569   2.644   3.078  0.3723  0.2657  0.1777
 8284TIP3    H146343   6.553   2.731   3.115  2.6321  0.6975  0.2580
 8284TIP3    H246344   6.564   2.658   2.983  0.6120  0.4556  0.1923
 8285TIP3   OH246345   4.557   1.749  14.686  0.4596  0.4633  0.8374
 8285TIP3    H146346   4.567   1.838  14.721  1.5296  1.1841 -1.1460
 8285TIP3    H246347   4.640   1.730  14.642 -1.2821  0.4545 -2.8739
 8286TIP3   OH246348   1.385   6.489  11.293  0.3310 -0.3759 -0.8010
 8286TIP3    H146349   1.461   6.542  11.318 -0.8355  0.5255  0.9914
 8286TIP3    H246350   1.337   6.476  11.374 -0.8440 -1.9527 -1.6848
 8287TIP3   OH246351   2.235   4.610   3.010  0.1269  0.4715 -0.6077
 8287TIP3    H146352   2.214   4.703   3.003 -0.5087  0.2654 -1.5565
 8287TIP3    H246353   2.296   4.593   2.938 -2.5003 -0.5723 -2.7363
 8288TIP3   OH246354   0.411   0.175   2.592  0.2356  0.1319  0.0257
 8288TIP3    H146355   0.393   0.267   2.612  0.5924  0.8300 -2.5173
 8288TIP3    H246356   0.435   0.175   2.499  0.8832 -2.4593  0.1211
 8289TIP3   OH246357   1.998   4.114   3.116 -0.1478 -0.0516 -0.8725
 8289TIP3    H146358   1.927   4.079   3.169 -0.4231  2.6679  0.7539
 8289TIP3    H246359   1.956   4.174   3.055  0.5027 -0.7535 -2.0659
 8290TIP3   OH246360   4.199   3.869  11.737  0.1161  0.3407 -0.4105
 8290TIP3    H146361   4.259   3.847  11.809  1.0360  1.0729 -0.9179
 8290TIP3    H246362   4.175   3.785  11.699 -1.4404 -0.1637  1.5373
 8291TIP3   OH246363   4.558   4.566  13.555  0.1307 -0.0229 -0.0591
 8291TIP3    H146364   4.555   4.659  13.534 -1.9081 -0.2117 -0.8429
 8291TIP3    H246365   4.615   4.528  13.488 -0.1607  0.4694 -0.5952
 8292TIP3   OH246366   1.274   4.432   5.510  0.0194 -0.0986  0.0465
 8292TIP3    H146367   1.312   4.363   5.564 -0.4423 -1.3251 -1.1398
 8292TIP3    H246368   1.189   4.398   5.484  0.2627  0.4131 -1.5133
 8293TIP3   OH246369   4.182   4.043  12.895  0.3346 -0.8786  0.0423
 8293TIP3    H146370   4.186   4.119  12.953 -0.3761 -0.7772 -0.0272
 8293TIP3    H246371   4.236   4.067  12.820  0.1830 -0.4688  0.0584
 8294TIP3   OH246372   5.162   3.635  17.137  0.0784 -0.1078  0.2650
 8294TIP3    H146373   5.189   3.560  17.191 -1.5901  0.1686  1.6008
 8294TIP3    H246374   5.179   3.711  17.192 -0.8259  0.2580  0.0546
 8295TIP3   OH246375   5.575   6.634  14.087  0.4385 -0.1559  0.2787
 8295TIP3    H146376   5.535   6.718  14.111  0.8035 -0.4373  2.0328
 8295TIP3    H246377   5.619   6.651  14.003 -0.9991  0.8985 -0.3000
 8296TIP3   OH246378   6.415   1.886   0.689  0.2256 -0.0841  0.2953
 8296TIP3    H146379   6.498   1.857   0.651 -0.1840 -0.0749 -0.6497
 8296TIP3    H246380   6.377   1.943   0.622 -0.2505  0.4211  0.9836
 8297TIP3   OH246381   3.782   1.609   1.512 -0.1848  0.3390 -0.0203
 8297TIP3    H146382   3.791   1.609   1.607 -2.6775 -0.4502  0.2979
 8297TIP3    H246383   3.817   1.694   1.485  1.8835  0.0022  1.3968
 8298TIP3   OH246384   2.838   4.090  13.797  0.0277 -0.0947  0.3032
 8298TIP3    H146385   2.811   4.175  13.830 -1.8697 -0.1168 -1.0197
 8298TIP3    H246386   2.878   4.109  13.711  2.4285 -0.2935  1.2947
 8299TIP3   OH246387   0.052   6.442   4.952 -0.2127 -0.0633  0.3071
 8299TIP3    H146388   0.142   6.435   4.923 -0.5780 -0.0201 -0.8662
 8299TIP3    H246389   0.002   6.387   4.892 -1.0209  0.1949  0.7160
 8300TIP3   OH246390   5.187   1.839  13.369  0.0837  0.9336  0.7757
 8300TIP3    H146391   5.099   1.852  13.333 -0.2001 -0.7139  0.7886
 8300TIP3    H246392   5.228   1.925  13.364 -0.7043  1.2520 -1.4539
 8301TIP3   OH246393   6.210   0.227   1.867  0.1185 -0.3891  0.1444
 8301TIP3    H146394   6.132   0.281   1.880  0.2949  0.2602 -1.2940
 8301TIP3    H246395   6.265   0.278   1.807  0.3443 -2.0851 -1.1707
 8302TIP3   OH246396   4.910   5.114  12.703  0.2817  0.4448 -0.3241
 8302TIP3    H146397   4.910   5.094  12.610  0.4886 -0.0684 -0.2141
 8302TIP3    H246398   4.998   5.091  12.733 -0.3809 -1.3156  0.4086
 8303TIP3   OH246399   0.547   0.278  16.024 -0.1775  0.0134 -0.0674
 8303TIP3    H146400   0.609   0.350  16.015  1.4979 -1.1682  1.4716
 8303TIP3    H246401   0.527   0.254  15.933  1.4448  0.5750 -0.6240
 8304TIP3   OH246402   1.767   1.578  14.174  0.2623  0.2998  0.1163
 8304TIP3    H146403   1.718   1.530  14.240  1.4880 -1.6001 -0.2630
 8304TIP3    H246404   1.858   1.574  14.203  0.5647  1.2701 -0.6275
 8305TIP3   OH246405   0.257   4.074  12.208 -0.1132 -0.1384  0.7166
 8305TIP3    H146406   0.301   3.989  12.219 -1.8775 -1.6732 -2.4909
 8305TIP3    H246407   0.301   4.113  12.132 -0.4610  1.0425  1.1014
 8306TIP3   OH246408   2.379   2.494  14.240  0.0648  0.5395  0.2801
 8306TIP3    H146409   2.377   2.544  14.158 -0.8800  0.9526  0.5484
 8306TIP3    H246410   2.367   2.560  14.309  1.4403  0.2805  0.8061
 8307TIP3   OH246411   5.689   3.832  14.903 -0.0260 -0.3146  0.6578
 8307TIP3    H146412   5.626   3.850  14.833 -0.8873 -0.4202  1.3851
 8307TIP3    H246413   5.757   3.779  14.861 -0.8598 -0.9396  0.0446
 8308TIP3   OH246414   6.020   0.054   2.315 -0.3672 -0.4672 -0.0462
 8308TIP3    H146415   5.951  -0.006   2.341 -0.9929  0.7080  1.1130
 8308TIP3    H246416   6.031   0.039   2.221  0.5108 -3.3534  0.4228
 8309TIP3   OH246417   3.279   4.531  11.901 -0.2815 -0.4580  0.2192
 8309TIP3    H146418   3.278   4.624  11.922 -1.0397  0.0365 -1.7846
 8309TIP3    H246419   3.361   4.518  11.853 -0.1768 -0.8230  0.4928
 8310TIP3   OH246420   5.117   5.485   1.603  0.3831  0.3870  0.8759
 8310TIP3    H146421   5.055   5.525   1.665  0.0833 -0.3093  1.0306
 8310TIP3    H246422   5.200   5.482   1.651  0.0886 -0.3965  1.3558
 8311TIP3   OH246423   3.991   5.355   3.655  0.2011  0.1376 -0.1003
 8311TIP3    H146424   3.945   5.280   3.617  1.1364 -1.0100  0.9496
 8311TIP3    H246425   4.081   5.346   3.623  0.3160  0.8400  0.0161
 8312TIP3   OH246426   2.119   0.244   4.282 -0.2624  0.0983  0.2381
 8312TIP3    H146427   2.127   0.339   4.289  0.0129 -0.0220  1.7718
 8312TIP3    H246428   2.208   0.212   4.294 -0.4077 -0.3715  0.0657
 8313TIP3   OH246429   3.641   1.246  15.092  0.0411  0.3029 -0.0768
 8313TIP3    H146430   3.635   1.170  15.149  0.7460  0.4775  0.2351
 8313TIP3    H246431   3.584   1.312  15.133 -0.9099 -0.1807 -0.5763
 8314TIP3   OH246432   6.665   1.898  17.423 -0.0603  0.8272 -0.2137
 8314TIP3    H146433   6.647   1.914  17.515  0.5315 -1.0407  0.2894
 8314TIP3    H246434   6.759   1.877  17.420  0.0943  1.5688 -1.3639
 8315TIP3   OH246435   6.167   4.456  13.565  0.2225  0.0939 -0.1565
 8315TIP3    H146436   6.233   4.513  13.603 -0.5753  0.6495  0.4244
 8315TIP3    H246437   6.126   4.509  13.497  1.3374 -0.7392 -1.5399
 8316TIP3   OH246438   1.496   1.176  11.546  0.2149  0.0571 -0.2668
 8316TIP3    H146439   1.558   1.242  11.514  0.1192  0.1614 -0.2412
 8316TIP3    H246440   1.470   1.208  11.633  1.3547 -0.8222  0.4169
 8317TIP3   OH246441   5.349   4.487  16.264 -0.1925 -0.4364  0.3254
 8317TIP3    H146442   5.406   4.421  16.304 -1.3237 -0.9538  1.1276
 8317TIP3    H246443   5.373   4.569  16.307  1.6560 -0.1450 -1.1120
 8318TIP3   OH246444   1.223   4.798   1.767  0.4099  0.9351 -0.4781
 8318TIP3    H146445   1.240   4.740   1.693 -0.7825  1.0342 -0.8575
 8318TIP3    H246446   1.310   4.820   1.801  1.0532  1.5641 -2.3855
 8319TIP3   OH246447   4.291   1.484  15.983  0.4324 -0.0512 -0.0177
 8319TIP3    H146448   4.207   1.528  15.965  0.4155 -0.0092  0.1532
 8319TIP3    H246449   4.307   1.430  15.906 -0.1107 -0.6126  0.2544
 8320TIP3   OH246450   3.439   1.277   3.097 -0.3657  0.2034  0.1622
 8320TIP3    H146451   3.361   1.332   3.085  0.5274  1.5917  0.4107
 8320TIP3    H246452   3.417   1.220   3.171 -0.3973  2.0870  1.7017
 8321TIP3   OH246453   6.017   3.927  14.499 -0.8131  0.2135  0.1343
 8321TIP3    H146454   6.045   4.013  14.469  2.6205 -1.3675 -1.7711
 8321TIP3    H246455   6.055   3.919  14.587 -0.1048  0.2035 -0.1690
 8322TIP3   OH246456   0.072   0.289   2.846  0.3401 -0.4447 -0.7307
 8322TIP3    H146457   0.125   0.330   2.915  0.0279  1.1304 -1.4099
 8322TIP3    H246458   0.048   0.204   2.884  0.7920  0.0669  0.8117
 8323TIP3   OH246459   4.701   6.228   0.457 -0.4635  0.0123  0.6437
 8323TIP3    H146460   4.681   6.313   0.495  0.2511  0.6601 -0.3869
 8323TIP3    H246461   4.615   6.192   0.434 -0.6945  2.0092 -2.1163
 8324TIP3   OH246462   0.126   3.007   3.523  0.1626  0.7995 -0.3255
 8324TIP3    H146463   0.147   3.041   3.436 -0.4951  0.0794 -0.7864
 8324TIP3    H246464   0.175   2.925   3.529 -0.1215  0.6387 -0.1915
 8325TIP3   OH246465   6.412   4.050   4.124  0.8907 -0.0106 -0.6875
 8325TIP3    H146466   6.505   4.067   4.108  1.1619 -1.4334 -0.7879
 8325TIP3    H246467   6.403   3.955   4.116  0.0696 -0.3441  2.5088
 8326TIP3   OH246468   3.184   4.512  12.175  0.7351  0.1350 -0.2803
 8326TIP3    H146469   3.233   4.529  12.255  2.0904 -2.8336 -0.3259
 8326TIP3    H246470   3.250   4.519  12.105  0.3797 -0.6914 -0.7133
 8327TIP3   OH246471   3.952   5.956   2.681  0.1269  0.2291  0.0924
 8327TIP3    H146472   3.966   6.020   2.751 -0.2272 -0.2596  0.6175
 8327TIP3    H246473   4.031   5.902   2.682 -1.1392 -1.7901  2.2778
 8328TIP3   OH246474   2.143   6.055  11.751  0.3329  1.0102  0.1221
 8328TIP3    H146475   2.173   5.974  11.793  0.5220  0.5755 -0.8408
 8328TIP3    H246476   2.074   6.028  11.691 -1.6893  1.9261  1.8748
 8329TIP3   OH246477   0.730   6.285  15.951  0.0400  0.9496  0.1081
 8329TIP3    H146478   0.678   6.301  15.873  0.8484  1.6942 -0.2997
 8329TIP3    H246479   0.819   6.273  15.918 -0.1385 -2.6866  0.5352
 8330TIP3   OH246480   0.367   5.384  12.665  0.2454 -0.0219  0.5556
 8330TIP3    H146481   0.279   5.412  12.638  0.2849 -0.1292  0.3183
 8330TIP3    H246482   0.399   5.331  12.592  0.1971 -0.6468  0.9818
 8331TIP3   OH246483   5.193   4.699  15.575  0.0102  0.0921 -0.1716
 8331TIP3    H146484   5.116   4.646  15.556  1.4967 -1.8626 -1.0908
 8331TIP3    H246485   5.197   4.701  15.671 -0.0651 -1.5558 -0.1054
 8332TIP3   OH246486   6.411   2.163   5.496 -0.6247 -0.0215 -0.3110
 8332TIP3    H146487   6.377   2.248   5.467 -0.7357 -0.4994 -1.6718
 8332TIP3    H246488   6.501   2.181   5.522  0.0573  0.2019 -2.5617
 8333TIP3   OH246489   4.587   4.576  13.178  0.0447  0.7849  0.0041
 8333TIP3    H146490   4.644   4.523  13.234 -1.0007 -0.2263  0.1334
 8333TIP3    H246491   4.643   4.601  13.104  0.5283 -0.5781 -0.1099
 8334TIP3   OH246492   5.204   3.754  14.728 -0.0235  0.1066 -0.4774
 8334TIP3    H146493   5.238   3.824  14.783  0.4668  0.0938 -0.7560
 8334TIP3    H246494   5.282   3.710  14.694 -0.3107  0.2111 -1.3019
 8335TIP3   OH246495   1.321   0.584   5.848 -0.1702  0.3702  0.4807
 8335TIP3    H146496   1.411   0.562   5.870  0.5167  2.0694 -0.4390
 8335TIP3    H246497   1.273   0.573   5.930  0.8263 -0.7091  0.9378
 8336TIP3   OH246498   4.415   1.300   3.647  0.5168  0.7078 -0.0786
 8336TIP3    H146499   4.371   1.290   3.562 -0.0423  2.6554 -0.0794
 8336TIP3    H246500   4.359   1.255   3.709  1.4288 -1.6047 -0.8231
 8337TIP3   OH246501   6.028   3.090   0.878  0.4643 -0.1641  0.0700
 8337TIP3    H146502   6.001   2.998   0.873 -1.7506  0.4124  0.2968
 8337TIP3    H246503   6.032   3.109   0.972  1.2256 -0.0818  0.0300
 8338TIP3   OH246504   6.008   2.928   3.005  0.5964  0.5441 -0.3782
 8338TIP3    H146505   5.922   2.961   3.034 -0.3889 -1.1543 -1.2583
 8338TIP3    H246506   6.047   3.002   2.959 -0.3935  1.3390  0.0157
 8339TIP3   OH246507   4.784   5.235  14.514 -0.0530 -0.1011  0.1603
 8339TIP3    H146508   4.868   5.249  14.471 -0.2231 -2.0972 -0.9237
 8339TIP3    H246509   4.806   5.194  14.598  0.1120  1.0150  0.6853
 8340TIP3   OH246510   3.611   2.350  14.044  0.1109  0.0988  0.2544
 8340TIP3    H146511   3.686   2.290  14.047  0.6461  0.7461 -0.0554
 8340TIP3    H246512   3.546   2.308  14.101  0.1084 -1.2482 -0.6787
 8341TIP3   OH246513   4.205   4.405  16.739  0.0297  0.1013 -0.3237
 8341TIP3    H146514   4.250   4.322  16.748  0.6548  0.5431  0.9195
 8341TIP3    H246515   4.137   4.389  16.674 -0.4136 -1.6162  0.5065
 8342TIP3   OH246516   4.802   4.024   4.579 -0.6487  0.1600  0.1972
 8342TIP3    H146517   4.750   3.950   4.609  0.9486 -1.6536 -1.2139
 8342TIP3    H246518   4.891   3.989   4.571  0.0247  2.0127 -1.2311
 8343TIP3   OH246519   5.344   5.439  13.570 -0.3881  0.5890 -0.6306
 8343TIP3    H146520   5.348   5.363  13.512 -1.8814  0.2914 -0.3930
 8343TIP3    H246521   5.351   5.514  13.511 -2.1274  0.2938 -1.2917
 8344TIP3   OH246522   4.214   6.732  17.420 -0.0494 -0.5270  0.0040
 8344TIP3    H146523   4.122   6.714  17.439 -0.0575 -1.1005 -0.5333
 8344TIP3    H246524   4.259   6.721  17.504 -0.3271 -1.2881  0.0578
 8345TIP3   OH246525   3.456   3.846   3.097 -0.0140  0.1342  0.3361
 8345TIP3    H146526   3.539   3.799   3.082 -1.0563 -1.3635 -0.9889
 8345TIP3    H246527   3.476   3.937   3.075  0.8639 -0.4933 -1.6991
 8346TIP3   OH246528   0.331   4.963  16.920  0.2953 -0.5726  0.5326
 8346TIP3    H146529   0.359   4.904  16.851  2.4762 -1.3751  1.9963
 8346TIP3    H246530   0.286   4.907  16.983 -1.1962  0.0591  0.0750
 8347TIP3   OH246531   3.877   4.758   4.541 -0.4668  0.1048 -0.1009
 8347TIP3    H146532   3.898   4.708   4.620  0.8639  1.1504  0.2548
 8347TIP3    H246533   3.961   4.768   4.496 -1.1205 -0.0318 -1.4004
 8348TIP3   OH246534   4.800   5.940   0.300 -0.2267 -0.2439 -0.0275
 8348TIP3    H146535   4.835   6.003   0.364 -0.2520  0.4003 -0.6275
 8348TIP3    H246536   4.749   5.994   0.239 -2.0138 -1.1325  0.6406
 8349TIP3   OH246537   4.462   5.311   5.760 -0.2476 -0.0533 -0.0202
 8349TIP3    H146538   4.383   5.282   5.715  0.4445 -0.0020 -1.3283
 8349TIP3    H246539   4.508   5.365   5.695 -0.7179  2.7137  1.7843
 8350TIP3   OH246540   2.662   3.952   4.126 -0.0962 -0.3847  0.4458
 8350TIP3    H146541   2.738   3.925   4.073 -1.1394 -0.4693 -1.0634
 8350TIP3    H246542   2.643   3.876   4.181  0.0607 -0.8821 -0.1798
 8351TIP3   OH246543   3.832   1.032   2.846  0.1754  0.4464  0.4143
 8351TIP3    H146544   3.752   1.064   2.804  1.1945  2.1655 -0.3252
 8351TIP3    H246545   3.851   1.097   2.914  0.7723 -0.1348  0.8160
 8352TIP3   OH246546   0.853   5.231  14.664 -0.1904  0.1263 -0.3525
 8352TIP3    H146547   0.948   5.222  14.664  0.0353  1.9772 -1.4588
 8352TIP3    H246548   0.830   5.240  14.571 -1.5904 -1.2549 -0.1937
 8353TIP3   OH246549   5.194   3.983  17.184  0.2287 -0.9614 -0.3582
 8353TIP3    H146550   5.276   3.982  17.234  1.0121  0.7353 -1.5232
 8353TIP3    H246551   5.218   4.019  17.099 -2.2604  3.3307  0.4125
 8354TIP3   OH246552   5.062   0.855   4.574  0.0052  0.1667 -0.6862
 8354TIP3    H146553   5.037   0.884   4.662  1.0764 -0.2131 -0.2468
 8354TIP3    H246554   5.094   0.934   4.531  0.7444  0.1081 -0.2675
 8355TIP3   OH246555   2.504   0.234  11.548 -0.0202 -0.1263 -0.2227
 8355TIP3    H146556   2.461   0.203  11.628  1.0612 -1.8115 -0.2465
 8355TIP3    H246557   2.570   0.296  11.579  0.6274 -1.0306  0.2528
 8356TIP3   OH246558   2.811   0.219  10.747 -0.0004 -0.3612 -0.0520
 8356TIP3    H146559   2.861   0.142  10.777  0.0729  0.1216  1.1217
 8356TIP3    H246560   2.846   0.291  10.799 -0.2630  0.4237 -0.9536
 8357TIP3   OH246561   0.212   6.704   2.585  0.1273 -0.3736  0.3604
 8357TIP3    H146562   0.124   6.728   2.614 -0.0368 -1.5932  0.9423
 8357TIP3    H246563   0.220   6.742   2.497 -1.2074 -0.7388  0.0666
 8358TIP3   OH246564   2.769   0.651   2.715 -0.5240  0.0453 -0.9455
 8358TIP3    H146565   2.698   0.711   2.693 -1.0870 -0.1274  0.3301
 8358TIP3    H246566   2.836   0.667   2.648 -1.0830  1.3645 -1.2108
 8359TIP3   OH246567   3.716   0.638  14.157 -0.2195  0.1187 -0.1301
 8359TIP3    H146568   3.684   0.569  14.100  1.9230 -0.3235 -0.8879
 8359TIP3    H246569   3.637   0.683  14.187 -1.6056 -1.9597 -0.4639
 8360TIP3   OH246570   2.167   3.332  14.344  0.6228 -0.4939  0.3327
 8360TIP3    H146571   2.218   3.333  14.263 -0.5450 -0.0537 -0.4389
 8360TIP3    H246572   2.109   3.256  14.335 -1.4676  1.0749 -0.6041
 8361TIP3   OH246573   1.279   0.509  13.561 -0.1585 -0.0946 -0.5102
 8361TIP3    H146574   1.222   0.486  13.487  0.7286 -1.0050 -0.9422
 8361TIP3    H246575   1.223   0.557  13.621 -1.4532 -1.1952 -0.8002
 8362TIP3   OH246576   5.026   5.917   4.172  0.0069 -0.3097 -0.1160
 8362TIP3    H146577   4.933   5.894   4.171  0.6064 -3.4481  2.4346
 8362TIP3    H246578   5.061   5.878   4.092 -0.8696  1.5464 -1.4996
 8363TIP3   OH246579   2.133   0.342  15.099  0.2845  0.2806 -0.2647
 8363TIP3    H146580   2.184   0.286  15.041  0.5376  0.1235  0.1072
 8363TIP3    H246581   2.150   0.308  15.187  1.5473  1.7833  0.1169
 8364TIP3   OH246582   2.425   0.007  14.114 -0.2230 -0.2043  0.5306
 8364TIP3    H146583   2.402   0.094  14.079  1.5641  0.3006  0.5346
 8364TIP3    H246584   2.401  -0.054  14.043  0.5452  0.5120 -0.3731
 8365TIP3   OH246585   3.830   5.000   5.131  0.4858 -0.1140  0.3088
 8365TIP3    H146586   3.776   4.958   5.198 -1.0423  1.3166  0.0470
 8365TIP3    H246587   3.897   4.935   5.110  1.0254 -0.6282  3.1681
 8366TIP3   OH246588   6.435   3.955  14.959  0.4219 -0.4174 -0.4318
 8366TIP3    H146589   6.408   3.971  15.049 -0.0177  0.0541 -0.6434
 8366TIP3    H246590   6.362   3.985  14.906  0.8714 -0.2414 -0.9683
 8367TIP3   OH246591   2.686   1.898  14.472 -0.3411 -0.5893  0.3437
 8367TIP3    H146592   2.722   1.983  14.497  0.1870 -0.3899 -0.9915
 8367TIP3    H246593   2.640   1.915  14.389 -1.4033 -1.3388  0.7577
 8368TIP3   OH246594   0.777   6.132   4.148  0.1721  0.5433 -0.0206
 8368TIP3    H146595   0.740   6.074   4.215  2.8791 -1.5827 -0.2022
 8368TIP3    H246596   0.803   6.074   4.077  3.5126  1.7907 -0.0066
 8369TIP3   OH246597   5.693   4.178   3.520  0.1398 -0.1061 -0.0015
 8369TIP3    H146598   5.778   4.219   3.533  0.1168  0.0582 -0.3599
 8369TIP3    H246599   5.674   4.135   3.603 -1.1248  2.9566  1.4736
 8370TIP3   OH246600   5.264   4.023   2.455 -0.3952 -0.0375  0.1389
 8370TIP3    H146601   5.227   4.009   2.542 -0.1565  0.5116  0.3340
 8370TIP3    H246602   5.345   4.071   2.471 -0.1754 -0.2368 -0.3633
 8371TIP3   OH246603   3.761   2.968   5.203  0.1431  0.5567  0.3089
 8371TIP3    H146604   3.733   2.894   5.257 -0.7375 -0.6033 -1.6338
 8371TIP3    H246605   3.719   3.044   5.242 -1.6379 -0.4437  0.4302
 8372TIP3   OH246606   5.745   6.011  13.680  0.1638 -0.5014  0.3305
 8372TIP3    H146607   5.691   5.998  13.602 -0.3537 -1.6805  0.8587
 8372TIP3    H246608   5.699   6.079  13.729  1.2505  1.3080 -1.0186
 8373TIP3   OH246609   0.178   2.418   4.630  0.1259  0.1061 -0.0123
 8373TIP3    H146610   0.185   2.339   4.577 -1.2390  0.8297 -1.3365
 8373TIP3    H246611   0.127   2.391   4.707 -0.7786 -0.2112 -0.7031
 8374TIP3   OH246612   4.399   5.166   0.066 -0.4767 -1.0790  0.7808
 8374TIP3    H146613   4.320   5.113   0.075 -0.7704 -1.0192 -1.1039
 8374TIP3    H246614   4.411   5.206   0.153 -2.9730 -0.4214  0.8981
 8375TIP3   OH246615   3.067   6.745   3.988  0.1250  0.2792 -0.2174
 8375TIP3    H146616   2.984   6.768   3.946  0.7466 -0.0667 -1.6992
 8375TIP3    H246617   3.126   6.726   3.915  0.9659 -1.3848  0.8444
 8376TIP3   OH246618   0.309   3.861   0.455 -0.3820  0.5291 -0.4231
 8376TIP3    H146619   0.308   3.850   0.360  0.1743  0.9456 -0.4873
 8376TIP3    H246620   0.256   3.789   0.488  0.9255 -0.7269 -0.9404
 8377TIP3   OH246621   6.002   1.147  11.780  0.3380 -0.2305  0.3173
 8377TIP3    H146622   5.911   1.116  11.774 -0.1941  1.1383  1.0884
 8377TIP3    H246623   6.053   1.067  11.796 -0.5713 -1.1831 -1.2576
 8378TIP3   OH246624   2.062   1.941   5.557 -0.2586  0.0339  0.1905
 8378TIP3    H146625   2.063   1.885   5.480  0.9293 -0.4147  0.5127
 8378TIP3    H246626   2.135   1.911   5.610 -0.0794  1.3624  0.7497
 8379TIP3   OH246627   0.833   4.615  16.280  0.1782  0.6590  0.2574
 8379TIP3    H146628   0.812   4.703  16.248 -1.0811  0.7362  1.2269
 8379TIP3    H246629   0.928   4.615  16.287  0.4754  0.9127 -2.6146
 8380TIP3   OH246630   5.968   0.532  13.822  0.3758  0.0346 -0.2894
 8380TIP3    H146631   5.934   0.574  13.743  0.0560 -0.8360 -0.6303
 8380TIP3    H246632   5.977   0.440  13.798  0.7474 -0.1550  0.5374
 8381TIP3   OH246633   1.347   4.879  16.498 -0.4513 -0.0427  0.1804
 8381TIP3    H146634   1.385   4.967  16.498 -0.4858 -0.0247  0.8426
 8381TIP3    H246635   1.414   4.824  16.539 -0.6942 -0.2035  0.3641
 8382TIP3   OH246636   5.984   3.630  14.373 -0.1986  0.2033 -0.2602
 8382TIP3    H146637   5.891   3.612  14.387  0.0437 -1.8578 -1.0405
 8382TIP3    H246638   6.010   3.681  14.450 -2.4389  2.8176 -1.0979
 8383TIP3   OH246639   4.329   6.045  12.483 -0.7457  0.3962 -0.6089
 8383TIP3    H146640   4.360   6.066  12.395 -2.0334  0.6897 -1.0192
 8383TIP3    H246641   4.296   6.129  12.517 -0.6519  0.1938 -0.0128
 8384TIP3   OH246642   5.471   3.039  14.257 -0.3766 -0.1043  0.2672
 8384TIP3    H146643   5.457   3.032  14.163  1.8513 -1.4505 -0.0439
 8384TIP3    H246644   5.499   3.130  14.270  0.7933 -0.3100 -0.6473
 8385TIP3   OH246645   1.192   1.120  14.472  0.5388  0.0013 -0.0652
 8385TIP3    H146646   1.186   1.028  14.447 -0.4757 -0.4743  1.7203
 8385TIP3    H246647   1.251   1.159  14.407  0.3286 -1.7023 -1.3602
 8386TIP3   OH246648   5.418   1.786   4.406  0.2036  0.3480 -0.8543
 8386TIP3    H146649   5.492   1.846   4.396  0.3040  0.4613  0.4692
 8386TIP3    H246650   5.445   1.708   4.358  0.8393  0.6914 -1.0740
 8387TIP3   OH246651   0.497   1.461   3.004 -0.4460  0.2817  0.1915
 8387TIP3    H146652   0.590   1.444   3.019 -0.2154  1.8355  0.6883
 8387TIP3    H246653   0.479   1.541   3.053 -2.0466  0.0315  0.0631
 8388TIP3   OH246654   3.786   3.533  13.853  0.3206 -0.5220 -0.2657
 8388TIP3    H146655   3.702   3.518  13.808  0.9765 -1.3700 -1.2491
 8388TIP3    H246656   3.817   3.616  13.818  0.2034 -0.5423 -0.4222
 8389TIP3   OH246657   2.825   3.943  12.945 -0.5859  0.4121  0.3982
 8389TIP3    H146658   2.884   3.960  13.019  0.6043  1.0758 -0.6728
 8389TIP3    H246659   2.794   3.853  12.960  1.7732 -0.4918  0.3108
 8390TIP3   OH246660   4.640   5.470  11.695 -0.3485  0.3442  0.0986
 8390TIP3    H146661   4.642   5.541  11.631  1.2216  1.0645  0.8789
 8390TIP3    H246662   4.692   5.503  11.769 -1.9183 -0.5232  1.6762
 8391TIP3   OH246663   5.554   6.569   2.666  0.3103  0.0009  0.3288
 8391TIP3    H146664   5.619   6.629   2.631  1.1561 -1.0233  0.1071
 8391TIP3    H246665   5.594   6.482   2.659 -1.5796 -0.8505 -1.0872
 8392TIP3   OH246666   2.792   5.527  11.950  0.3466 -0.0337  0.0087
 8392TIP3    H146667   2.719   5.471  11.975  1.1400 -0.8797  0.4912
 8392TIP3    H246668   2.754   5.615  11.944 -1.1049 -0.7108 -1.5729
 8393TIP3   OH246669   2.618   4.434  15.257  0.3430 -0.0639  0.2667
 8393TIP3    H146670   2.543   4.493  15.245  0.5950  0.1708 -0.1930
 8393TIP3    H246671   2.624   4.387  15.175  1.4358  0.7872 -0.1646
 8394TIP3   OH246672   2.486   6.303   0.717 -0.4368  0.3475  0.5028
 8394TIP3    H146673   2.560   6.250   0.685  1.2129  1.3959  2.3446
 8394TIP3    H246674   2.413   6.279   0.659  0.7653 -2.3053 -0.1065
 8395TIP3   OH246675   0.464   2.760  15.967  0.1433  0.4400 -0.7866
 8395TIP3    H146676   0.558   2.757  15.986 -0.2349 -0.0273  1.1740
 8395TIP3    H246677   0.432   2.838  16.013 -0.6050 -0.0112 -0.5199
 8396TIP3   OH246678   2.965   4.812   3.366  0.2912 -0.1785  0.2321
 8396TIP3    H146679   3.056   4.827   3.393  0.0339  1.0673  0.4891
 8396TIP3    H246680   2.915   4.825   3.447 -0.1456 -0.4620  0.0051
 8397TIP3   OH246681   2.786   3.197   1.180  0.3641  0.7027  0.4058
 8397TIP3    H146682   2.773   3.217   1.087  0.8069 -0.2617  0.1162
 8397TIP3    H246683   2.868   3.147   1.182 -0.0916 -0.0339  1.2064
 8398TIP3   OH246684   1.067   5.704   1.021 -0.5882 -0.0476  0.0315
 8398TIP3    H146685   1.025   5.726   0.938 -0.6367 -0.3863 -0.0364
 8398TIP3    H246686   1.003   5.728   1.088 -0.1154  1.2800  0.0444
 8399TIP3   OH246687   5.394   5.675   4.554 -0.7668  0.2559 -0.0011
 8399TIP3    H146688   5.483   5.658   4.524 -1.1145  0.2694 -1.1203
 8399TIP3    H246689   5.362   5.590   4.584 -0.4513  0.2085  0.2070
 8400TIP3   OH246690   2.937   2.144   3.027  0.2917  0.0437 -0.5294
 8400TIP3    H146691   2.945   2.239   3.022  1.0997 -0.0333 -0.8240
 8400TIP3    H246692   2.844   2.129   3.046  0.2247  0.8961 -0.1212
 8401TIP3   OH246693   3.696   4.803  13.684  0.4664  0.2038  0.2554
 8401TIP3    H146694   3.719   4.888  13.646  0.5555  0.0849  0.0379
 8401TIP3    H246695   3.657   4.823  13.769 -0.2542  0.5116 -0.1433
 8402TIP3   OH246696   3.833   6.098  13.139  0.4027 -0.0447  0.3967
 8402TIP3    H146697   3.793   6.027  13.188 -0.3604  0.2352  0.1999
 8402TIP3    H246698   3.927   6.084  13.148  0.2978 -1.8830 -0.7881
 8403TIP3   OH246699   5.081   5.390   4.537 -0.0474  0.7993  0.0522
 8403TIP3    H146700   5.027   5.341   4.601 -0.3207  0.9281 -0.0777
 8403TIP3    H246701   5.158   5.417   4.587 -1.3474  2.9920  1.0254
 8404TIP3   OH246702   2.501   0.009  11.853  0.0024  0.2648  0.3532
 8404TIP3    H146703   2.484   0.016  11.947 -0.3941  0.4549  0.2693
 8404TIP3    H246704   2.570  -0.058  11.846  0.7917  1.0100  0.8500
 8405TIP3   OH246705   0.230   2.889  16.228 -0.7044  0.0838  0.2676
 8405TIP3    H146706   0.281   2.955  16.181  1.5125 -1.1524  0.8136
 8405TIP3    H246707   0.169   2.940  16.281  0.7701  1.7265  0.4891
 8406TIP3   OH246708   2.376   2.423   3.950  0.8629 -0.9028  0.3886
 8406TIP3    H146709   2.396   2.383   3.865  1.1927  0.3986 -0.1860
 8406TIP3    H246710   2.460   2.427   3.995  0.6193 -1.9661  0.9689
 8407TIP3   OH246711   4.086   4.829   0.920  0.4266 -0.0615  0.2239
 8407TIP3    H146712   4.087   4.748   0.869  0.6580  0.5997 -0.8575
 8407TIP3    H246713   4.097   4.801   1.011 -0.8005 -1.3257  0.0039
 8408TIP3   OH246714   3.201   5.789  15.672 -1.2486 -0.0484  0.2801
 8408TIP3    H146715   3.205   5.693  15.664  1.4321  0.0620 -0.9694
 8408TIP3    H246716   3.160   5.818  15.591  0.2020 -0.1090 -0.5235
 8409TIP3   OH246717   2.329   4.312   4.123  0.9346 -0.6240 -0.0342
 8409TIP3    H146718   2.344   4.333   4.216 -1.0296  1.0155 -0.0052
 8409TIP3    H246719   2.316   4.398   4.082 -0.4593 -1.4320 -1.3627
 8410TIP3   OH246720   3.838   1.417   5.347  0.1355  0.2453  0.4981
 8410TIP3    H146721   3.915   1.359   5.346  1.2633  1.6762  0.0050
 8410TIP3    H246722   3.875   1.505   5.338 -1.5832  0.9782  0.2674
 8411TIP3   OH246723   1.732   0.383  11.843 -0.5859  0.1626 -0.0464
 8411TIP3    H146724   1.664   0.319  11.862  0.7097 -1.5939 -1.0157
 8411TIP3    H246725   1.693   0.441  11.778 -1.3539 -0.4333 -0.1313
 8412TIP3   OH246726   5.224   3.722  13.682  0.5076  0.1269  0.4281
 8412TIP3    H146727   5.211   3.781  13.608  1.4336  0.9762  0.9176
 8412TIP3    H246728   5.146   3.667  13.682 -0.2316  1.1240 -0.2554
 8413TIP3   OH246729   2.381   0.511   3.131 -0.4681  0.1924 -0.5539
 8413TIP3    H146730   2.418   0.525   3.218 -1.2744 -0.1352 -0.1504
 8413TIP3    H246731   2.421   0.429   3.101 -0.9928 -0.2646 -0.0369
 8414TIP3   OH246732   4.162   3.138  13.712  0.4745  0.1715  0.2377
 8414TIP3    H146733   4.147   3.232  13.699 -0.6150 -0.1283 -0.8329
 8414TIP3    H246734   4.157   3.126  13.807 -0.4502  1.0416  0.3142
 8415TIP3   OH246735   2.210   2.048  13.489  0.2110 -0.4107 -0.0732
 8415TIP3    H146736   2.270   2.119  13.469 -1.9547  1.5186 -0.1444
 8415TIP3    H246737   2.256   1.996  13.556  1.7607  1.2108  0.1941
 8416TIP3   OH246738   4.458   1.127  15.656 -0.2157  0.9507 -0.2680
 8416TIP3    H146739   4.403   1.078  15.717  2.0760  1.4453  2.4783
 8416TIP3    H246740   4.460   1.216  15.692  1.0595  1.3293 -1.1755
 8417TIP3   OH246741   1.567   0.092   1.724  0.2540 -0.2928 -0.2377
 8417TIP3    H146742   1.565   0.162   1.790 -1.1123 -1.0199  0.5268
 8417TIP3    H246743   1.623   0.025   1.762  1.1805  0.1614 -0.7657
 8418TIP3   OH246744   1.507   2.929   1.504 -0.1416  0.6079 -0.1746
 8418TIP3    H146745   1.461   2.936   1.588  0.2042 -1.0054  0.1733
 8418TIP3    H246746   1.596   2.959   1.523 -0.5312  1.9649 -0.4114
 8419TIP3   OH246747   1.610   1.768  14.038 -0.5583 -0.2416  0.0020
 8419TIP3    H146748   1.551   1.709  13.991  0.8425  0.1639 -2.4047
 8419TIP3    H246749   1.660   1.710  14.096 -2.4587 -0.7184  1.2810
 8420TIP3   OH246750   6.369   3.776  12.343  0.3058  0.2031 -0.6828
 8420TIP3    H146751   6.392   3.737  12.427 -0.5160 -0.2049 -0.6319
 8420TIP3    H246752   6.296   3.835  12.362 -1.1610 -1.3015 -1.3492
 8421TIP3   OH246753   3.314   6.411   3.205  0.5098 -0.1618 -0.7282
 8421TIP3    H146754   3.317   6.389   3.299  2.0097  0.8887 -0.4879
 8421TIP3    H246755   3.283   6.501   3.202  0.8057 -0.0732 -1.2213
 8422TIP3   OH246756   5.909   3.022   4.107 -0.0057 -0.6241 -0.3877
 8422TIP3    H146757   5.987   3.010   4.160  0.1883  3.4865  0.6347
 8422TIP3    H246758   5.836   2.996   4.163  0.4366 -0.6900  0.1572
 8423TIP3   OH246759   4.490   4.011   3.391  0.0651 -0.2739  0.3774
 8423TIP3    H146760   4.528   3.993   3.476  1.0187 -2.1069 -0.3904
 8423TIP3    H246761   4.425   3.942   3.378 -0.8097  0.5897  0.0367
 8424TIP3   OH246762   6.135   1.362  14.522  0.3284  0.6099 -0.3072
 8424TIP3    H146763   6.112   1.306  14.597 -0.0659 -0.1534 -0.9824
 8424TIP3    H246764   6.207   1.315  14.479  0.0469  0.6524 -0.8361
 8425TIP3   OH246765   2.355   6.676   4.602  0.7866  0.6477  0.2940
 8425TIP3    H146766   2.401   6.592   4.599  0.8298  0.6708  0.2970
 8425TIP3    H246767   2.377   6.712   4.688  1.4388  1.0326 -0.0191
 8426TIP3   OH246768   0.285   6.015   3.709  0.3873 -0.1754  0.2556
 8426TIP3    H146769   0.272   6.008   3.804 -1.3542 -1.7025 -0.0360
 8426TIP3    H246770   0.297   6.109   3.694 -2.1513  0.4990  1.7353
 8427TIP3   OH246771   2.958   4.077  11.044 -0.0165 -0.3536 -0.0511
 8427TIP3    H146772   3.006   4.073  10.961 -1.8009 -2.3076 -1.0893
 8427TIP3    H246773   2.950   3.986  11.072 -2.4692 -0.0759  0.3945
 8428TIP3   OH246774   0.966   2.659   0.749  0.5203  0.1690 -0.2453
 8428TIP3    H146775   0.977   2.721   0.822  1.2110  0.6698 -0.7614
 8428TIP3    H246776   0.965   2.573   0.791  0.7061  0.4654  0.3803
 8429TIP3   OH246777   0.293   6.432   4.797 -0.2794 -0.2745 -0.0349
 8429TIP3    H146778   0.290   6.434   4.701  1.9356 -0.1908 -0.1609
 8429TIP3    H246779   0.305   6.340   4.818 -2.3783 -0.5192  0.3014
 8430TIP3   OH246780   4.161   5.287  15.227 -0.2281 -0.2281  0.5913
 8430TIP3    H146781   4.148   5.205  15.179  3.0985  0.4589 -1.8905
 8430TIP3    H246782   4.223   5.264  15.296  0.7075  0.1172 -0.1061
 8431TIP3   OH246783   5.768   4.388  16.769 -0.0487  0.4056 -0.1373
 8431TIP3    H146784   5.678   4.421  16.780 -1.0011  0.7568 -5.7704
 8431TIP3    H246785   5.760   4.293  16.774 -0.8791  0.4177 -0.9368
 8432TIP3   OH246786   4.241   3.977   1.441 -0.0227 -0.4316 -0.0744
 8432TIP3    H146787   4.329   3.997   1.473 -0.6238 -0.6340  1.8602
 8432TIP3    H246788   4.251   3.968   1.346  1.5299  2.1299 -0.2415
 8433TIP3   OH246789   1.855   5.981   6.367 -0.5554  0.3740 -0.2056
 8433TIP3    H146790   1.919   6.047   6.393 -1.3392  0.3876  1.8131
 8433TIP3    H246791   1.897   5.898   6.386  0.0149  0.2673 -1.7631
 8434TIP3   OH246792   4.221   3.070  15.303 -0.0972  0.1421 -0.2863
 8434TIP3    H146793   4.180   3.001  15.356 -0.2479 -0.6687 -1.4064
 8434TIP3    H246794   4.152   3.098  15.243  0.5915 -0.3144 -1.3221
 8435TIP3   OH246795   3.608   5.678   3.924 -0.2887 -0.3744 -0.2306
 8435TIP3    H146796   3.658   5.665   4.005 -1.4145 -0.7184  0.4253
 8435TIP3    H246797   3.636   5.607   3.867  0.3976 -0.2255 -0.0927
 8436TIP3   OH246798   0.367   5.019  12.803 -0.0020 -0.4438  0.8987
 8436TIP3    H146799   0.413   4.988  12.881  0.8030 -1.2472  0.1207
 8436TIP3    H246800   0.434   5.021  12.734 -0.2456  2.0385  0.6249
 8437TIP3   OH246801   3.659   4.536  15.959  0.2775 -0.6755 -0.3253
 8437TIP3    H146802   3.693   4.458  15.916  1.3421  0.0118 -0.7669
 8437TIP3    H246803   3.595   4.572  15.898  0.1895 -0.8959 -0.3638
 8438TIP3   OH246804   0.242   0.343   1.555  0.4410  0.1730  0.3795
 8438TIP3    H146805   0.206   0.373   1.639  0.2906 -0.0063  0.3784
 8438TIP3    H246806   0.168   0.305   1.509  0.5120  0.3211  0.1395
 8439TIP3   OH246807   2.047   2.619  11.877 -0.2658  0.0714  0.1628
 8439TIP3    H146808   1.976   2.619  11.813 -0.6720  1.1708  0.5880
 8439TIP3    H246809   2.007   2.649  11.959  0.5213 -0.0229  0.5999
 8440TIP3   OH246810   3.199   6.466   3.887 -0.1226 -0.5140 -0.0317
 8440TIP3    H146811   3.128   6.503   3.939  0.8734  3.1402 -0.9344
 8440TIP3    H246812   3.276   6.473   3.944  0.5200  1.2242 -1.0310
 8441TIP3   OH246813   2.595   1.975   0.711 -0.6253 -0.6708 -0.1256
 8441TIP3    H146814   2.660   1.918   0.669 -0.0647  0.3422 -0.6620
 8441TIP3    H246815   2.554   1.919   0.777  1.4214 -1.0899  0.8616
 8442TIP3   OH246816   0.467   5.415   2.831 -0.7481 -0.3882 -0.0546
 8442TIP3    H146817   0.491   5.444   2.743  2.1234 -0.7823  0.4914
 8442TIP3    H246818   0.412   5.339   2.818  0.8661 -1.3705 -1.5970
 8443TIP3   OH246819   0.083   5.633   1.824  0.3166 -0.1290  0.1371
 8443TIP3    H146820   0.060   5.710   1.772  0.1143 -0.3021 -0.0302
 8443TIP3    H246821   0.166   5.657   1.866  0.4249  0.0567 -0.1758
 8444TIP3   OH246822   0.260   0.773   4.497  0.3360  0.4842 -0.0705
 8444TIP3    H146823   0.228   0.792   4.409 -0.2636  0.2438  0.0936
 8444TIP3    H246824   0.189   0.725   4.539  1.1561 -0.6193  0.0963
 8445TIP3   OH246825   1.481   4.980  11.340 -0.0154 -0.0803  0.6867
 8445TIP3    H146826   1.390   4.985  11.369  0.1750 -1.0641  1.5100
 8445TIP3    H246827   1.482   4.911  11.273 -0.1808  1.1713 -0.6643
 8446TIP3   OH246828   6.336   0.248  15.084  0.1107  0.4539 -0.3691
 8446TIP3    H146829   6.314   0.193  15.159 -0.9770  1.1442 -0.1587
 8446TIP3    H246830   6.430   0.263  15.093 -0.2141  1.7145  1.7372
 8447TIP3   OH246831   5.586   3.391   0.774 -0.7437  0.1883  0.2857
 8447TIP3    H146832   5.634   3.329   0.828 -2.1909 -1.9103 -0.6925
 8447TIP3    H246833   5.519   3.427   0.832  0.6235  1.5549  1.0833
 8448TIP3   OH246834   3.606   3.670  14.034 -0.0363 -0.2236  0.4377
 8448TIP3    H146835   3.562   3.753  14.020  0.0450 -0.0134  1.4072
 8448TIP3    H246836   3.653   3.654  13.952  1.2860  1.5037  0.8022
 8449TIP3   OH246837   3.750   2.161  12.541 -0.0076 -0.3406 -0.1492
 8449TIP3    H146838   3.780   2.183  12.453  0.6756 -0.3952  0.0600
 8449TIP3    H246839   3.813   2.095  12.572  0.0697  0.0531  0.5679
 8450TIP3   OH246840   2.194   6.394   3.214 -0.2018  0.1562  0.0928
 8450TIP3    H146841   2.229   6.454   3.149 -1.2078  1.8491  1.0399
 8450TIP3    H246842   2.214   6.307   3.180 -0.1943  0.9897 -2.1694
 8451TIP3   OH246843   3.693   2.997   0.298  0.3971 -0.1296 -0.0724
 8451TIP3    H146844   3.674   3.011   0.205  1.1718  1.0612 -0.0679
 8451TIP3    H246845   3.768   3.054   0.317  0.8850 -1.0885  1.0521
 8452TIP3   OH246846   2.220   1.341  17.287 -0.1245 -0.1428  0.2719
 8452TIP3    H146847   2.263   1.426  17.282 -2.3149  0.9696 -2.7812
 8452TIP3    H246848   2.176   1.341  17.372  2.3145  0.4131  1.6313
 8453TIP3   OH246849   0.371   5.427   3.092  0.2693  0.1005 -0.2871
 8453TIP3    H146850   0.440   5.429   3.158 -0.3391 -1.5528  0.4795
 8453TIP3    H246851   0.414   5.399   3.012  0.5928 -0.4943  0.0817
 8454TIP3   OH246852   4.409   2.582   2.386  0.0146  0.6808 -0.5508
 8454TIP3    H146853   4.497   2.554   2.411 -0.4968 -0.9333 -0.4176
 8454TIP3    H246854   4.386   2.524   2.313  0.4958  3.5852 -3.1857
 8455TIP3   OH246855   2.350   1.850   5.228  0.0677  0.3458 -0.8472
 8455TIP3    H146856   2.316   1.930   5.267 -1.1913  0.0098 -1.1876
 8455TIP3    H246857   2.273   1.810   5.186  0.5203 -1.3652 -0.1310
 8456TIP3   OH246858   6.415   5.140   3.905  0.0930 -0.0887  0.0781
 8456TIP3    H146859   6.467   5.200   3.853 -0.0552  0.2651  0.3349
 8456TIP3    H246860   6.388   5.071   3.844 -0.2504  0.4304 -0.3591
 8457TIP3   OH246861   2.517   5.740  17.445  0.1770 -0.0938 -0.7466
 8457TIP3    H146862   2.580   5.722  17.516  0.6707  1.3679 -0.7840
 8457TIP3    H246863   2.499   5.654  17.407  1.8836 -0.6000 -0.4993
 8458TIP3   OH246864   0.290   3.216  11.827  0.2763  0.5334  0.4079
 8458TIP3    H146865   0.263   3.179  11.912  1.6725  0.4658  0.8429
 8458TIP3    H246866   0.373   3.172  11.808  0.2274  0.9339 -0.7519
 8459TIP3   OH246867   2.253   0.724  12.760  0.3604  0.1135 -0.4897
 8459TIP3    H146868   2.295   0.765  12.685  0.7022  1.4996  0.4261
 8459TIP3    H246869   2.322   0.720  12.827 -0.3475  0.3509  0.2719
 8460TIP3   OH246870   5.473   0.594  16.525 -0.1435 -0.7520  0.7130
 8460TIP3    H146871   5.436   0.672  16.567  0.5549  0.5167 -0.9430
 8460TIP3    H246872   5.565   0.594  16.553 -0.1934 -1.1225  0.8815
 8461TIP3   OH246873   4.080   6.118   2.040 -0.3495 -0.4395  0.0750
 8461TIP3    H146874   4.039   6.196   2.001 -0.6583 -1.7084 -2.3419
 8461TIP3    H246875   4.008   6.055   2.047  0.0183 -0.7301  1.4584
 8462TIP3   OH246876   3.221   4.359  16.022  0.2278 -0.1773  0.5474
 8462TIP3    H146877   3.232   4.444  15.979  0.9810 -0.5419 -0.0046
 8462TIP3    H246878   3.258   4.296  15.960 -2.6016 -1.2266 -0.2191
 8463TIP3   OH246879   5.122   4.558   4.506 -0.0971 -0.4275 -0.1668
 8463TIP3    H146880   5.047   4.565   4.448 -0.2878 -1.5300 -0.0823
 8463TIP3    H246881   5.119   4.468   4.539  1.0428 -0.3832  0.1275
 8464TIP3   OH246882   2.501   4.640   3.348 -0.4075 -0.5510 -0.1623
 8464TIP3    H146883   2.531   4.670   3.263  0.1363  0.0668  0.2413
 8464TIP3    H246884   2.580   4.633   3.401 -0.5706 -2.2708 -0.0962
 8465TIP3   OH246885   6.710   2.112  14.229  0.2363 -0.5801 -0.2001
 8465TIP3    H146886   6.700   2.205  14.206  0.4423  0.7598  4.2245
 8465TIP3    H246887   6.633   2.092  14.281  0.5037 -2.7836 -0.5517
 8466TIP3   OH246888   6.041   0.228  16.214  0.0086 -0.0648 -0.1668
 8466TIP3    H146889   5.985   0.263  16.283 -0.8733 -1.2395 -0.2573
 8466TIP3    H246890   6.080   0.149  16.251 -0.3267 -0.6077 -0.9415
 8467TIP3   OH246891   3.076   1.947   2.474 -0.2556 -0.3433 -0.5311
 8467TIP3    H146892   3.016   1.929   2.401 -0.5017 -0.0282 -0.4059
 8467TIP3    H246893   3.019   1.954   2.551 -0.3174  2.0505 -0.7191
 8468TIP3   OH246894   4.699   4.537  11.346 -0.2193 -0.2705 -0.2239
 8468TIP3    H146895   4.673   4.539  11.254  0.2724 -0.9849 -0.3774
 8468TIP3    H246896   4.794   4.530  11.345 -0.0818  1.1385  0.3449
 8469TIP3   OH246897   4.080   6.518  16.212 -0.4263 -0.2166 -0.2651
 8469TIP3    H146898   4.031   6.600  16.221 -0.0637 -0.0929  0.5962
 8469TIP3    H246899   4.099   6.491  16.301  1.5322 -0.0047 -0.5703
 8470TIP3   OH246900   1.236   4.293   5.937 -0.0789 -0.1882  0.1075
 8470TIP3    H146901   1.303   4.258   5.995 -0.9454 -0.8435  0.7384
 8470TIP3    H246902   1.205   4.217   5.887 -2.4426 -0.5589  1.9583
 8471TIP3   OH246903   1.090   1.997  11.863  0.2802 -0.6030 -0.0395
 8471TIP3    H146904   1.022   2.047  11.817 -0.6657 -1.5216  0.3371
 8471TIP3    H246905   1.157   1.981  11.796 -0.2228 -0.3381 -0.6121
 8472TIP3   OH246906   4.587   0.599   1.172  0.0862 -0.2132  0.4452
 8472TIP3    H146907   4.674   0.607   1.210 -0.8954  1.3919  2.5329
 8472TIP3    H246908   4.556   0.689   1.164 -2.5487 -0.7966  2.7432
 8473TIP3   OH246909   2.928   5.334  12.754 -0.3978  0.4247 -0.4054
 8473TIP3    H146910   2.892   5.364  12.671 -0.1983 -1.6694 -1.3055
 8473TIP3    H246911   2.920   5.238  12.751  1.1018  0.1886  1.2877
 8474TIP3   OH246912   1.112   6.312  10.914 -0.0438 -0.1531  0.4609
 8474TIP3    H146913   1.134   6.308  11.007  0.2471  1.0219  0.4546
 8474TIP3    H246914   1.195   6.298  10.869  0.2722  1.6212  0.4179
 8475TIP3   OH246915   2.431   4.493   5.705 -0.3277  0.1941  0.5103
 8475TIP3    H146916   2.499   4.510   5.639 -0.8577  1.0020  0.1540
 8475TIP3    H246917   2.468   4.525   5.787  0.0926 -0.2511  0.5006
 8476TIP3   OH246918   5.543   4.592  11.931  0.7731 -0.2361 -0.5034
 8476TIP3    H146919   5.470   4.654  11.937  0.3588 -0.8200  1.3939
 8476TIP3    H246920   5.612   4.640  11.886  0.3144  1.4508  0.4873
 8477TIP3   OH246921   3.958   5.196   0.557  0.0637 -0.2013  0.2019
 8477TIP3    H146922   3.884   5.255   0.547  0.6378  0.5175  0.0480
 8477TIP3    H246923   3.958   5.171   0.649 -1.5926 -1.8993 -0.1921
 8478TIP3   OH246924   1.720   0.453   5.115 -0.0420 -0.2667 -0.3445
 8478TIP3    H146925   1.651   0.450   5.049 -1.0550 -0.8649  0.7087
 8478TIP3    H246926   1.765   0.369   5.106 -1.1429 -1.0111  0.6788
 8479TIP3   OH246927   3.918   5.466   2.683  0.1837  0.4259  0.3177
 8479TIP3    H146928   3.851   5.533   2.668 -0.0024 -0.1231 -1.5682
 8479TIP3    H246929   3.966   5.462   2.600  0.4660 -1.4687  0.5440
 8480TIP3   OH246930   2.311   3.601   4.629 -0.1318  0.0272 -0.2701
 8480TIP3    H146931   2.395   3.647   4.631  0.3707 -0.8530 -0.6706
 8480TIP3    H246932   2.285   3.605   4.537 -1.4610  1.9015  0.1176
 8481TIP3   OH246933   2.171   0.515   4.283  0.5503  0.1709  0.0240
 8481TIP3    H146934   2.172   0.606   4.314  0.0160  0.8048 -1.6688
 8481TIP3    H246935   2.238   0.513   4.214 -0.2411 -0.4012 -0.7443
 8482TIP3   OH246936   1.459   2.974   2.115 -0.5984  0.2482  0.2630
 8482TIP3    H146937   1.378   2.924   2.102 -0.6735  0.2871  0.5654
 8482TIP3    H246938   1.523   2.908   2.143 -0.3771  0.1260 -0.4958
 8483TIP3   OH246939   6.155   2.171   1.473 -0.5365  0.4504  0.0474
 8483TIP3    H146940   6.250   2.173   1.461 -0.3407 -0.2418  1.3054
 8483TIP3    H246941   6.122   2.233   1.409  0.8078  1.0549 -0.1033
 8484TIP3   OH246942   2.755   6.716  11.558  0.2174  0.2564  0.4077
 8484TIP3    H146943   2.734   6.646  11.497  1.9517  0.0669 -0.0342
 8484TIP3    H246944   2.785   6.788  11.503 -2.0643  1.6265  0.8114
 8485TIP3   OH246945   4.196   5.226  12.277 -0.0201 -0.4001  0.6788
 8485TIP3    H146946   4.199   5.308  12.226 -0.6735 -1.3545 -0.9722
 8485TIP3    H246947   4.110   5.228  12.319 -0.3586 -0.5824  0.0114
 8486TIP3   OH246948   0.155   2.386  13.996  0.0616 -0.1364  0.0409
 8486TIP3    H146949   0.193   2.459  13.948 -1.3517  0.0523 -0.8550
 8486TIP3    H246950   0.183   2.398  14.086  1.8351  0.1426 -0.5259
 8487TIP3   OH246951   4.006   0.225   4.442 -0.1529  0.4527  0.3000
 8487TIP3    H146952   4.004   0.316   4.472  0.4385 -0.0086  1.8533
 8487TIP3    H246953   3.949   0.224   4.365 -0.1977  2.1224  0.2724
 8488TIP3   OH246954   1.102   3.556   6.304  0.0310 -0.5454 -0.2799
 8488TIP3    H146955   1.127   3.578   6.394  3.4577  0.1583 -1.2595
 8488TIP3    H246956   1.007   3.566   6.303  0.0355  1.2597  2.7819
 8489TIP3   OH246957   5.490   2.872  12.621 -0.0185 -0.2014  0.1517
 8489TIP3    H146958   5.537   2.825  12.690  1.9440  1.3476 -0.0547
 8489TIP3    H246959   5.550   2.873  12.547 -0.8651  0.7934 -0.5545
 8490TIP3   OH246960   3.429   6.560  16.266 -0.2304 -0.2139  0.2055
 8490TIP3    H146961   3.405   6.539  16.357  1.8233  2.0042  1.3724
 8490TIP3    H246962   3.484   6.486  16.238  2.0529  0.6365  2.1092
 8491TIP3   OH246963   2.766   1.912   4.351 -0.1658  0.0021  0.3613
 8491TIP3    H146964   2.761   1.900   4.446  0.2666 -0.1847  0.3614
 8491TIP3    H246965   2.770   1.823   4.316 -0.1483  0.0751  0.1761
 8492TIP3   OH246966   4.528   2.799  16.155 -0.1038 -0.2162  0.3404
 8492TIP3    H146967   4.477   2.833  16.081  0.6328  0.2276  0.0369
 8492TIP3    H246968   4.593   2.741  16.115 -1.5437 -2.3093  0.8621
 8493TIP3   OH246969   0.403   0.487   0.908  0.0522  0.5661  0.6692
 8493TIP3    H146970   0.414   0.527   0.822  0.5869 -2.3935 -0.7674
 8493TIP3    H246971   0.408   0.393   0.892 -2.5717 -0.2365  3.5884
 8494TIP3   OH246972   0.302   2.002  16.399  0.0684  0.5843 -0.6776
 8494TIP3    H146973   0.395   1.986  16.419  0.1414  0.9377 -0.7363
 8494TIP3    H246974   0.264   2.028  16.482 -0.0506  0.1257 -0.5827
 8495TIP3   OH246975   4.411   6.317  17.209  0.0416 -0.2706  0.1010
 8495TIP3    H146976   4.327   6.274  17.191 -0.4947  0.4430  0.8631
 8495TIP3    H246977   4.389   6.389  17.267  1.2338 -0.2680  0.5616
 8496TIP3   OH246978   3.282   2.463   6.380 -0.1450  0.1110  0.3308
 8496TIP3    H146979   3.229   2.539   6.406  0.2237  0.2779  0.5899
 8496TIP3    H246980   3.246   2.438   6.295  1.2979  2.0873 -0.9526
 8497TIP3   OH246981   2.049   6.070   0.525  0.4162  0.1003  0.0616
 8497TIP3    H146982   1.967   6.082   0.478  1.0135 -0.1854 -1.0979
 8497TIP3    H246983   2.023   6.047   0.614 -0.7517  0.1194 -0.2609
 8498TIP3   OH246984   1.088   3.109   2.825 -0.6281  0.0208 -0.2142
 8498TIP3    H146985   1.024   3.067   2.768 -2.6210  1.9269  0.4573
 8498TIP3    H246986   1.151   3.149   2.766 -2.0434  1.0315 -1.1103
 8499TIP3   OH246987   6.666   4.064  14.705 -0.5700  0.3156 -0.0880
 8499TIP3    H146988   6.753   4.042  14.739 -1.3002 -0.3040  1.4651
 8499TIP3    H246989   6.654   4.156  14.727  0.0326  0.6408 -1.0872
 8500TIP3   OH246990   2.808   2.600   4.186  0.7802 -0.7115 -0.1815
 8500TIP3    H146991   2.845   2.687   4.168 -0.6863  0.3850  1.6628
 8500TIP3    H246992   2.867   2.561   4.250 -0.1874  0.3156  1.4261
 8501TIP3   OH246993   5.448   4.563  15.038  0.0419  0.1199  0.0045
 8501TIP3    H146994   5.487   4.615  15.109  0.8966 -0.1045 -0.2855
 8501TIP3    H246995   5.506   4.577  14.963 -1.9811  2.0513 -1.3151
 8502TIP3   OH246996   3.671   6.595  14.963  0.1707  0.8467  0.4602
 8502TIP3    H146997   3.716   6.618  14.882  1.6364 -0.9462  0.7014
 8502TIP3    H246998   3.711   6.651  15.029  1.4636 -0.0887  0.5087
 8503TIP3   OH246999   6.764   2.468  15.588 -0.4480  0.5430  0.4519
 8503TIP3    H147000   6.770   2.450  15.494 -1.2403  0.6666  0.3690
 8503TIP3    H247001   6.754   2.382  15.628 -0.9308  0.5518  0.3502
 8504TIP3   OH247002   5.325   3.171   5.413 -0.6087  0.7018  0.3998
 8504TIP3    H147003   5.250   3.153   5.469 -0.5020  0.5056  0.4818
 8504TIP3    H247004   5.394   3.112   5.445 -1.4171 -1.6096 -1.7948
 8505TIP3   OH247005   1.742   4.227   6.133  0.4658  0.5292  0.2965
 8505TIP3    H147006   1.765   4.243   6.042  2.4745  0.7628  0.8026
 8505TIP3    H247007   1.698   4.308   6.161 -1.9263 -0.2522 -0.9308
 8506TIP3   OH247008   6.515   6.707   0.670 -0.6471  0.3619 -0.0228
 8506TIP3    H147009   6.521   6.692   0.575 -2.3606  1.9399 -0.4187
 8506TIP3    H247010   6.607   6.707   0.699 -0.1470 -1.8628 -1.3465
 8507TIP3   OH247011   3.031   0.373  14.320 -0.3741  0.6710 -0.1099
 8507TIP3    H147012   3.066   0.332  14.240  0.1352  0.2106  0.3458
 8507TIP3    H247013   2.943   0.401  14.295 -0.6219 -0.4218 -0.5350
 8508TIP3   OH247014   1.805   6.314  11.071 -0.1081 -0.5980 -0.0766
 8508TIP3    H147015   1.849   6.253  11.012 -0.1318 -0.1767 -0.5230
 8508TIP3    H247016   1.718   6.327  11.033 -0.3320 -0.7796  0.3612
 8509TIP3   OH247017   4.644   1.025   2.891 -0.2827 -0.0250 -0.1803
 8509TIP3    H147018   4.559   1.027   2.936  0.1348 -2.0441  0.8190
 8509TIP3    H247019   4.667   0.932   2.887  2.2763  0.5129  0.3420
 8510TIP3   OH247020   2.760   1.281   2.643 -0.2805 -0.2069 -0.0060
 8510TIP3    H147021   2.700   1.262   2.570  0.1146 -1.0323 -0.1306
 8510TIP3    H247022   2.762   1.200   2.694 -0.6710  0.4135  1.0202
 8511TIP3   OH247023   1.403   1.487  11.112 -0.1857  0.8008 -0.9206
 8511TIP3    H147024   1.329   1.547  11.103 -0.7004  0.1119 -1.3915
 8511TIP3    H247025   1.434   1.500  11.201 -0.8839  1.0838 -0.7161
 8512TIP3   OH247026   0.968   3.948  17.024  0.8648 -0.1397  0.0493
 8512TIP3    H147027   1.001   4.008  16.957 -0.3482 -0.1319 -0.5747
 8512TIP3    H247028   0.973   3.999  17.105 -0.5183  0.9846 -0.5329
 8513TIP3   OH247029   3.190   0.265   4.096  0.0634 -0.5231 -0.2431
 8513TIP3    H147030   3.131   0.192   4.079 -2.2815  1.2763 -0.3403
 8513TIP3    H247031   3.169   0.329   4.028  0.1632  1.2835  1.3509
 8514TIP3   OH247032   2.153   5.314  17.308 -0.2599  0.8303 -0.0494
 8514TIP3    H147033   2.096   5.255  17.357 -0.2711  0.7791 -0.1244
 8514TIP3    H247034   2.205   5.358  17.374  0.0683  0.4070 -0.0185
 8515TIP3   OH247035   2.959   5.598   0.030 -0.3541 -0.8414 -0.4495
 8515TIP3    H147036   3.046   5.632   0.053 -0.5059 -1.1786  0.6993
 8515TIP3    H247037   2.917   5.670  -0.017  0.4618 -0.5877 -0.8103
 8516TIP3   OH247038   3.883   5.603   2.344 -0.0051  0.1885 -0.2106
 8516TIP3    H147039   3.978   5.606   2.355 -0.0788  1.2113  0.2827
 8516TIP3    H247040   3.858   5.518   2.378  0.5512  0.6301  1.4073
 8517TIP3   OH247041   1.654   1.604  12.658  0.0986  0.0630  0.4053
 8517TIP3    H147042   1.604   1.660  12.598  0.3954 -1.3689 -1.2886
 8517TIP3    H247043   1.745   1.628  12.642  0.2623 -1.1328 -0.6785
 8518TIP3   OH247044   6.093   6.057  12.248 -0.1739  0.2591  0.4209
 8518TIP3    H147045   6.183   6.035  12.274 -0.1099  0.3033  0.2362
 8518TIP3    H247046   6.073   6.137  12.296  1.1539  2.3008 -2.1930
 8519TIP3   OH247047   4.248   4.119   5.590  0.0384 -0.9741  0.0368
 8519TIP3    H147048   4.220   4.029   5.604  1.3209 -1.2672  0.9221
 8519TIP3    H247049   4.208   4.168   5.663 -0.9098 -0.7469 -0.6156
 8520TIP3   OH247050   0.047   4.456  15.649 -0.0784  0.1989 -0.4644
 8520TIP3    H147051   0.076   4.472  15.559  0.3684  2.3863  0.0025
 8520TIP3    H247052  -0.048   4.456  15.643 -0.0533  0.3677 -0.9351
 8521TIP3   OH247053   3.911   0.050  14.209  0.2084  0.1514 -0.2810
 8521TIP3    H147054   3.965   0.071  14.132  0.5190 -0.7578 -0.3160
 8521TIP3    H247055   3.821   0.054  14.176  0.1957  1.9201 -0.1665
 8522TIP3   OH247056   2.937   2.856   1.593 -0.1926 -0.3298  0.1893
 8522TIP3    H147057   2.858   2.865   1.540  0.3662  0.2930 -0.5610
 8522TIP3    H247058   3.005   2.902   1.543  1.4133 -3.4821 -0.7835
 8523TIP3   OH247059   2.980   2.776  17.366  0.0660 -0.4880 -0.4249
 8523TIP3    H147060   2.908   2.839  17.363 -0.5685 -1.2284 -1.2652
 8523TIP3    H247061   2.995   2.752  17.274  0.4879 -1.3425 -0.1415
 8524TIP3   OH247062   5.004   5.511  16.826  0.0988 -0.1989 -0.3111
 8524TIP3    H147063   5.001   5.594  16.873 -0.4379  0.3747 -1.3152
 8524TIP3    H247064   5.076   5.521  16.765  0.3368 -0.6613 -0.1075
 8525TIP3   OH247065   6.052   0.397  12.722 -0.3280 -0.5010 -0.4219
 8525TIP3    H147066   5.994   0.326  12.749 -0.9941 -0.3642 -1.4499
 8525TIP3    H247067   6.125   0.352  12.678 -1.8105 -0.4969 -3.0387
 8526TIP3   OH247068   0.569   1.059  12.539 -0.3800  0.0816 -0.3902
 8526TIP3    H147069   0.485   1.100  12.517 -0.9093 -1.1704 -0.7737
 8526TIP3    H247070   0.582   1.079  12.632 -1.1973  0.1196 -0.2819
 8527TIP3   OH247071   4.959   6.492   5.080  0.1008  0.4512  0.0506
 8527TIP3    H147072   4.886   6.554   5.074 -0.5356 -0.1792  0.9720
 8527TIP3    H247073   4.922   6.409   5.052  0.7951  0.3454 -0.5954
 8528TIP3   OH247074   5.095   5.707   4.676 -0.2899 -0.2725  0.4379
 8528TIP3    H147075   5.065   5.685   4.587  2.1486  2.8776 -1.3652
 8528TIP3    H247076   5.175   5.656   4.687  0.6374  0.9745 -0.2008
 8529TIP3   OH247077   5.218   1.988   4.304 -0.1203  0.0818 -0.4896
 8529TIP3    H147078   5.245   1.923   4.368 -1.9862 -0.6290 -0.3623
 8529TIP3    H247079   5.231   2.072   4.347 -0.2065 -0.3368  0.3637
 8530TIP3   OH247080   0.147   3.946  11.954 -0.0877 -0.0999 -0.1424
 8530TIP3    H147081   0.232   3.991  11.957 -0.7448  1.4033 -2.1141
 8530TIP3    H247082   0.105   3.970  12.037  1.5853 -1.3732  1.1615
 8531TIP3   OH247083   2.423   1.035  13.013 -0.0881  0.5911  0.4869
 8531TIP3    H147084   2.509   0.996  12.999 -0.2469  0.0613  0.9454
 8531TIP3    H247085   2.420   1.052  13.107 -0.7097  0.0417  0.5735
 8532TIP3   OH247086   0.371   0.591   5.772 -0.4864 -0.4207 -0.4269
 8532TIP3    H147087   0.430   0.533   5.820 -0.3514 -0.0042 -0.0869
 8532TIP3    H247088   0.398   0.679   5.798 -0.7878 -0.2086 -0.8266
 8533TIP3   OH247089   4.435   5.764  16.435  0.2074 -0.4831  0.0059
 8533TIP3    H147090   4.487   5.783  16.357  0.9801 -0.4960  0.5016
 8533TIP3    H247091   4.363   5.709  16.403 -0.7674  1.3222 -1.0637
 8534TIP3   OH247092   6.014   2.554   1.210  0.5216  0.0302  0.0637
 8534TIP3    H147093   6.109   2.563   1.220  0.7814  0.4974 -2.2069
 8534TIP3    H247094   5.983   2.644   1.202  0.2991 -0.1843 -1.9440
 8535TIP3   OH247095   0.544   0.203   1.381 -0.0391 -0.4657 -0.2506
 8535TIP3    H147096   0.498   0.177   1.462  0.0126 -0.1208 -0.1081
 8535TIP3    H247097   0.583   0.288   1.402 -1.0223  0.1997 -1.0213
 8536TIP3   OH247098   1.316   3.870   0.976 -0.6951  0.6310  0.4167
 8536TIP3    H147099   1.326   3.927   1.053 -0.1628  0.4547  0.4840
 8536TIP3    H247100   1.380   3.904   0.914  1.2472 -1.2413  1.2703
 8537TIP3   OH247101   0.468   5.497  16.079 -0.2404 -0.1466 -0.0606
 8537TIP3    H147102   0.516   5.426  16.121  0.5053 -0.3546 -1.2071
 8537TIP3    H247103   0.400   5.453  16.028 -0.0715 -0.0131 -0.4036
 8538TIP3   OH247104   1.275   1.344   2.942  0.3043 -0.5964  0.3344
 8538TIP3    H147105   1.191   1.329   2.985  0.0766  1.0374  0.5238
 8538TIP3    H247106   1.276   1.437   2.922  1.9339 -0.6380  0.0371
 8539TIP3   OH247107   2.744   2.258   4.960  0.1636 -0.0031  0.2630
 8539TIP3    H147108   2.654   2.227   4.971  0.6462 -1.0120  1.5351
 8539TIP3    H247109   2.749   2.335   5.017 -0.6087  1.6754 -1.7950
 8540TIP3   OH247110   1.936   3.238  15.990 -0.0217  0.3156  0.5289
 8540TIP3    H147111   1.916   3.202  15.903 -0.5588 -0.2061  0.8565
 8540TIP3    H247112   2.013   3.293  15.976 -0.0381  0.1568 -0.2593
 8541TIP3   OH247113   5.516   1.564   1.571 -0.1672  0.4357 -0.0145
 8541TIP3    H147114   5.482   1.486   1.527  0.4534 -0.1028  0.4461
 8541TIP3    H247115   5.439   1.608   1.606 -0.4848 -0.1578  0.0283
 8542TIP3   OH247116   4.584   4.679  16.336 -0.6538  0.3981  0.3897
 8542TIP3    H147117   4.649   4.700  16.403 -0.4714  1.0374  0.0165
 8542TIP3    H247118   4.514   4.634  16.383 -0.3148  0.4359  0.9291
 8543TIP3   OH247119   6.735   3.573   1.740 -0.1329  0.0927  0.8514
 8543TIP3    H147120   6.768   3.483   1.737  2.0572  0.8885 -0.5586
 8543TIP3    H247121   6.706   3.591   1.651  0.1119  1.0263  0.9515
 8544TIP3   OH247122   4.108   6.709  11.107 -0.3667 -0.0996  0.0951
 8544TIP3    H147123   4.016   6.730  11.092 -0.9686 -0.5442  2.7436
 8544TIP3    H247124   4.108   6.616  11.130  0.8025 -0.1691 -0.1103
 8545TIP3   OH247125   1.281   2.147  14.569  0.0670 -0.5667 -0.1708
 8545TIP3    H147126   1.214   2.080  14.580  0.0273 -0.8319 -1.7899
 8545TIP3    H247127   1.352   2.119  14.626 -0.8673 -0.7029  0.9647
 8546TIP3   OH247128   5.363   1.645  11.352 -0.1677  0.7156 -0.3154
 8546TIP3    H147129   5.361   1.658  11.446  0.5071  0.7993 -0.3055
 8546TIP3    H247130   5.455   1.655  11.328 -0.6191  3.0719 -1.3133
 8547TIP3   OH247131   5.862   0.080  11.436 -0.1495  0.9411  0.5354
 8547TIP3    H147132   5.940   0.122  11.474  0.5261  0.8273 -0.6701
 8547TIP3    H247133   5.835   0.139  11.366 -0.8017  0.6774  0.5570
 8548TIP3   OH247134   0.007   6.017   4.447 -0.1050  0.4379  0.0208
 8548TIP3    H147135  -0.020   5.931   4.416  1.1205 -0.1438  0.5094
 8548TIP3    H247136  -0.047   6.033   4.524 -1.2349  0.6936 -0.7898
 8549TIP3   OH247137   5.739   2.723  13.762 -0.2766 -0.1799  0.0200
 8549TIP3    H147138   5.678   2.740  13.833  1.2950  0.7697  1.1834
 8549TIP3    H247139   5.771   2.809  13.736  0.5988 -0.6622 -0.5569
 8550TIP3   OH247140   3.346   1.308  12.778 -1.0725 -0.3808  0.1815
 8550TIP3    H147141   3.414   1.248  12.747  0.9027  2.0212 -0.4468
 8550TIP3    H247142   3.339   1.289  12.872  1.1515 -0.1508  0.4566
 8551TIP3   OH247143   6.389   1.271  12.000 -0.2545 -0.2514 -0.7284
 8551TIP3    H147144   6.332   1.336  12.042  0.5063 -0.5357  0.8060
 8551TIP3    H247145   6.409   1.308  11.914 -1.9155  0.3254 -0.9100
 8552TIP3   OH247146   5.294   1.996  12.646 -0.3259  0.1726  0.1246
 8552TIP3    H147147   5.250   1.945  12.578 -0.8510  1.7690 -0.7872
 8552TIP3    H247148   5.230   2.004  12.717 -0.3539 -0.1604  0.1368
 8553TIP3   OH247149   4.124   0.387   0.289 -0.7226 -0.0766  0.0301
 8553TIP3    H147150   4.141   0.449   0.218 -1.3486 -0.2864 -0.3048
 8553TIP3    H247151   4.211   0.359   0.317 -0.4760 -0.0581 -0.7099
 8554TIP3   OH247152   6.274   5.042  11.737  0.4259  0.0643  0.2075
 8554TIP3    H147153   6.263   5.031  11.831  1.2929  2.1405  0.6034
 8554TIP3    H247154   6.185   5.057  11.704  0.0752 -1.0325  0.6062
 8555TIP3   OH247155   5.148   0.590  17.000  0.1682 -0.0860 -0.0920
 8555TIP3    H147156   5.095   0.587  16.920  0.2632 -0.9120 -0.1319
 8555TIP3    H247157   5.090   0.629  17.065 -0.4276 -0.7788 -0.1882
 8556TIP3   OH247158   5.623   1.229  17.394  0.0981  0.4321  0.2010
 8556TIP3    H147159   5.687   1.294  17.367  2.1404 -1.1088  1.0830
 8556TIP3    H247160   5.610   1.245  17.487  0.2599 -0.1079  0.3227
 8557TIP3   OH247161   2.024   6.354  13.502 -0.4940 -0.2782  0.0307
 8557TIP3    H147162   1.992   6.274  13.543  0.4954 -0.4678  0.4400
 8557TIP3    H247163   1.992   6.349  13.412  1.8167 -2.4635 -0.7675
 8558TIP3   OH247164   6.028   5.636   3.794 -0.4958 -0.2551  0.2846
 8558TIP3    H147165   6.027   5.542   3.777  0.2002 -0.3696  0.8303
 8558TIP3    H247166   5.936   5.661   3.794 -0.8896 -1.3978  2.5176
 8559TIP3   OH247167   0.061   6.368   4.321 -0.9118 -0.1317  0.1274
 8559TIP3    H147168   0.084   6.277   4.302 -0.7521 -0.0389 -0.1300
 8559TIP3    H247169  -0.003   6.391   4.253 -1.1485 -0.1339  0.3491
 8560TIP3   OH247170   1.471   3.783  14.163 -0.0630  0.3436  0.7935
 8560TIP3    H147171   1.499   3.746  14.247 -0.8225  1.0967  1.4047
 8560TIP3    H247172   1.444   3.707  14.111  1.1059 -0.2019  0.9409
 8561TIP3   OH247173   2.212   3.750  11.973 -0.0240 -0.0856  0.1282
 8561TIP3    H147174   2.305   3.747  11.953  0.3464  2.1378  1.2003
 8561TIP3    H247175   2.201   3.691  12.048  0.1994 -1.5543 -0.9677
 8562TIP3   OH247176   1.659   2.277   1.074  0.1032 -0.0302 -0.0932
 8562TIP3    H147177   1.642   2.331   1.151  0.0632  0.0327 -0.1448
 8562TIP3    H247178   1.609   2.197   1.088  2.3959 -1.2921  1.3128
 8563TIP3   OH247179   1.139   6.672  16.525  0.5399  0.3065 -0.2966
 8563TIP3    H147180   1.216   6.622  16.552 -0.5133 -0.0281  2.3731
 8563TIP3    H247181   1.169   6.763  16.521  1.1840  0.1236  0.1854
 8564TIP3   OH247182   2.894   5.269  14.761 -0.0041  0.4327 -0.0270
 8564TIP3    H147183   2.982   5.296  14.787  0.0063 -0.3435  0.7619
 8564TIP3    H247184   2.887   5.178  14.789 -1.0914  0.5096 -0.0165
 8565TIP3   OH247185   4.412   0.439   3.039  0.6780 -0.9358  1.3445
 8565TIP3    H147186   4.504   0.423   3.057  1.1500 -0.3806 -0.3089
 8565TIP3    H247187   4.410   0.462   2.946 -1.0155 -0.0997  1.5437
 8566TIP3   OH247188   0.227   3.595   3.799 -0.1047 -0.3149  0.3103
 8566TIP3    H147189   0.165   3.619   3.730 -1.8940  1.1494  2.2550
 8566TIP3    H247190   0.229   3.500   3.798 -1.1238 -0.3525 -0.8798
 8567TIP3   OH247191   5.368   4.326  17.359  0.6856 -0.1515  0.3937
 8567TIP3    H147192   5.376   4.264  17.431  1.1666  0.1287  0.5842
 8567TIP3    H247193   5.275   4.349  17.357  0.2550 -1.7995 -0.4680
 8568TIP3   OH247194   3.583   3.904  14.821 -0.0291 -0.5391  0.2311
 8568TIP3    H147195   3.675   3.923  14.804 -0.3811  0.9589 -0.0566
 8568TIP3    H247196   3.545   3.987  14.848 -1.5732 -0.8749 -0.8051
 8569TIP3   OH247197   5.520   2.513   3.615 -0.3313  0.4828 -0.3223
 8569TIP3    H147198   5.592   2.449   3.611 -0.4348  0.3525 -0.0996
 8569TIP3    H247199   5.564   2.597   3.632 -0.3618  0.1439  1.5741
 8570TIP3   OH247200   4.503   3.357  11.603 -0.3683  0.6117  0.5487
 8570TIP3    H147201   4.565   3.411  11.553 -0.1077  0.8627  1.1271
 8570TIP3    H247202   4.558   3.295  11.650 -0.7424 -1.0470 -1.0998
 8571TIP3   OH247203   3.022   2.106   5.814  0.0847 -0.3599  0.6397
 8571TIP3    H147204   3.017   2.024   5.764 -0.0603  0.3501 -0.5586
 8571TIP3    H247205   3.037   2.078   5.904 -2.6004 -1.8030  0.7244
 8572TIP3   OH247206   3.303   5.326   3.742  0.1763 -0.4793  0.1814
 8572TIP3    H147207   3.254   5.348   3.663  1.1855  0.2971 -0.2424
 8572TIP3    H247208   3.394   5.319   3.713  0.5698 -0.1241  1.2814
 8573TIP3   OH247209   3.988   1.818   5.774  0.2232 -0.4947  0.0363
 8573TIP3    H147210   3.982   1.729   5.740  0.8212 -0.9037  0.9431
 8573TIP3    H247211   3.949   1.812   5.862  2.8131 -0.5576  1.2765
 8574TIP3   OH247212   0.569   6.221   3.364  0.1889 -0.4020  1.1768
 8574TIP3    H147213   0.600   6.145   3.314 -2.8753 -0.5210 -0.7955
 8574TIP3    H247214   0.476   6.204   3.379 -0.4041  2.5543  1.4623
 8575TIP3   OH247215   0.983   4.239  15.688  0.0625  0.1119  1.0482
 8575TIP3    H147216   0.937   4.183  15.625  1.8023  0.9944 -1.1522
 8575TIP3    H247217   0.916   4.264  15.751 -1.3553 -2.3412  0.6408
 8576TIP3   OH247218   4.025   4.218   0.165  0.4303  0.1473  0.5336
 8576TIP3    H147219   4.109   4.205   0.209  0.1884 -1.7460  0.5191
 8576TIP3    H247220   3.998   4.130   0.138 -1.5633  0.7087  0.5342
 8577TIP3   OH247221   3.001   5.255  15.439 -0.6115 -0.2039 -0.3695
 8577TIP3    H147222   3.086   5.254  15.482 -0.0177 -0.5795 -1.5140
 8577TIP3    H247223   3.017   5.295  15.354 -1.6966  0.2398 -0.3808
 8578TIP3   OH247224   0.292   4.292   3.513 -0.1536  0.3253 -0.2436
 8578TIP3    H147225   0.253   4.372   3.476  1.2906  1.7550  1.1286
 8578TIP3    H247226   0.247   4.281   3.597 -1.2358 -1.0959 -0.9690
 8579TIP3   OH247227   2.946   0.972   0.359 -0.1408 -0.1207 -0.3635
 8579TIP3    H147228   2.963   0.878   0.357  1.2976  0.1111 -0.1607
 8579TIP3    H247229   3.030   1.012   0.336 -0.8365  1.1119 -0.8326
 8580TIP3   OH247230   4.291   4.507  13.502 -0.0136  0.3363  0.0022
 8580TIP3    H147231   4.385   4.523  13.503 -0.0914  0.7925  0.5062
 8580TIP3    H247232   4.281   4.413  13.517  0.4631 -0.2687 -2.9269
 8581TIP3   OH247233   5.133   5.960   3.652  0.1197 -0.4416  0.4249
 8581TIP3    H147234   5.114   5.866   3.648 -1.7685 -0.1684  1.5643
 8581TIP3    H247235   5.228   5.965   3.658  0.2489 -2.2887  0.4181
 8582TIP3   OH247236   6.443   0.098  16.193 -0.4778  0.2227 -0.0821
 8582TIP3    H147237   6.422   0.036  16.123 -0.0237 -0.1970  0.1503
 8582TIP3    H247238   6.520   0.061  16.235  1.2815  2.1142 -1.4311
 8583TIP3   OH247239   5.930   2.777   0.330 -0.8343 -0.2679 -0.2617
 8583TIP3    H147240   6.006   2.797   0.277  1.7447 -3.2530  1.9065
 8583TIP3    H247241   5.877   2.718   0.275  0.3292 -1.0540 -0.5755
 8584TIP3   OH247242   6.586   5.003  16.005  0.2283  0.6374  0.8745
 8584TIP3    H147243   6.531   5.059  15.951  0.4824 -0.6061 -0.7475
 8584TIP3    H247244   6.676   5.032  15.985  0.4307 -0.9554 -0.8002
 8585TIP3   OH247245   0.879   5.365   3.436  0.6714  0.4887 -0.4501
 8585TIP3    H147246   0.831   5.309   3.375  0.3798 -0.1072  0.2955
 8585TIP3    H247247   0.932   5.422   3.381 -1.3282  1.5728 -1.3401
 8586TIP3   OH247248   4.411   6.198   1.195 -0.8422  0.5496  0.5150
 8586TIP3    H147249   4.451   6.253   1.263 -1.0003  0.0142  1.0537
 8586TIP3    H247250   4.485   6.152   1.155 -0.5838  1.9432 -0.6876
 8587TIP3   OH247251   5.758   4.474  15.925  0.3235 -0.2187  0.0585
 8587TIP3    H147252   5.685   4.522  15.965 -0.0507 -1.5928  1.1340
 8587TIP3    H247253   5.748   4.489  15.831 -0.3737  0.9448  0.3010
 8588TIP3   OH247254   2.874   4.197   2.597  0.0036 -0.1194  0.4200
 8588TIP3    H147255   2.815   4.151   2.538  0.5309 -0.9337  0.5051
 8588TIP3    H247256   2.944   4.230   2.540  0.3947 -0.7137  0.5351
 8589TIP3   OH247257   3.912   4.520  13.060  0.0263  0.3229  0.3877
 8589TIP3    H147258   3.887   4.590  12.999  3.1706  1.0399 -0.2683
 8589TIP3    H247259   3.914   4.561  13.146  0.0016  0.5196  0.2933
 8590TIP3   OH247260   4.681   0.938   0.157  0.0778  0.5572  0.1113
 8590TIP3    H147261   4.614   0.971   0.096  0.5823  1.3816 -0.0203
 8590TIP3    H247262   4.690   1.008   0.222  0.4396  0.2321  0.4118
 8591TIP3   OH247263   5.577   0.389  12.435 -0.1527 -0.5095  0.1687
 8591TIP3    H147264   5.631   0.403  12.513 -0.5475 -1.7445  0.6956
 8591TIP3    H247265   5.487   0.399  12.467 -0.2896  0.3674 -0.4505
 8592TIP3   OH247266   2.813   3.284   3.231  0.7268  0.5037  0.1132
 8592TIP3    H147267   2.767   3.317   3.308  0.0461 -1.9110  0.8383
 8592TIP3    H247268   2.888   3.236   3.266  0.7032 -0.1857 -0.7327
 8593TIP3   OH247269   3.355   5.156  12.164 -0.3073 -0.5034 -0.0618
 8593TIP3    H147270   3.412   5.156  12.088 -1.3693 -0.6261 -0.8769
 8593TIP3    H247271   3.364   5.068  12.202  1.9083  0.2331  1.2898
 8594TIP3   OH247272   1.338   5.555  10.311  0.4925 -0.0230 -0.1473
 8594TIP3    H147273   1.431   5.576  10.319  0.0398  1.7213  1.1063
 8594TIP3    H247274   1.323   5.487  10.377  0.6717  0.5328  0.4808
 8595TIP3   OH247275   0.804   6.521   2.008  0.2616  0.2175  0.0136
 8595TIP3    H147276   0.844   6.434   2.015 -0.2219 -0.1032 -0.9422
 8595TIP3    H247277   0.833   6.568   2.086  0.2392 -0.9193  0.7216
 8596TIP3   OH247278   0.182   2.545   5.543  0.4002  0.3322  0.0397
 8596TIP3    H147279   0.257   2.601   5.560 -1.0197  2.9742 -1.6710
 8596TIP3    H247280   0.210   2.486   5.473  1.8883 -1.1905  1.8109
 8597TIP3   OH247281   4.294   2.040   6.267  0.1170 -0.2240 -0.1982
 8597TIP3    H147282   4.287   1.996   6.352 -0.5106  0.0570 -0.0979
 8597TIP3    H247283   4.339   1.977   6.211 -0.5073 -0.8898  0.0260
 8598TIP3   OH247284   5.627   3.855   1.770 -0.6011  0.6396 -0.1372
 8598TIP3    H147285   5.719   3.879   1.761 -0.3066 -0.7716 -1.2669
 8598TIP3    H247286   5.621   3.816   1.857  0.2202 -0.5852 -0.6021
 8599TIP3   OH247287   3.580   5.599   4.489 -0.1135 -0.1005  0.0475
 8599TIP3    H147288   3.658   5.582   4.437 -0.3472  0.5579 -0.5299
 8599TIP3    H247289   3.613   5.633   4.572  0.2325 -0.4984  0.0774
 8600TIP3   OH247290   0.327   1.831   1.996 -0.5790  0.0320 -0.1151
 8600TIP3    H147291   0.269   1.864   2.065 -1.4157 -0.1852 -0.7007
 8600TIP3    H247292   0.304   1.883   1.919  0.3632  0.2865 -0.2431
 8601TIP3   OH247293   4.404   5.540   1.407 -0.7436  0.1370 -0.5562
 8601TIP3    H147294   4.495   5.530   1.379 -0.7795  0.7171 -0.9229
 8601TIP3    H247295   4.387   5.634   1.396 -2.1318 -0.3096 -2.8949
 8602TIP3   OH247296   1.077   6.528  16.244  0.2190 -0.1088  0.0248
 8602TIP3    H147297   1.093   6.577  16.324  1.6711 -0.9291  0.2663
 8602TIP3    H247298   0.985   6.546  16.223 -0.3802 -0.3504  2.1897
 8603TIP3   OH247299   2.085   6.021  14.355 -0.3496  0.2167 -0.5461
 8603TIP3    H147300   2.108   5.972  14.434 -1.5890  0.3370 -0.0819
 8603TIP3    H247301   2.143   5.986  14.287  2.1265  1.4574  0.7996
 8604TIP3   OH247302   1.622   5.351  16.259 -0.2991 -0.0441 -0.0320
 8604TIP3    H147303   1.629   5.380  16.168 -1.4074  1.0891  0.2119
 8604TIP3    H247304   1.629   5.256  16.255 -1.1801 -0.0762 -1.3985
 8605TIP3   OH247305   1.103   4.249  13.473 -0.0357  0.7122 -0.5181
 8605TIP3    H147306   1.124   4.207  13.556 -0.5556 -0.1872 -0.8246
 8605TIP3    H247307   1.039   4.191  13.432  0.7674  0.7513 -1.8950
 8606TIP3   OH247308   0.606   1.540  11.358 -0.0770 -0.0804  0.7603
 8606TIP3    H147309   0.587   1.496  11.441 -0.1329 -1.6970 -0.0771
 8606TIP3    H247310   0.658   1.477  11.308  0.9552  1.3099 -0.0109
 8607TIP3   OH247311   5.709   0.974  12.666 -0.6449 -0.5544  0.3283
 8607TIP3    H147312   5.788   0.984  12.613 -1.2041 -1.6276 -0.7646
 8607TIP3    H247313   5.678   1.063  12.681  0.0631 -0.1874 -0.3412
 8608TIP3   OH247314   3.305   1.411   1.080 -0.1567  0.1585 -0.0734
 8608TIP3    H147315   3.399   1.401   1.070 -0.2536 -0.1133 -0.7158
 8608TIP3    H247316   3.271   1.322   1.082 -0.5938  0.2509 -1.8022
 8609TIP3   OH247317   2.312   1.235   1.152 -0.2747  0.1369 -0.3724
 8609TIP3    H147318   2.247   1.219   1.084 -0.1553  2.1608 -1.0130
 8609TIP3    H247319   2.330   1.329   1.148  1.1943 -0.0171  1.1516
 8610TIP3   OH247320   6.019   2.371  12.060 -0.3771 -0.3002 -0.0340
 8610TIP3    H147321   6.056   2.285  12.080  2.0226  0.7117  0.3024
 8610TIP3    H247322   5.942   2.378  12.116  1.7915 -0.6137  3.3281
 8611TIP3   OH247323   4.364   0.287   3.634 -0.3499 -0.3169  0.1759
 8611TIP3    H147324   4.409   0.203   3.627 -1.7859 -1.0001 -1.5018
 8611TIP3    H247325   4.285   0.269   3.685  1.1758  0.9014  3.2051
 8612TIP3   OH247326   4.720   0.877  15.116 -0.1142 -0.1404 -0.0524
 8612TIP3    H147327   4.636   0.890  15.073  0.0398 -0.9270 -0.6232
 8612TIP3    H247328   4.775   0.835  15.049  1.4456  2.2952 -0.4258
 8613TIP3   OH247329   6.259   5.206  12.546 -0.6080 -0.5125  0.5148
 8613TIP3    H147330   6.294   5.235  12.631  1.9060 -0.1728 -0.5502
 8613TIP3    H247331   6.325   5.145  12.513 -1.2350 -0.1725 -1.4707
 8614TIP3   OH247332   1.666   4.988  15.299 -0.6128  0.4029  0.1991
 8614TIP3    H147333   1.610   4.912  15.286  0.7768 -0.6359  0.0741
 8614TIP3    H247334   1.754   4.952  15.310  0.0326  1.9723  0.4952
 8615TIP3   OH247335   3.316   2.332  11.962 -0.1498  0.1955  0.5634
 8615TIP3    H147336   3.258   2.303  11.892 -0.7049 -0.0726  1.1226
 8615TIP3    H247337   3.369   2.402  11.923 -3.1785  2.9257  0.8905
 8616TIP3   OH247338   1.053   5.200  14.316 -0.3285 -0.0029  0.1174
 8616TIP3    H147339   0.967   5.240  14.328 -1.6323 -2.6830  0.6637
 8616TIP3    H247340   1.036   5.106  14.327  2.4103 -0.7489 -1.2952
 8617TIP3   OH247341   5.808   3.433  14.468 -0.3646  0.0916  0.1915
 8617TIP3    H147342   5.731   3.395  14.510 -1.6931  0.7752 -1.5211
 8617TIP3    H247343   5.873   3.362  14.467 -2.0380 -1.5038 -1.0353
 8618TIP3   OH247344   1.099   6.755  12.337  0.4117  0.2900  0.3388
 8618TIP3    H147345   1.052   6.706  12.405  1.5490 -0.4823  0.5938
 8618TIP3    H247346   1.118   6.689  12.270  0.4875  0.7611 -0.1039
 8619TIP3   OH247347   2.493   0.966  16.678  0.9072  0.2835 -0.2208
 8619TIP3    H147348   2.579   0.970  16.637  0.7681 -0.8625 -0.6765
 8619TIP3    H247349   2.509   0.993  16.769  1.2790  2.4523 -0.8862
 8620TIP3   OH247350   5.355   1.171  12.787  0.1555 -0.1746 -0.1244
 8620TIP3    H147351   5.310   1.087  12.785  0.9641 -0.6053 -1.2312
 8620TIP3    H247352   5.312   1.224  12.720 -0.0354  0.1304  0.2339
 8621TIP3   OH247353   5.276   6.126  14.310  0.5392  0.3581  0.0982
 8621TIP3    H147354   5.296   6.191  14.377  1.6274 -0.2129  0.3438
 8621TIP3    H247355   5.189   6.094  14.334  0.7188  0.4864  0.9834
 8622TIP3   OH247356   4.653   1.844   4.155 -0.1511  0.6798  0.2181
 8622TIP3    H147357   4.734   1.864   4.109  0.1306  0.9272  0.8214
 8622TIP3    H247358   4.656   1.749   4.169 -1.2143  0.2184 -2.1121
 8623TIP3   OH247359   4.182   0.979  13.349  0.1398  0.1802 -0.1508
 8623TIP3    H147360   4.275   0.973  13.327 -0.2234  0.8129 -2.0163
 8623TIP3    H247361   4.142   1.023  13.274 -1.4651  1.1172  1.1795
 8624TIP3   OH247362   1.900   2.976  16.674 -0.1068 -0.2749 -0.4087
 8624TIP3    H147363   1.873   2.947  16.587 -1.9052 -0.1957  0.0779
 8624TIP3    H247364   1.960   3.049  16.658  0.5227 -1.0226 -1.5700
 8625TIP3   OH247365   2.433   5.407   0.384 -0.1478 -0.1440  0.3814
 8625TIP3    H147366   2.450   5.431   0.475  0.7653 -0.6178  0.3481
 8625TIP3    H247367   2.401   5.487   0.343  3.8596  1.4385 -0.0039
 8626TIP3   OH247368   0.804   0.598   1.425 -0.4159  0.3535  0.4923
 8626TIP3    H147369   0.727   0.651   1.404 -0.0969  1.0108  0.9689
 8626TIP3    H247370   0.814   0.607   1.520 -0.0692 -0.1660  0.5051
 8627TIP3   OH247371   5.359   5.403  16.213  0.3604 -0.3576  0.1848
 8627TIP3    H147372   5.357   5.381  16.120 -0.7299 -1.6413  0.4656
 8627TIP3    H247373   5.283   5.460  16.226  0.6060 -0.0442  0.2652
 8628TIP3   OH247374   3.854   0.863   3.957  0.1770 -0.0577  0.0683
 8628TIP3    H147375   3.899   0.778   3.963 -0.0488 -0.0942  2.1059
 8628TIP3    H247376   3.898   0.917   4.023 -1.2820  0.6246  0.5169
 8629TIP3   OH247377   3.889   5.595   0.826 -0.0601  0.3825  0.3403
 8629TIP3    H147378   3.863   5.504   0.812 -1.0894  0.1603  3.1443
 8629TIP3    H247379   3.932   5.620   0.744 -0.9935 -2.1549 -1.0467
 8630TIP3   OH247380   4.405   6.177   5.104 -0.2248 -0.0224 -0.1760
 8630TIP3    H147381   4.442   6.188   5.192 -0.6450 -1.9695  0.2988
 8630TIP3    H247382   4.480   6.157   5.048 -0.2310 -1.8640  0.3873
 8631TIP3   OH247383   0.402   0.507  17.336 -0.2315  0.1583  0.1802
 8631TIP3    H147384   0.336   0.575  17.322 -0.8114 -0.2366  0.9385
 8631TIP3    H247385   0.462   0.516  17.261 -1.0301  0.6571 -0.4164
 8632TIP3   OH247386   0.316   6.371   4.517 -0.6846  0.5047  0.2170
 8632TIP3    H147387   0.221   6.371   4.517 -0.7110 -0.7857  0.0509
 8632TIP3    H247388   0.340   6.302   4.454  0.3723  1.5559 -0.5969
 8633TIP3   OH247389   1.198   1.700  14.787 -0.1206 -0.8581  0.2685
 8633TIP3    H147390   1.282   1.657  14.804  0.9587  0.7716 -0.5867
 8633TIP3    H247391   1.195   1.710  14.692 -0.3104  0.8984  0.4218
 8634TIP3   OH247392   5.862   0.850   2.675 -0.0560  0.0801 -0.1215
 8634TIP3    H147393   5.873   0.860   2.581  0.0352 -1.0594 -0.2454
 8634TIP3    H247394   5.946   0.876   2.713  0.5567 -1.2263 -0.5108
 8635TIP3   OH247395   2.723   1.678   0.163 -0.0599  0.4832 -0.1353
 8635TIP3    H147396   2.678   1.661   0.246 -0.9928  0.3413 -0.6589
 8635TIP3    H247397   2.773   1.598   0.146  0.5630  0.7110  0.5401
 8636TIP3   OH247398   3.017   5.818   5.115  0.0859  0.2007  0.2476
 8636TIP3    H147399   3.100   5.862   5.133  0.8029 -1.3593  0.9809
 8636TIP3    H247400   2.951   5.875   5.153  1.0285  0.3985  1.6786
 8637TIP3   OH247401   6.646   5.729   2.652 -0.1773  0.0201 -0.3624
 8637TIP3    H147402   6.652   5.776   2.568  0.3797 -0.9833 -0.9026
 8637TIP3    H247403   6.725   5.676   2.655 -0.3749 -0.2323  0.6453
 8638TIP3   OH247404   1.542   2.303  15.373 -0.0956  0.3413 -0.9656
 8638TIP3    H147405   1.599   2.327  15.446 -0.1319 -1.0223 -0.4561
 8638TIP3    H247406   1.454   2.308  15.410 -0.0788 -0.9083 -0.7337
 8639TIP3   OH247407   5.074   4.546   6.133  0.1331  0.0634  0.3660
 8639TIP3    H147408   5.069   4.506   6.220 -2.5104  1.0939  0.7790
 8639TIP3    H247409   4.988   4.532   6.095  0.2695  2.2066 -0.8842
 8640TIP3   OH247410   3.746   5.384   0.514 -0.1690  0.4726  0.2099
 8640TIP3    H147411   3.688   5.345   0.449  1.1440 -0.5281 -0.3931
 8640TIP3    H247412   3.753   5.476   0.488 -0.5392  0.3318 -0.3993
 8641TIP3   OH247413   1.258   0.388  12.861 -0.0502  0.5207  0.5063
 8641TIP3    H147414   1.351   0.364  12.863  0.2691  1.5064 -1.0689
 8641TIP3    H247415   1.244   0.422  12.773 -2.0410 -0.0688  0.5469
 8642TIP3   OH247416   2.600   3.612  12.441 -0.8155 -0.0770 -0.0529
 8642TIP3    H147417   2.631   3.524  12.466  1.6380  0.3941 -1.1432
 8642TIP3    H247418   2.678   3.667  12.448 -1.7418  1.5287 -1.7155
 8643TIP3   OH247419   4.533   4.660  12.755 -0.2709  0.0413 -0.1104
 8643TIP3    H147420   4.475   4.600  12.801  0.5830 -0.9302 -0.2742
 8643TIP3    H247421   4.592   4.694  12.822 -1.3177  1.4144  0.1494
 8644TIP3   OH247422   1.384   3.303   1.881 -0.0620 -0.2498 -0.5562
 8644TIP3    H147423   1.337   3.275   1.960  0.1177  1.1866  0.0986
 8644TIP3    H247424   1.315   3.331   1.821 -0.1399  0.6657 -0.0707
 8645TIP3   OH247425   3.391   5.403   1.322 -0.0516 -0.2515 -0.1475
 8645TIP3    H147426   3.348   5.387   1.405  0.0266  0.0857 -0.0383
 8645TIP3    H247427   3.320   5.432   1.264  0.0205  0.3121  0.0347
 8646TIP3   OH247428   6.002   0.128  10.152  0.2898 -0.0671  0.4630
 8646TIP3    H147429   5.985   0.170  10.236  1.7089 -1.7850  1.6699
 8646TIP3    H247430   5.915   0.111  10.116 -0.3921 -0.6005  2.2559
 8647TIP3   OH247431   2.749   6.331  13.564 -0.0856  0.6864 -0.1358
 8647TIP3    H147432   2.806   6.406  13.548  0.4003  0.7405  1.6456
 8647TIP3    H247433   2.751   6.319  13.659 -1.6850 -0.3946 -0.2046
 8648TIP3   OH247434   6.313   3.363   6.532 -0.2250 -0.2095  0.3500
 8648TIP3    H147435   6.277   3.422   6.466 -2.1281 -1.6672  0.0320
 8648TIP3    H247436   6.371   3.419   6.584 -0.2609  1.4245 -1.2721
 8649TIP3   OH247437   1.670   2.846   3.416  0.4433 -0.4468  0.0045
 8649TIP3    H147438   1.648   2.939   3.410  2.0835  0.1233  1.9133
 8649TIP3    H247439   1.597   2.802   3.372 -1.7391  1.5642  1.3680
 8650TIP3   OH247440   4.626   1.576   0.299 -0.1646 -0.0250 -0.4084
 8650TIP3    H147441   4.573   1.496   0.304  0.8759 -0.7801 -0.9808
 8650TIP3    H247442   4.568   1.645   0.331 -0.7693 -1.1509  1.0279
 8651TIP3   OH247443   0.737   2.220   4.760 -0.2934  0.3169  0.2194
 8651TIP3    H147444   0.757   2.293   4.702 -0.2861 -0.6523 -1.0273
 8651TIP3    H247445   0.646   2.198   4.741  0.1701 -1.0195 -0.6178
 8652TIP3   OH247446   4.661   1.500   5.345 -0.3030 -0.1362  0.0515
 8652TIP3    H147447   4.637   1.570   5.283  0.0050 -1.0292 -1.1279
 8652TIP3    H247448   4.725   1.541   5.403 -0.6188  0.7453 -0.1989
 8653TIP3   OH247449   1.112   3.024  16.084  0.0674  0.6819  0.2865
 8653TIP3    H147450   1.192   3.011  16.033  0.1686 -1.2817  0.8697
 8653TIP3    H247451   1.049   2.963  16.045 -1.1359  2.0880 -0.0599
 8654TIP3   OH247452   6.658   3.149   4.860  0.1871  0.4701 -0.0510
 8654TIP3    H147453   6.668   3.206   4.784  0.5494  0.5963  0.0885
 8654TIP3    H247454   6.728   3.085   4.852 -1.4107 -1.2409 -1.2993
 8655TIP3   OH247455   0.816   0.493  12.773 -0.0592 -0.7536  0.0274
 8655TIP3    H147456   0.865   0.575  12.776 -1.2707  0.1693 -2.3284
 8655TIP3    H247457   0.824   0.456  12.861  1.3903  1.3593  0.8515
 8656TIP3   OH247458   2.235   2.085   5.393  0.3737 -0.3458  0.4043
 8656TIP3    H147459   2.189   2.070   5.476 -0.2294 -3.5190 -0.3620
 8656TIP3    H247460   2.165   2.101   5.330  0.8236  1.9113  0.3897
 8657TIP3   OH247461   1.886   5.949  12.730  0.0749 -0.3282  0.3245
 8657TIP3    H147462   1.808   6.003  12.743 -0.5153 -1.2987  0.8834
 8657TIP3    H247463   1.944   5.975  12.802  1.2561  1.9971 -1.3139
 8658TIP3   OH247464   4.513   5.640  13.709 -0.2088  0.1305  0.1082
 8658TIP3    H147465   4.604   5.669  13.702  0.2750 -0.8778  1.7569
 8658TIP3    H247466   4.483   5.674  13.793 -1.5003  0.7722 -0.5808
 8659TIP3   OH247467   6.708   1.010  16.279 -0.8101  0.7379 -0.1211
 8659TIP3    H147468   6.653   0.932  16.274  0.3969 -0.2904  1.4698
 8659TIP3    H247469   6.688   1.059  16.199 -1.5493 -1.2426 -1.2169
 8660TIP3   OH247470   3.558   3.512  12.609  0.0371  0.3962  0.1774
 8660TIP3    H147471   3.626   3.575  12.631  1.5927 -1.1822  0.1595
 8660TIP3    H247472   3.487   3.530  12.671  0.1899  2.4504 -0.1785
 8661TIP3   OH247473   3.420   3.272   2.939 -0.2268  0.6766  0.1093
 8661TIP3    H147474   3.376   3.284   3.023 -0.1252 -3.2311  0.9198
 8661TIP3    H247475   3.352   3.236   2.882  0.0259  2.0961 -1.1391
 8662TIP3   OH247476   4.792   4.974  12.479 -0.7289  0.0094 -0.2524
 8662TIP3    H147477   4.739   4.926  12.543  2.6567 -1.7055  1.4929
 8662TIP3    H247478   4.789   4.920  12.400  0.3316 -1.4162  0.6341
 8663TIP3   OH247479   1.577   5.644  12.323 -0.7540 -0.3151  0.0246
 8663TIP3    H147480   1.628   5.648  12.404 -0.6305 -1.9495  0.0610
 8663TIP3    H247481   1.639   5.667  12.254 -0.4732 -0.3628  0.2606
 8664TIP3   OH247482   0.634   4.148   1.147 -0.2673 -0.4194  0.2668
 8664TIP3    H147483   0.720   4.153   1.188 -0.8574  1.2807  1.4079
 8664TIP3    H247484   0.575   4.125   1.219 -0.9752  0.0235 -0.1586
 8665TIP3   OH247485   3.261   4.908   5.519  0.5806  0.2842  0.2333
 8665TIP3    H147486   3.188   4.871   5.469  1.7604 -3.0246  0.7186
 8665TIP3    H247487   3.330   4.923   5.454 -0.2545  3.0324 -0.1581
 8666TIP3   OH247488   4.652   2.870  14.702  0.1319 -0.2236 -0.0506
 8666TIP3    H147489   4.736   2.898  14.665  0.7835 -0.5897  1.0719
 8666TIP3    H247490   4.639   2.781  14.668 -0.8477  0.5647 -1.8584
 8667TIP3   OH247491   4.578   4.810  11.639  0.2392 -0.1175  0.3702
 8667TIP3    H147492   4.591   4.750  11.712 -0.6522 -0.1017  0.5431
 8667TIP3    H247493   4.543   4.755  11.569  1.2815 -0.1736 -0.1296
 8668TIP3   OH247494   5.009   3.234   7.007  0.1117 -0.3803  0.1681
 8668TIP3    H147495   5.002   3.243   6.912 -1.3081 -0.3038  0.2627
 8668TIP3    H247496   4.918   3.225   7.038  0.3092  1.8665  1.7382
 8669TIP3   OH247497   5.344   0.293  13.869  1.4500 -0.0146  0.1606
 8669TIP3    H147498   5.375   0.248  13.790  0.5654  1.3436 -1.0077
 8669TIP3    H247499   5.425   0.315  13.916  2.0026 -0.6703 -0.4409
 8670TIP3   OH247500   4.679   2.663   5.261  0.1493 -0.1635  0.0732
 8670TIP3    H147501   4.745   2.596   5.246  0.3943 -0.2173  1.3174
 8670TIP3    H247502   4.603   2.615   5.295 -0.2864 -0.0104 -0.6541
 8671TIP3   OH247503   4.291   5.654   4.638  0.0045  0.3737  0.1412
 8671TIP3    H147504   4.222   5.638   4.703  0.4101 -0.2458  0.4383
 8671TIP3    H247505   4.279   5.585   4.573  0.7031 -0.1120  0.5111
 8672TIP3   OH247506   6.136   1.359  13.761  0.4130 -0.0716  0.0737
 8672TIP3    H147507   6.102   1.301  13.692 -0.3254 -0.4210  0.7128
 8672TIP3    H247508   6.059   1.382  13.812  1.2023 -1.4106  1.9765
 8673TIP3   OH247509   4.324   0.067   3.061  0.0401  0.0195  0.1196
 8673TIP3    H147510   4.339  -0.010   3.115  1.3453 -0.2623 -0.6039
 8673TIP3    H247511   4.401   0.072   3.004 -1.1716  0.4264 -1.5686
 8674TIP3   OH247512   1.608   6.233   3.094 -0.1451 -0.3054  0.3353
 8674TIP3    H147513   1.516   6.217   3.115 -0.2335  0.5270  0.6390
 8674TIP3    H247514   1.607   6.316   3.047  0.2554 -1.2273 -1.4028
 8675TIP3   OH247515   1.373   6.420   4.541 -0.1450 -0.1953 -0.0825
 8675TIP3    H147516   1.310   6.467   4.596  0.0617  2.4294 -1.8941
 8675TIP3    H247517   1.456   6.426   4.589 -0.2491  0.8593 -0.0074
 8676TIP3   OH247518   0.561   3.047  13.298  0.8865  0.2496 -0.3366
 8676TIP3    H147519   0.594   3.118  13.353  1.3437 -0.0332 -0.2503
 8676TIP3    H247520   0.478   3.081  13.264  0.6743  0.4858  0.3938
 8677TIP3   OH247521   2.594   0.951   5.497  0.6509  0.2217 -0.1287
 8677TIP3    H147522   2.562   0.940   5.586 -0.7813 -0.2002 -0.6520
 8677TIP3    H247523   2.658   0.881   5.485 -0.0099 -0.4561  0.2124
 8678TIP3   OH247524   2.349   3.416  14.796  0.0456  0.3665 -0.3384
 8678TIP3    H147525   2.424   3.473  14.813  0.6688 -0.4337 -0.3482
 8678TIP3    H247526   2.347   3.407  14.700  1.0436 -1.0286 -0.2626
 8679TIP3   OH247527   3.704   0.932  13.191  0.0903 -0.1956  0.3433
 8679TIP3    H147528   3.648   0.991  13.242  0.8815 -0.3520  1.4449
 8679TIP3    H247529   3.768   0.900  13.255  1.4380 -0.0115 -0.8581
 8680TIP3   OH247530   1.987   4.832  13.752  0.1073  0.3988 -0.4142
 8680TIP3    H147531   1.909   4.835  13.807  0.6146  2.4881  0.2820
 8680TIP3    H247532   2.060   4.829  13.814  0.6306 -1.7865 -1.0580
 8681TIP3   OH247533   6.651   0.059   6.304  0.1548 -0.9478 -0.0745
 8681TIP3    H147534   6.573   0.003   6.306 -0.2990 -0.3305 -0.2572
 8681TIP3    H247535   6.640   0.112   6.225  0.5075 -0.5032  0.1752
 8682TIP3   OH247536   1.105   0.347  12.441  0.2157 -0.1573 -0.1824
 8682TIP3    H147537   1.032   0.336  12.503  0.0949  0.1082 -0.2751
 8682TIP3    H247538   1.159   0.269  12.454  1.5912  1.0793  2.1405
 8683TIP3   OH247539   4.775   5.852   3.861 -0.0214  0.1986  0.3486
 8683TIP3    H147540   4.860   5.891   3.880 -0.6385  2.6592 -1.4423
 8683TIP3    H247541   4.712   5.918   3.887 -1.3120 -0.8917  0.0798
 8684TIP3   OH247542   0.733   1.302  16.431  0.6983  0.0732 -0.1296
 8684TIP3    H147543   0.772   1.262  16.354  0.7131  1.1122 -0.6832
 8684TIP3    H247544   0.694   1.383  16.399  0.5372  0.4333  0.9172
 8685TIP3   OH247545   3.974   6.208  13.667 -0.1430  0.3824  0.9145
 8685TIP3    H147546   3.950   6.179  13.579 -1.2760 -0.5651  1.4982
 8685TIP3    H247547   4.062   6.174  13.680  0.9115  2.3617 -0.6207
 8686TIP3   OH247548   3.604   1.706  15.330  0.3552 -0.0103  0.0040
 8686TIP3    H147549   3.666   1.687  15.259  0.3604  0.8240 -0.2326
 8686TIP3    H247550   3.656   1.698  15.410  0.0007 -2.4426  0.0643
 8687TIP3   OH247551   5.649   3.528   6.147 -0.1986 -0.4071  0.1641
 8687TIP3    H147552   5.629   3.441   6.183  0.5719 -2.3112 -3.4900
 8687TIP3    H247553   5.731   3.553   6.190 -1.7922 -0.0520  3.2921
 8688TIP3   OH247554   1.107   5.960   2.622  0.2493  0.7465  0.0938
 8688TIP3    H147555   1.058   5.892   2.668 -0.6760  0.6867 -0.9449
 8688TIP3    H247556   1.157   6.004   2.691  0.0840 -0.3205  0.9236
 8689TIP3   OH247557   4.520   4.100  14.496  0.3526 -0.0985  0.1978
 8689TIP3    H147558   4.570   4.129  14.573  0.7364  0.2504 -0.1790
 8689TIP3    H247559   4.586   4.076  14.432  0.0582  1.7229 -0.8234
 8690TIP3   OH247560   0.152   6.345   0.247 -0.7940 -0.3374 -0.4335
 8690TIP3    H147561   0.157   6.431   0.290  0.8064 -0.3709 -0.5100
 8690TIP3    H247562   0.083   6.356   0.181 -2.1838  0.1916  1.0383
 8691TIP3   OH247563   1.046   2.461  11.325 -0.2473  0.6290 -0.3474
 8691TIP3    H147564   1.008   2.465  11.237 -1.4795 -2.5831 -0.0590
 8691TIP3    H247565   0.972   2.472  11.384 -0.2391 -1.7824  0.2147
 8692TIP3   OH247566   0.777   6.428   0.858 -0.2577 -0.3001  0.1456
 8692TIP3    H147567   0.843   6.415   0.789 -0.4961  1.0930 -0.3636
 8692TIP3    H247568   0.706   6.368   0.834 -0.2572  0.0337 -0.7218
 8693TIP3   OH247569   2.364   3.147  15.105  0.2153  0.0931 -0.3766
 8693TIP3    H147570   2.325   3.234  15.096  2.0078  0.9688 -0.0288
 8693TIP3    H247571   2.324   3.111  15.184 -2.0419 -0.2758 -1.5969
 8694TIP3   OH247572   4.144   3.321  10.745 -0.9358  0.2931  0.1120
 8694TIP3    H147573   4.225   3.353  10.784 -1.0276  0.9988 -0.2507
 8694TIP3    H247574   4.169   3.243  10.697 -0.0894  1.4975 -1.5165
 8695TIP3   OH247575   6.136   2.401   3.290  0.3995  0.1350  0.2221
 8695TIP3    H147576   6.137   2.449   3.207  1.3205  0.5283  0.4466
 8695TIP3    H247577   6.228   2.387   3.311  0.1534 -1.0793  0.5514
 8696TIP3   OH247578   3.091   2.539   0.755 -0.2179 -0.6107 -0.0823
 8696TIP3    H147579   3.088   2.625   0.797 -1.6617 -1.2089  1.1497
 8696TIP3    H247580   3.136   2.554   0.672  0.8711  1.0356  0.7483
 8697TIP3   OH247581   6.389   4.843   3.084 -0.2550 -0.4676 -0.6155
 8697TIP3    H147582   6.370   4.897   3.161  0.6080 -0.4573 -0.4094
 8697TIP3    H247583   6.482   4.856   3.068 -0.0082 -1.9952 -0.4917
 8698TIP3   OH247584   1.177   3.045   1.764 -0.4048  0.6670  0.4650
 8698TIP3    H147585   1.269   3.018   1.775 -0.7361 -1.3422 -1.0565
 8698TIP3    H247586   1.182   3.138   1.745  1.6187  0.1348 -2.2764
 8699TIP3   OH247587   3.934   4.642   3.392 -0.1958  0.1215  0.0326
 8699TIP3    H147588   3.899   4.598   3.315 -0.6693  1.5469 -0.5965
 8699TIP3    H247589   4.028   4.648   3.376 -0.3950  1.0928 -0.7939
 8700TIP3   OH247590   2.678   5.079   5.797 -0.3310  0.8228  0.1744
 8700TIP3    H147591   2.750   5.096   5.858 -0.1970  0.0846  0.2354
 8700TIP3    H247592   2.644   5.166   5.774  1.0009  1.2205 -0.3595
 8701TIP3   OH247593   2.223   4.268   0.612  0.0961  0.7331  0.7964
 8701TIP3    H147594   2.204   4.265   0.518  2.9377 -0.0161  0.1647
 8701TIP3    H247595   2.149   4.223   0.652 -0.5178 -0.1835 -1.2077
 8702TIP3   OH247596   4.048   0.970  15.432 -0.1315  0.1467 -0.1907
 8702TIP3    H147597   4.052   1.045  15.490 -0.3568  0.4451 -0.5575
 8702TIP3    H247598   4.073   0.896  15.487 -0.4730  0.4044  0.3191
 8703TIP3   OH247599   1.452   4.804  15.716  0.3225  0.4568  0.1689
 8703TIP3    H147600   1.390   4.876  15.715  0.8649  0.9435  0.7023
 8703TIP3    H247601   1.463   4.783  15.808  1.5884  0.9491  0.1472
 8704TIP3   OH247602   4.205   3.826   5.604 -0.1845 -0.3943 -0.5411
 8704TIP3    H147603   4.130   3.856   5.655 -1.4261 -1.1824 -1.8151
 8704TIP3    H247604   4.260   3.779   5.668 -2.5877 -2.9567 -0.1534
 8705TIP3   OH247605   4.886   6.572  14.742  0.2743 -0.8578  0.1912
 8705TIP3    H147606   4.882   6.607  14.652  2.5178  1.0530  0.7166
 8705TIP3    H247607   4.959   6.511  14.740  0.4866 -0.6247  0.7622
 8706TIP3   OH247608   0.993   1.221  16.980  0.5701 -0.5875  0.2970
 8706TIP3    H147609   1.069   1.268  16.947 -1.0178  0.7385 -1.6786
 8706TIP3    H247610   0.980   1.254  17.069  0.4578  1.5286 -0.4709
 8707TIP3   OH247611   5.814   6.144   5.227  0.8188  0.1888  0.2585
 8707TIP3    H147612   5.789   6.220   5.278  0.2217 -0.5886  1.1450
 8707TIP3    H247613   5.786   6.069   5.279 -0.2341 -0.6358 -1.4078
 8708TIP3   OH247614   0.758   1.994  16.205 -0.1062  0.1477 -0.1503
 8708TIP3    H147615   0.666   1.967  16.204  0.3776 -1.6404 -0.3690
 8708TIP3    H247616   0.786   1.983  16.295 -0.1949  1.0577 -0.0060
 8709TIP3   OH247617   1.771   0.609  12.010 -0.1889  0.1242 -0.5961
 8709TIP3    H147618   1.781   0.529  11.958 -0.5117 -0.4415  0.1858
 8709TIP3    H247619   1.805   0.679  11.954  3.1288 -0.9410 -0.1552
 8710TIP3   OH247620   4.122   4.456  13.277 -0.4909 -0.1106 -0.7068
 8710TIP3    H147621   4.191   4.479  13.339  0.4346 -0.7528 -1.4617
 8710TIP3    H247622   4.068   4.535  13.270 -0.7237 -0.0838  1.0249
 8711TIP3   OH247623   5.247   3.077  11.906  0.2401  0.0981  0.2591
 8711TIP3    H147624   5.225   3.166  11.880  1.8376  0.7729  1.0567
 8711TIP3    H247625   5.174   3.048  11.960  0.4678  1.6048  1.4530
 8712TIP3   OH247626   0.632   2.793  16.618 -0.5429 -0.0285  0.4009
 8712TIP3    H147627   0.693   2.787  16.692 -1.7397  0.8407  1.5124
 8712TIP3    H247628   0.686   2.775  16.541  0.9065 -0.2296  1.4161
 8713TIP3   OH247629   3.473   2.975  14.132 -0.7119 -0.4669  0.6461
 8713TIP3    H147630   3.448   3.049  14.186 -0.4663  0.6888 -0.7466
 8713TIP3    H247631   3.554   2.942  14.172 -1.0149 -0.2151  1.4806
 8714TIP3   OH247632   4.357   4.828   0.854  0.1909 -0.1885 -0.4295
 8714TIP3    H147633   4.288   4.790   0.908  0.4242 -1.6201 -1.0826
 8714TIP3    H247634   4.438   4.803   0.897  0.3402  0.7256 -0.1535
 8715TIP3   OH247635   2.793   5.669  13.484 -0.6367 -0.5172 -0.4100
 8715TIP3    H147636   2.883   5.662  13.450 -0.6254  0.2006 -0.5299
 8715TIP3    H247637   2.778   5.585  13.527  0.4457 -0.2831  0.4747
 8716TIP3   OH247638   2.973   0.799   2.049 -0.6590  0.2967 -0.0713
 8716TIP3    H147639   2.925   0.846   1.981  0.1269 -0.2226 -1.0164
 8716TIP3    H247640   3.064   0.803   2.021 -0.1560  1.0171  1.5382
 8717TIP3   OH247641   6.100   3.731   4.842 -0.3601  0.2156 -0.1776
 8717TIP3    H147642   6.141   3.757   4.924 -0.8620  1.6773 -0.3627
 8717TIP3    H247643   6.041   3.660   4.866 -1.0872  1.1392  0.8924
 8718TIP3   OH247644   4.680   3.574   4.815  0.0495 -0.0534  0.4263
 8718TIP3    H147645   4.654   3.604   4.902  0.2959  0.3720  0.3573
 8718TIP3    H247646   4.613   3.512   4.790 -1.0596  1.2261  0.1339
 8719TIP3   OH247647   5.972   1.675   4.069  0.5555 -0.0213 -0.1910
 8719TIP3    H147648   5.916   1.597   4.066  0.1326  0.2268  0.6918
 8719TIP3    H247649   6.060   1.643   4.051  0.1838 -0.4691 -1.2860
 8720TIP3   OH247650   5.682   1.440  13.544 -0.0730 -0.8335 -0.7978
 8720TIP3    H147651   5.763   1.437  13.493  0.3585  2.4789 -0.5342
 8720TIP3    H247652   5.653   1.531  13.538 -2.7341 -1.4624  0.7546
 8721TIP3   OH247653   4.508   4.181   6.068  0.6742 -0.2231 -0.4053
 8721TIP3    H147654   4.443   4.244   6.036 -0.5127 -2.3380 -2.4545
 8721TIP3    H247655   4.592   4.224   6.054 -0.1149  1.1476 -1.1506
 8722TIP3   OH247656   6.073   5.042  11.566 -0.6686  0.1295 -0.4651
 8722TIP3    H147657   6.041   4.954  11.584 -1.0606  0.4416  0.4432
 8722TIP3    H247658   6.129   5.032  11.489 -0.6566 -0.9194 -0.3394
 8723TIP3   OH247659   1.044   0.128   0.955  0.5604 -0.2063 -0.8899
 8723TIP3    H147660   1.129   0.170   0.960  0.2319  0.4529 -0.6584
 8723TIP3    H247661   0.982   0.200   0.943 -0.3442 -0.2191  2.5675
 8724TIP3   OH247662   3.979   0.402   0.945  0.3772 -0.0597 -0.0403
 8724TIP3    H147663   4.025   0.439   0.870 -1.7558 -0.0710 -1.4435
 8724TIP3    H247664   3.910   0.465   0.965 -0.9705 -1.4721 -0.0471
 8725TIP3   OH247665   5.055   0.672  14.738 -0.3273 -0.1337 -0.1051
 8725TIP3    H147666   5.111   0.626  14.675  0.1690 -1.5448  1.2906
 8725TIP3    H247667   4.966   0.655  14.707 -0.0578  0.1681 -1.0616
 8726TIP3   OH247668   2.577   1.682   4.781 -0.2483 -0.1523 -0.1081
 8726TIP3    H147669   2.649   1.740   4.756  2.2970 -2.5346  1.1348
 8726TIP3    H247670   2.538   1.723   4.858  2.2628 -0.5035  1.4704
 8727TIP3   OH247671   6.475   3.838  11.441 -0.1030  0.6147 -0.6982
 8727TIP3    H147672   6.466   3.747  11.467 -0.9144  1.2728  1.5149
 8727TIP3    H247673   6.400   3.855  11.385 -0.5061  0.1924 -0.2919
 8728TIP3   OH247674   3.111   3.226   1.421  0.1389  0.2587 -0.3025
 8728TIP3    H147675   3.169   3.302   1.416 -0.0920  0.4124 -0.7106
 8728TIP3    H247676   3.040   3.253   1.480 -0.2364  0.5653 -0.8841
 8729TIP3   OH247677   4.418   6.755   1.775  0.2593 -0.0837 -0.6918
 8729TIP3    H147678   4.371   6.778   1.695  0.0668  0.4677 -0.4253
 8729TIP3    H247679   4.509   6.781   1.758  0.1079  0.5807 -0.5213
 8730TIP3   OH247680   1.069   5.586   6.210 -0.0287 -1.0511 -0.0736
 8730TIP3    H147681   1.062   5.623   6.298 -0.4851  0.8719 -0.8695
 8730TIP3    H247682   1.162   5.565   6.201  0.7139  1.8620 -0.2559
 8731TIP3   OH247683   4.314   4.794   0.580  0.6041  0.1177  0.3268
 8731TIP3    H147684   4.304   4.832   0.667  1.3499  1.8143 -0.2877
 8731TIP3    H247685   4.384   4.730   0.589 -0.2495 -0.7383  1.2415
 8732TIP3   OH247686   1.354   3.663  16.148 -0.2490  0.6764 -0.3769
 8732TIP3    H147687   1.301   3.643  16.224  1.3474  1.8683  1.1241
 8732TIP3    H247688   1.296   3.710  16.089 -0.9726  1.5789  1.0183
 8733TIP3   OH247689   5.358   5.962  16.192 -0.0828 -0.3940 -0.1725
 8733TIP3    H147690   5.373   5.903  16.118  0.2263  0.6957 -1.0051
 8733TIP3    H247691   5.444   6.002  16.209 -0.6557  1.2230 -0.8771
 8734TIP3   OH247692   1.941   5.676  17.034  0.1712  0.0201  0.0010
 8734TIP3    H147693   1.895   5.721  16.963 -0.2217 -1.8615 -1.0024
 8734TIP3    H247694   2.033   5.698  17.020  0.1552 -0.6773 -1.4123
 8735TIP3   OH247695   3.109   6.343  14.908  0.7258  0.2287 -1.2929
 8735TIP3    H147696   3.185   6.400  14.922 -0.0109  0.7455  0.9620
 8735TIP3    H247697   3.136   6.259  14.946 -0.3406  0.8847  1.1298
 8736TIP3   OH247698   6.033   4.961  14.313 -0.2887 -0.4281 -0.0852
 8736TIP3    H147699   5.950   4.999  14.340 -0.2433 -0.0192 -0.5057
 8736TIP3    H247700   6.025   4.868  14.333 -0.6349 -0.2999  0.3880
 8737TIP3   OH247701   4.883   1.687  13.330  0.1174  0.4536 -0.3041
 8737TIP3    H147702   4.967   1.647  13.354 -1.1104 -1.2352  1.4666
 8737TIP3    H247703   4.873   1.666  13.237 -0.0567 -2.7950  0.3353
 8738TIP3   OH247704   6.186   0.564  15.729  0.5285 -0.6667  0.0395
 8738TIP3    H147705   6.238   0.644  15.716 -0.7164  0.1234 -0.2270
 8738TIP3    H247706   6.209   0.534  15.817  2.3044 -1.0057 -0.5073
 8739TIP3   OH247707   5.406   2.698  15.538 -0.5861 -0.1424  0.1798
 8739TIP3    H147708   5.475   2.663  15.595  0.5016  0.3769 -0.7771
 8739TIP3    H247709   5.415   2.649  15.456  0.0177  1.3296 -0.6726
 8740TIP3   OH247710   5.563   5.613   4.232 -0.0112 -0.0812 -0.0064
 8740TIP3    H147711   5.480   5.661   4.224 -0.5283 -0.9348  0.1217
 8740TIP3    H247712   5.583   5.585   4.143 -0.4354 -0.7999  0.1135
 8741TIP3   OH247713   0.475   3.341   4.558  0.4496 -0.2315 -0.0657
 8741TIP3    H147714   0.493   3.361   4.466  1.2178  0.5390  0.2361
 8741TIP3    H247715   0.428   3.418   4.590  0.9566 -0.1087  0.3998
 8742TIP3   OH247716   4.460   1.395   6.064 -0.4652 -0.3387  0.2519
 8742TIP3    H147717   4.421   1.428   5.983  0.5613  0.0673 -0.0997
 8742TIP3    H247718   4.501   1.472   6.104  0.7694 -0.8996  0.1212
 8743TIP3   OH247719   2.788   1.175  16.284  0.2557 -0.1436 -0.2801
 8743TIP3    H147720   2.835   1.184  16.367 -0.6001  0.7685  0.1302
 8743TIP3    H247721   2.731   1.252  16.280  1.4633  0.7074 -2.5198
 8744TIP3   OH247722   3.376   6.733  17.278  0.1919 -0.4992 -0.3752
 8744TIP3    H147723   3.356   6.827  17.274 -1.7583 -0.7406  1.6074
 8744TIP3    H247724   3.330   6.695  17.204 -2.5866 -0.3212  1.1091
 8745TIP3   OH247725   3.290   4.907  15.649  0.7920 -0.1484  0.1128
 8745TIP3    H147726   3.203   4.910  15.689  0.5332 -0.5287 -0.4123
 8745TIP3    H247727   3.280   4.849  15.574  1.6593 -0.7218  0.4290
 8746TIP3   OH247728   1.210   1.267   0.917 -0.2503  0.5966 -0.9782
 8746TIP3    H147729   1.181   1.291   1.005 -1.1775 -0.3450 -1.0137
 8746TIP3    H247730   1.306   1.273   0.922 -0.2987  0.8358  0.0070
 8747TIP3   OH247731   1.233   3.827   4.939  0.4541  0.1441  0.9315
 8747TIP3    H147732   1.191   3.897   4.988 -0.1485 -0.4393  1.2620
 8747TIP3    H247733   1.213   3.748   4.988 -3.7293 -1.1360 -2.1918
 8748TIP3   OH247734   1.895   5.767  14.063 -0.1478  0.1426 -0.6989
 8748TIP3    H147735   1.876   5.764  14.157 -1.0903  1.5957 -0.8078
 8748TIP3    H247736   1.873   5.679  14.031  0.4947 -0.4701  0.4772
 8749TIP3   OH247737   0.792   1.325   5.406  0.5059  0.0658  0.2925
 8749TIP3    H147738   0.866   1.387   5.405  0.1378  0.6421 -2.5930
 8749TIP3    H247739   0.724   1.369   5.455  1.4902  0.2927  1.4903
 8750TIP3   OH247740   4.150   2.455  15.055 -0.3655  0.5516 -0.1626
 8750TIP3    H147741   4.131   2.414  15.140  1.6946 -1.3935 -0.5373
 8750TIP3    H247742   4.239   2.489  15.065 -0.4189  1.0360 -1.2946
 8751TIP3   OH247743   4.012   1.889  16.364 -0.0646  0.4849  0.0422
 8751TIP3    H147744   3.955   1.941  16.307  0.4618  1.4014  0.3262
 8751TIP3    H247745   3.956   1.861  16.436 -0.3351  0.7419 -0.0678
 8752TIP3   OH247746   0.485   2.727  12.773 -0.2581  0.0801 -0.2603
 8752TIP3    H147747   0.545   2.655  12.791 -0.8058 -0.2789  0.1483
 8752TIP3    H247748   0.484   2.733  12.677  0.3815  0.0591 -0.2761
 8753TIP3   OH247749   4.535   4.373  12.079 -0.3449  0.2315  0.0099
 8753TIP3    H147750   4.557   4.301  12.020  3.4302  2.2583 -1.4136
 8753TIP3    H247751   4.611   4.380  12.137 -2.3098  0.7270  2.7234
 8754TIP3   OH247752   6.646   3.347   4.628 -0.1276  0.4452  0.2760
 8754TIP3    H147753   6.571   3.390   4.587  0.9079  1.4241 -0.6588
 8754TIP3    H247754   6.669   3.275   4.569 -0.9175 -0.4839  1.0671
 8755TIP3   OH247755   3.532   5.989   2.634 -0.1926 -0.2220  0.2188
 8755TIP3    H147756   3.575   6.066   2.672  0.9448 -0.9108  0.3723
 8755TIP3    H247757   3.574   5.979   2.548 -0.3510 -0.6597  0.1930
 8756TIP3   OH247758   1.983   3.246  13.912 -0.1305 -0.0592  0.8289
 8756TIP3    H147759   2.039   3.196  13.972 -0.0421  0.5776  1.2977
 8756TIP3    H247760   1.974   3.190  13.835 -0.1010 -0.8274  1.3654
 8757TIP3   OH247761   6.157   2.904  13.607 -0.2342  0.2688 -0.1844
 8757TIP3    H147762   6.088   2.841  13.630 -1.3175  1.6569  0.5466
 8757TIP3    H247763   6.112   2.972  13.557  1.5439 -1.1936 -4.2384
 8758TIP3   OH247764   3.951   4.196  13.981  0.3075 -0.1108 -0.4185
 8758TIP3    H147765   4.025   4.146  14.016  2.4010  3.6287  1.0090
 8758TIP3    H247766   3.880   4.179  14.043  0.9785 -1.1098  0.1185
 8759TIP3   OH247767   3.874   5.690  15.423  0.4745  0.0397  0.1722
 8759TIP3    H147768   3.949   5.740  15.456  0.9990 -0.0133 -0.8912
 8759TIP3    H247769   3.910   5.604  15.400 -0.3610 -0.7507  1.6966
 8760TIP3   OH247770   3.840   4.644  17.176 -0.6890  0.5185  0.2395
 8760TIP3    H147771   3.888   4.588  17.237  1.2696  1.5306 -0.3112
 8760TIP3    H247772   3.865   4.612  17.089  0.2880  2.0727 -0.0786
 8761TIP3   OH247773   4.374   0.017  16.571 -0.2378 -0.1688  0.2188
 8761TIP3    H147774   4.397   0.081  16.503 -1.5302  1.5781  1.3138
 8761TIP3    H247775   4.425   0.044  16.647 -1.7475  0.3994  1.0644
 8762TIP3   OH247776   4.466   5.925  13.004 -0.1582 -0.3803 -0.2524
 8762TIP3    H147777   4.458   6.013  13.040 -0.4951 -0.0014 -1.2126
 8762TIP3    H247778   4.469   5.868  13.081  1.4414  0.5527  0.4296
 8763TIP3   OH247779   3.031   3.351   0.221  0.1795  0.5333 -0.2815
 8763TIP3    H147780   3.119   3.322   0.199  0.6279  0.9200  0.9211
 8763TIP3    H247781   2.974   3.305   0.160  1.2536  0.6963 -1.4341
 8764TIP3   OH247782   1.160   2.307   4.572 -0.7043  1.0643 -0.3570
 8764TIP3    H147783   1.200   2.386   4.536  1.0188  0.3560 -0.1054
 8764TIP3    H247784   1.180   2.310   4.666  1.3997 -0.7275 -0.6662
 8765TIP3   OH247785   0.226   2.752  11.750  0.0739  0.2906  0.0160
 8765TIP3    H147786   0.205   2.691  11.822  0.0276  1.5503  1.1133
 8765TIP3    H247787   0.319   2.771  11.761 -0.4536  2.5044  1.4363
 8766TIP3   OH247788   6.098   0.579   1.705 -0.3867 -0.5990  0.2988
 8766TIP3    H147789   6.085   0.628   1.624  0.8990  0.0901  0.4828
 8766TIP3    H247790   6.055   0.631   1.773 -2.9212 -1.9794 -0.0997
 8767TIP3   OH247791   5.549   3.170  13.711 -0.2293 -0.1302  0.3104
 8767TIP3    H147792   5.491   3.242  13.738  1.3188  0.3233  2.6788
 8767TIP3    H247793   5.517   3.146  13.624 -2.2906  1.8366  0.4170
 8768TIP3   OH247794   4.108   0.522   0.714 -0.1563 -0.2530 -0.3653
 8768TIP3    H147795   4.078   0.612   0.711  0.0584 -0.2077 -1.7928
 8768TIP3    H247796   4.199   0.527   0.743  0.1653  0.0944 -1.3904
 8769TIP3   OH247797   1.668   5.576  17.060  0.5534 -0.1142 -0.1295
 8769TIP3    H147798   1.587   5.572  17.010  0.0582  0.2174  0.6392
 8769TIP3    H247799   1.674   5.667  17.088  1.2137 -0.1280 -0.2125
 8770TIP3   OH247800   5.788   2.183   0.366 -0.3074 -0.7519  1.0265
 8770TIP3    H147801   5.747   2.230   0.439 -2.5048 -0.3022 -0.4066
 8770TIP3    H247802   5.743   2.216   0.288  2.9663 -0.0669 -0.7834
 8771TIP3   OH247803   4.333   1.938  15.817 -0.4735  0.2005  0.5070
 8771TIP3    H147804   4.403   2.003  15.810  0.4147 -0.7353  0.3621
 8771TIP3    H247805   4.379   1.854  15.820 -1.6588 -0.5504 -1.1768
 8772TIP3   OH247806   2.948   6.549  17.291 -0.7235 -0.2470 -0.4747
 8772TIP3    H147807   2.910   6.611  17.353  0.2095 -1.1489  1.0644
 8772TIP3    H247808   2.969   6.602  17.214  2.0724  1.8889  1.5605
 8773TIP3   OH247809   0.719   0.027  11.636 -0.2406 -0.5729 -0.0764
 8773TIP3    H147810   0.692   0.088  11.568 -0.0297  0.6825  0.9129
 8773TIP3    H247811   0.807  -0.001  11.611 -0.0768  0.0518 -0.2062
 8774TIP3   OH247812   5.998   4.118  12.387 -0.2915 -0.2942  0.7275
 8774TIP3    H147813   5.948   4.069  12.322 -0.0588  0.4574 -0.0374
 8774TIP3    H247814   6.016   4.055  12.456 -1.7626 -0.7421  0.7308
 8775TIP3   OH247815   1.468   6.177   5.511  0.4138 -0.4239  0.7663
 8775TIP3    H147816   1.407   6.249   5.529  1.9692  0.9974  0.5293
 8775TIP3    H247817   1.542   6.192   5.569  1.3743 -1.0582 -0.2569
 8776TIP3   OH247818   6.386   2.424  10.687 -0.3631  0.4516 -0.0511
 8776TIP3    H147819   6.395   2.337  10.726 -2.4155 -1.1600 -2.8032
 8776TIP3    H247820   6.433   2.482  10.747  1.8023 -2.6175  1.4789
 8777TIP3   OH247821   6.633   2.461   0.430 -0.2507  0.2814  0.2720
 8777TIP3    H147822   6.588   2.418   0.357 -1.1016 -0.2132  1.0611
 8777TIP3    H247823   6.688   2.528   0.389  0.4437 -0.9725 -0.9271
 8778TIP3   OH247824   2.761   6.487   6.078  0.5193 -0.1127 -0.1878
 8778TIP3    H147825   2.769   6.579   6.052 -0.9366 -0.0213 -0.3739
 8778TIP3    H247826   2.776   6.488   6.173 -0.0645  0.4099 -0.0930
 8779TIP3   OH247827   4.588   1.088  14.921  0.0825 -0.1025  0.6554
 8779TIP3    H147828   4.504   1.056  14.889  0.3721  0.5154 -0.7834
 8779TIP3    H247829   4.575   1.098  15.016 -1.5515  0.2737  0.4184
 8780TIP3   OH247830   4.874   6.057  16.986  0.1199 -0.1603  0.4870
 8780TIP3    H147831   4.920   6.040  17.068  1.0053 -0.1949  0.0047
 8780TIP3    H247832   4.894   6.149  16.966  1.2434 -0.5810 -0.4672
 8781TIP3   OH247833   1.021   4.632  12.040 -0.5903 -0.0494 -0.2410
 8781TIP3    H147834   1.078   4.669  11.972  0.4292  0.0233  0.6198
 8781TIP3    H247835   1.043   4.539  12.041  1.5158  0.3815  1.8733
 8782TIP3   OH247836   0.221   1.632   4.014 -1.0352  0.0287 -0.0016
 8782TIP3    H147837   0.238   1.583   3.933 -1.8131  0.3890 -0.3952
 8782TIP3    H247838   0.143   1.684   3.994 -0.1819  1.5085  0.3670
 8783TIP3   OH247839   2.041   2.795  14.164  0.0869 -0.7549  0.6320
 8783TIP3    H147840   1.965   2.848  14.188  0.1259 -1.5646  2.7559
 8783TIP3    H247841   2.018   2.759  14.079 -2.5221 -1.9579  1.7208
 8784TIP3   OH247842   5.789   0.065   1.880 -0.6193 -0.2270  0.0099
 8784TIP3    H147843   5.698   0.063   1.848 -0.9777  1.8977  0.7113
 8784TIP3    H247844   5.802   0.156   1.908  1.6016 -0.5972  0.3344
 8785TIP3   OH247845   3.507   5.896   1.893  0.0799 -0.6702 -0.7391
 8785TIP3    H147846   3.552   5.979   1.908  1.7984 -2.0785  3.5466
 8785TIP3    H247847   3.421   5.907   1.935 -0.0172 -0.8039 -0.9014
 8786TIP3   OH247848   5.890   6.339   6.171 -0.4301  0.7604 -0.0275
 8786TIP3    H147849   5.925   6.265   6.222  0.5965  1.3671  0.1868
 8786TIP3    H247850   5.800   6.348   6.201  0.1343  1.0689  1.6851
 8787TIP3   OH247851   4.777   5.578  13.437  0.5743 -0.0978 -0.0066
 8787TIP3    H147852   4.725   5.610  13.511  0.0227 -3.0098  0.9762
 8787TIP3    H247853   4.865   5.612  13.454 -0.1934  1.9894  0.1758
 8788TIP3   OH247854   3.160   4.572   0.301 -0.0582 -0.0211  0.0425
 8788TIP3    H147855   3.120   4.658   0.312 -0.9039 -0.0935 -1.9726
 8788TIP3    H247856   3.251   4.584   0.328 -0.2700  1.3953  0.2071
 8789TIP3   OH247857   1.838   5.420   2.455 -0.7346  0.3770 -0.1958
 8789TIP3    H147858   1.877   5.436   2.369  0.2151 -2.6940 -0.4824
 8789TIP3    H247859   1.913   5.420   2.516 -1.1237  0.5549  0.2879
 8790TIP3   OH247860   1.646   5.798   1.007  0.4978 -0.2256 -0.0467
 8790TIP3    H147861   1.569   5.752   0.975  0.3837  1.1691 -1.9711
 8790TIP3    H247862   1.610   5.870   1.059  0.5300 -0.2184 -0.0347
 8791TIP3   OH247863   1.874   0.710  12.521 -0.8043  0.3229  0.5688
 8791TIP3    H147864   1.892   0.699  12.428 -1.5233 -2.4982  0.6755
 8791TIP3    H247865   1.781   0.728  12.526 -0.8264  0.1630  0.7613
 8792TIP3   OH247866   2.167   5.283   5.870 -0.2301 -0.1867 -0.4102
 8792TIP3    H147867   2.123   5.322   5.794 -1.0064  0.7530  0.4850
 8792TIP3    H247868   2.110   5.209   5.894  0.3367 -0.8652 -1.0752
 8793TIP3   OH247869   4.281   6.182  16.684  0.5900 -0.6227  0.1737
 8793TIP3    H147870   4.266   6.207  16.593 -0.0931 -1.1149  0.1410
 8793TIP3    H247871   4.358   6.232  16.710  1.6697 -1.5463 -1.1119
 8794TIP3   OH247872   3.487   5.303   6.575 -0.1713 -0.2166 -0.2668
 8794TIP3    H147873   3.530   5.232   6.622 -0.4378 -0.4588 -0.3884
 8794TIP3    H247874   3.492   5.278   6.483  2.2173  1.2467 -0.6230
 8795TIP3   OH247875   1.087   1.313  11.621 -0.1195  0.4418 -0.1991
 8795TIP3    H147876   1.162   1.373  11.631  1.6564 -1.7246  0.2252
 8795TIP3    H247877   1.127   1.228  11.604 -2.4190 -1.2093  1.9511
 8796TIP3   OH247878   6.069   3.669  14.014 -0.3706  0.5954 -0.1170
 8796TIP3    H147879   6.048   3.759  13.990  0.5514  0.8559  0.0278
 8796TIP3    H247880   6.113   3.676  14.099 -0.8104 -0.0427  0.1678
 8797TIP3   OH247881   3.105   3.104  13.875 -0.3527  0.5642  0.0482
 8797TIP3    H147882   3.170   3.078  13.810 -1.3516  2.1405 -1.6812
 8797TIP3    H247883   3.150   3.170  13.929  0.5281 -0.8625  1.1324
 8798TIP3   OH247884   6.548   6.295   4.510  0.2695 -0.2187 -0.2114
 8798TIP3    H147885   6.578   6.223   4.565  0.1308 -0.0435  0.0918
 8798TIP3    H247886   6.577   6.270   4.422  2.1212  0.3928  0.1864
 8799TIP3   OH247887   4.777   0.088  11.434  0.2937  0.2414  0.2125
 8799TIP3    H147888   4.682   0.100  11.433  0.3772  0.9275  0.1819
 8799TIP3    H247889   4.789  -0.007  11.445 -0.4029 -0.1727 -2.0870
 8800TIP3   OH247890   2.387   2.856  14.011 -0.5312  0.4625 -0.3076
 8800TIP3    H147891   2.444   2.794  14.057 -2.2389 -0.3776  0.7584
 8800TIP3    H247892   2.365   2.922  14.077 -1.1022  0.5511 -0.5789
 8801TIP3   OH247893   6.727   4.671   3.801 -0.0555  0.2824 -0.3054
 8801TIP3    H147894   6.761   4.748   3.847  0.9274 -0.2377 -0.1494
 8801TIP3    H247895   6.777   4.597   3.837 -0.0931 -0.2737 -1.3662
 8802TIP3   OH247896   4.958   2.490  11.682  0.0998 -0.0874 -0.3449
 8802TIP3    H147897   4.917   2.521  11.763  0.3088  1.0172 -0.6453
 8802TIP3    H247898   4.897   2.425  11.648  0.0471 -0.6285  0.7354
 8803TIP3   OH247899   0.789   6.048  16.508 -0.0581  0.1990  0.6449
 8803TIP3    H147900   0.873   6.012  16.534  0.7100  1.6754  0.3204
 8803TIP3    H247901   0.807   6.141  16.490 -1.5432  0.3230 -0.3876
 8804TIP3   OH247902   3.727   4.770   5.567 -0.8965  0.6561  0.5932
 8804TIP3    H147903   3.646   4.728   5.597 -1.3536  1.2147  0.1707
 8804TIP3    H247904   3.717   4.862   5.592 -0.4779  0.7688  0.3656
 8805TIP3   OH247905   0.261   4.556  12.163 -0.0431 -0.3376  0.3870
 8805TIP3    H147906   0.339   4.506  12.185  1.2160  1.6703  0.7180
 8805TIP3    H247907   0.268   4.572  12.069  1.2558  1.8128  0.7742
 8806TIP3   OH247908   2.229   0.576   3.941  0.2137  0.4383  0.7596
 8806TIP3    H147909   2.288   0.515   3.984 -0.0087  0.5924  1.2943
 8806TIP3    H247910   2.287   0.635   3.892  0.4139 -0.4123 -0.0779
 8807TIP3   OH247911   3.819   3.408  16.094  0.0428  0.5329  0.5454
 8807TIP3    H147912   3.788   3.403  16.003  0.0569 -1.8147  0.6000
 8807TIP3    H247913   3.742   3.437  16.144 -0.4403  0.2562 -0.0225
 8808TIP3   OH247914   5.275   4.642   4.278  0.1079 -0.0134 -0.3709
 8808TIP3    H147915   5.310   4.723   4.315 -3.1722  1.3835  0.0744
 8808TIP3    H247916   5.243   4.594   4.354  2.4891 -2.1261 -0.5696
 8809TIP3   OH247917   5.859   6.227   3.142 -0.0967 -0.1091  0.4910
 8809TIP3    H147918   5.840   6.146   3.096 -0.5046 -0.4962  1.3126
 8809TIP3    H247919   5.776   6.275   3.141  0.2063  0.4249 -0.2135
 8810TIP3   OH247920   5.248   2.072  13.029 -0.5504 -0.1627 -0.0218
 8810TIP3    H147921   5.154   2.052  13.022 -0.5908 -1.3533  2.5633
 8810TIP3    H247922   5.292   1.994  12.996 -0.3932  0.6335 -1.8148
 8811TIP3   OH247923   6.650   0.697  16.609  0.0877 -0.6984  0.6366
 8811TIP3    H147924   6.611   0.784  16.598  0.8532 -0.3926  0.2729
 8811TIP3    H247925   6.578   0.643  16.642 -1.0386 -0.4946 -1.3566
 8812TIP3   OH247926   3.603   1.716   4.028  0.3647  0.2178  0.5132
 8812TIP3    H147927   3.619   1.708   4.123  0.0216 -1.6583  0.4606
 8812TIP3    H247928   3.671   1.775   3.997  1.4376 -0.3256  1.7173
 8813TIP3   OH247929   3.766   5.154   1.041 -0.1917  0.7700  0.2608
 8813TIP3    H147930   3.680   5.117   1.019 -0.4280  0.4781  1.6001
 8813TIP3    H247931   3.748   5.216   1.112  0.8055  0.0240  1.2013
 8814TIP3   OH247932   2.312   4.832   0.549 -0.6921  0.3211 -0.0817
 8814TIP3    H147933   2.328   4.831   0.644 -0.6519 -0.4043 -0.0902
 8814TIP3    H247934   2.278   4.744   0.530  0.7061 -0.0426 -0.9868
 8815TIP3   OH247935   5.655   1.376   2.769 -0.3493  0.4869 -0.0710
 8815TIP3    H147936   5.602   1.428   2.709  0.5998  1.9492  0.3164
 8815TIP3    H247937   5.602   1.369   2.848  0.4312  2.9388  0.7421
 8816TIP3   OH247938   5.702   2.205   3.845  0.6337 -0.1360 -0.8877
 8816TIP3    H147939   5.713   2.248   3.760 -0.5205  1.2204 -0.3781
 8816TIP3    H247940   5.635   2.138   3.829 -0.5751  1.0077 -0.7731
 8817TIP3   OH247941   3.120   4.096   0.508  0.4837 -0.1135  0.1799
 8817TIP3    H147942   3.071   4.151   0.447  1.7831  0.5292 -0.3020
 8817TIP3    H247943   3.212   4.109   0.486  0.8586 -2.8815 -0.2819
 8818TIP3   OH247944   4.166   1.218   2.795  0.1869 -0.2581  0.2347
 8818TIP3    H147945   4.087   1.246   2.748 -0.2126  0.2579  1.1941
 8818TIP3    H247946   4.168   1.123   2.784 -0.4068 -0.2420 -0.0502
 8819TIP3   OH247947   3.653   3.423  14.331 -0.1720  0.0878 -0.1196
 8819TIP3    H147948   3.735   3.464  14.357 -0.7852  1.3269 -0.0754
 8819TIP3    H247949   3.670   3.388  14.243  0.3706  0.4240 -0.1528
 8820TIP3   OH247950   2.264   6.153  15.887 -0.4460 -0.7119  0.2534
 8820TIP3    H147951   2.250   6.108  15.971 -2.1351 -1.8004 -0.5440
 8820TIP3    H247952   2.200   6.113  15.828 -0.3999  1.1427 -1.1429
 8821TIP3   OH247953   3.621   0.237  13.165 -0.3228 -0.8627  0.0475
 8821TIP3    H147954   3.699   0.261  13.215 -0.9170  1.2876  0.0320
 8821TIP3    H247955   3.654   0.218  13.077  0.0634  1.9978 -0.5274
 8822TIP3   OH247956   0.819   1.605   0.838 -0.0026 -0.4326 -0.4544
 8822TIP3    H147957   0.752   1.656   0.882 -0.8546 -0.9382 -1.1215
 8822TIP3    H247958   0.811   1.629   0.745  2.5517  1.5291 -0.2848
 8823TIP3   OH247959   5.234   2.588   2.279 -0.2661 -0.3800 -0.4564
 8823TIP3    H147960   5.254   2.596   2.185 -1.7328 -0.3995 -0.7895
 8823TIP3    H247961   5.320   2.587   2.321  0.4810 -1.6172 -1.8946
 8824TIP3   OH247962   2.429   0.331   1.108  0.1744 -0.3106  0.1373
 8824TIP3    H147963   2.392   0.244   1.102 -1.1519  0.2409  0.1155
 8824TIP3    H247964   2.356   0.390   1.090  1.1258  0.7998 -0.2132
 8825TIP3   OH247965   3.904   1.789   6.031  0.1988 -0.0794 -0.3367
 8825TIP3    H147966   3.931   1.863   6.086 -1.0052  0.1083  0.0322
 8825TIP3    H247967   3.811   1.777   6.051  0.3517 -1.6596 -0.4390
 8826TIP3   OH247968   6.142   6.269   2.210  0.0165  0.0576  0.1141
 8826TIP3    H147969   6.199   6.224   2.149 -1.4531  0.1449 -1.4067
 8826TIP3    H247970   6.061   6.218   2.210  0.0411 -0.0467  2.1675
 8827TIP3   OH247971   3.166   4.818  13.589 -0.6940  0.1355 -0.6139
 8827TIP3    H147972   3.186   4.877  13.661 -0.7820 -0.2169 -0.2978
 8827TIP3    H247973   3.238   4.829  13.527 -0.0144 -0.4270  0.0713
 8828TIP3   OH247974   0.629   0.887   3.158  0.4815 -0.5159  0.5074
 8828TIP3    H147975   0.643   0.911   3.067  0.3959 -0.6467  0.4595
 8828TIP3    H247976   0.716   0.887   3.197  0.6217 -1.3996  0.1969
 8829TIP3   OH247977   6.742   2.143   1.574 -0.3913  0.3135  0.1287
 8829TIP3    H147978   6.742   2.193   1.656 -1.3606  1.1139 -0.3490
 8829TIP3    H247979   6.779   2.058   1.598  1.8531  1.4040  0.8470
 8830TIP3   OH247980   4.157   0.673  16.034  0.2087 -0.0450 -0.7509
 8830TIP3    H147981   4.076   0.679  15.983 -0.7054 -0.0586  0.6406
 8830TIP3    H247982   4.154   0.585  16.072 -0.1272  0.6503  0.8888
 8831TIP3   OH247983   4.500   4.434   5.785  0.5710  0.1286 -0.1174
 8831TIP3    H147984   4.416   4.388   5.790  0.5506  0.0669 -0.9908
 8831TIP3    H247985   4.522   4.452   5.877 -0.8767  1.0342  0.0838
 8832TIP3   OH247986   0.405   6.403  12.891 -0.5843  0.1808  0.1116
 8832TIP3    H147987   0.335   6.451  12.934  0.1853  1.6208 -0.1515
 8832TIP3    H247988   0.434   6.338  12.955 -0.1295  1.6092  1.4150
 8833TIP3   OH247989   5.559   3.096   3.005  0.5094 -0.5571  0.3647
 8833TIP3    H147990   5.531   3.051   2.926 -0.0833 -0.4684  0.5165
 8833TIP3    H247991   5.478   3.110   3.055  0.5278  1.4926 -0.1033
 8834TIP3   OH247992   5.463   0.118  12.597  0.1530 -0.4808 -0.2748
 8834TIP3    H147993   5.396   0.136  12.530 -0.6395 -1.8113  0.1213
 8834TIP3    H247994   5.442   0.178  12.668  1.2917  1.2922 -1.3462
 8835TIP3   OH247995   4.157   1.202  15.570 -0.0459  0.2264 -0.0512
 8835TIP3    H147996   4.200   1.231  15.490  0.4476 -1.7951 -0.5915
 8835TIP3    H247997   4.085   1.263  15.583  1.6139  2.3701 -0.3718
 8836TIP3   OH247998   6.160   5.554  16.543  0.3885  0.2831  0.0535
 8836TIP3    H147999   6.240   5.605  16.546  1.4763 -1.2851 -0.6394
 8836TIP3    H248000   6.184   5.468  16.578 -1.3952  0.2262  1.2928
 8837TIP3   OH248001   2.016   4.075   6.838 -0.4704 -0.3862  0.2905
 8837TIP3    H148002   2.090   4.134   6.832 -0.0862 -0.9676 -0.9005
 8837TIP3    H248003   2.055   3.989   6.858 -0.9859 -0.3512  1.5691
 8838TIP3   OH248004   5.775   5.970   4.919 -0.3290  0.0624  0.3657
 8838TIP3    H148005   5.813   6.051   4.954  1.0949 -0.9409  1.2306
 8838TIP3    H248006   5.727   5.931   4.992  1.1124 -1.1156  0.7268
 8839TIP3   OH248007   1.011   4.028  13.354  0.0173  0.2085 -0.0297
 8839TIP3    H148008   0.990   4.056  13.265  1.9034  0.9567 -0.2763
 8839TIP3    H248009   1.091   3.976  13.344  0.5473  0.7438  1.2663
 8840TIP3   OH248010   4.070   4.665  15.827 -0.3034 -0.2964  0.4116
 8840TIP3    H148011   3.981   4.647  15.857 -0.2408  0.9799  1.4693
 8840TIP3    H248012   4.058   4.714  15.745 -0.5192 -1.6908 -0.4174
 8841TIP3   OH248013   6.158   5.133  13.760  0.2610 -0.2905  0.1739
 8841TIP3    H148014   6.169   5.202  13.825  0.4212 -0.3982  0.2599
 8841TIP3    H248015   6.231   5.146  13.699  0.5429 -0.6569  0.4331
 8842TIP3   OH248016   2.909   1.924   2.685 -0.0668 -0.6243  0.0044
 8842TIP3    H148017   2.932   1.899   2.775  2.6806 -1.7141 -0.8957
 8842TIP3    H248018   2.863   1.847   2.650  0.9126 -1.1412 -0.1876
 8843TIP3   OH248019   6.539   5.111   4.176 -0.1706 -0.0863  0.0736
 8843TIP3    H148020   6.517   5.103   4.083 -2.5035 -1.2851  0.6409
 8843TIP3    H248021   6.454   5.117   4.220  0.8624  0.0067  2.1805
 8844TIP3   OH248022   0.049   3.299  10.387  0.3270 -0.2502 -0.4507
 8844TIP3    H148023   0.055   3.294  10.482 -1.2516  0.9618 -0.2460
 8844TIP3    H248024   0.119   3.243  10.355 -0.0211 -1.8243  1.4107
 8845TIP3   OH248025   5.328   6.180   4.840 -0.6252 -0.3682 -0.1711
 8845TIP3    H148026   5.353   6.204   4.750 -0.7352 -0.2978 -0.1834
 8845TIP3    H248027   5.385   6.232   4.896 -0.7033 -0.2530 -0.1991
 8846TIP3   OH248028   3.792   3.749   3.497  0.1473 -0.1689 -0.3607
 8846TIP3    H148029   3.875   3.711   3.527  0.2583  0.4087  0.0760
 8846TIP3    H248030   3.816   3.833   3.458 -0.5532  2.1039  3.5476
 8847TIP3   OH248031   0.388   6.185   2.542 -0.2733 -0.0855  0.2729
 8847TIP3    H148032   0.389   6.278   2.518  0.2629 -0.1009  0.2095
 8847TIP3    H248033   0.297   6.159   2.535 -0.3791  0.3572 -0.0319
 8848TIP3   OH248034   1.566   1.749  13.550  0.0333  0.5472  0.2547
 8848TIP3    H148035   1.562   1.746  13.454  1.1700 -1.6736  0.2178
 8848TIP3    H248036   1.520   1.671  13.579 -1.2980  1.7777  1.6300
 8849TIP3   OH248037   2.432   2.903  12.180  0.3889 -0.4439  0.4635
 8849TIP3    H148038   2.371   2.844  12.137 -1.7679  3.1295 -1.8875
 8849TIP3    H248039   2.390   2.923  12.264 -0.3427 -0.0540  0.0118
 8850TIP3   OH248040   5.007   5.748  12.607 -0.1808  0.0825 -0.0460
 8850TIP3    H148041   5.043   5.801  12.677  0.1061  0.2263 -0.3021
 8850TIP3    H248042   4.914   5.738  12.630 -0.7038  2.2817 -0.9467
 8851TIP3   OH248043   5.611   3.545   6.438  0.0070  0.4617 -0.0701
 8851TIP3    H148044   5.649   3.626   6.472 -0.6667  0.8950 -0.3264
 8851TIP3    H248045   5.661   3.475   6.480 -1.3245  0.9346  2.5338
 8852TIP3   OH248046   3.906   1.223  14.977  0.2691 -0.1393  0.6021
 8852TIP3    H148047   3.837   1.217  15.043 -1.7187  1.7617 -1.1293
 8852TIP3    H248048   3.864   1.266  14.902  2.6702 -1.2552 -1.5475
 8853TIP3   OH248049   0.643   0.263  12.401 -0.1307 -0.4736  0.3847
 8853TIP3    H148050   0.656   0.358  12.405 -1.1996 -0.2519 -0.6575
 8853TIP3    H248051   0.730   0.228  12.383 -0.2335  0.6358 -3.0069
 8854TIP3   OH248052   2.472   3.688   0.132  0.6571  0.5925 -0.3270
 8854TIP3    H148053   2.390   3.727   0.163  1.6517  2.4108  0.1866
 8854TIP3    H248054   2.465   3.691   0.036 -0.9852 -1.8581 -0.3751
 8855TIP3   OH248055   1.457   3.881  14.541  0.2000  0.5264 -0.0827
 8855TIP3    H148056   1.405   3.872  14.621 -0.9157 -0.7141 -0.9030
 8855TIP3    H248057   1.457   3.793  14.502  1.9453  0.7705 -0.7213
 8856TIP3   OH248058   4.003   4.516   1.382  0.2103 -0.2192 -0.3549
 8856TIP3    H148059   4.088   4.559   1.380  0.6929 -1.1537 -0.2364
 8856TIP3    H248060   3.994   4.483   1.471  0.0747 -0.8103 -0.5819
 8857TIP3   OH248061   1.033   4.524   6.495  0.4030  0.5087 -0.6021
 8857TIP3    H148062   1.048   4.459   6.426  0.7470  0.4959 -0.5137
 8857TIP3    H248063   0.964   4.580   6.460 -0.8850 -0.7187 -0.1300
 8858TIP3   OH248064   6.619   6.494  15.293 -0.0361  0.0664 -0.0524
 8858TIP3    H148065   6.565   6.573  15.300 -0.6151 -0.1159 -1.9967
 8858TIP3    H248066   6.611   6.467  15.202  0.4451 -2.0563  0.4885
 8859TIP3   OH248067   3.792   6.657  12.654  0.4535 -1.0389  0.6630
 8859TIP3    H148068   3.873   6.681  12.699 -0.0315  0.0578  0.9999
 8859TIP3    H248069   3.732   6.631  12.724 -0.7828  2.0520  0.9408
 8860TIP3   OH248070   3.706   1.972   4.260 -0.0328  0.3458 -0.4232
 8860TIP3    H148071   3.795   1.983   4.226  0.0177  1.4983  0.0388
 8860TIP3    H248072   3.649   2.008   4.191 -0.0797  0.4308 -0.3412
 8861TIP3   OH248073   3.842   3.353   6.813  0.1963  0.2163  0.4607
 8861TIP3    H148074   3.774   3.296   6.850  1.8245 -2.3671 -0.2473
 8861TIP3    H248075   3.841   3.334   6.719  0.5223  1.7279  0.1199
 8862TIP3   OH248076   1.909   6.517  15.606 -0.1393 -0.3688  0.0854
 8862TIP3    H148077   1.898   6.525  15.511  2.8382  0.0646 -0.3229
 8862TIP3    H248078   1.932   6.605  15.635  0.3596 -0.7836  0.9876
 8863TIP3   OH248079   2.767   3.327  12.835 -0.4075 -0.2884  0.0692
 8863TIP3    H148080   2.768   3.233  12.853 -1.5249 -0.9239 -2.6673
 8863TIP3    H248081   2.677   3.354  12.856  0.1133  0.3924  1.5767
 8864TIP3   OH248082   2.384   2.409   4.439 -0.4749 -0.7181  0.1690
 8864TIP3    H148083   2.435   2.372   4.367  0.8131  0.4507  0.4460
 8864TIP3    H248084   2.386   2.342   4.507 -1.0174 -1.4978 -0.5626
 8865TIP3   OH248085   6.733   4.886   1.969 -0.1098 -0.1018 -0.2501
 8865TIP3    H148086   6.820   4.891   1.930 -0.1123  2.2536 -0.0929
 8865TIP3    H248087   6.749   4.879   2.063 -0.1206 -2.2158 -0.3705
 8866TIP3   OH248088   1.132   5.014  14.959  0.5446 -0.5556  0.4453
 8866TIP3    H148089   1.104   5.007  14.868  0.4566 -0.7806  0.4900
 8866TIP3    H248090   1.171   4.929  14.979  0.1716 -0.6562  0.7491
 8867TIP3   OH248091   4.890   5.247  16.787 -0.0951 -0.0698 -0.0553
 8867TIP3    H148092   4.921   5.318  16.844  0.4687 -0.0205 -0.4178
 8867TIP3    H248093   4.924   5.269  16.701 -1.0175 -0.1035 -0.4351
 8868TIP3   OH248094   4.534   0.017   5.198  0.1665  0.0810 -0.2075
 8868TIP3    H148095   4.453   0.064   5.221  0.8776  1.0351  0.4017
 8868TIP3    H248096   4.604   0.072   5.232  1.0358 -1.6559  0.8903
 8869TIP3   OH248097   1.205   6.622  17.261  0.2110 -0.0060 -0.3409
 8869TIP3    H148098   1.206   6.535  17.222 -0.8014  0.3854 -1.3181
 8869TIP3    H248099   1.297   6.644  17.275  0.4781 -1.2069 -0.0990
 8870TIP3   OH248100   0.850   5.151  11.318 -0.5702 -0.2436 -0.1511
 8870TIP3    H148101   0.765   5.139  11.276 -0.4021  0.5615 -0.7534
 8870TIP3    H248102   0.873   5.242  11.299 -0.5037  0.1742  1.7428
 8871TIP3   OH248103   1.549   5.101  16.063 -1.0568  0.4587  0.2700
 8871TIP3    H148104   1.525   5.014  16.095 -2.1191  0.4171 -0.5834
 8871TIP3    H248105   1.570   5.088  15.971 -3.5404  1.4152 -0.5357
 8872TIP3   OH248106   2.551   5.960  11.852  0.3193  0.3750  0.0457
 8872TIP3    H148107   2.478   5.915  11.809  0.4639  1.0316 -0.9042
 8872TIP3    H248108   2.575   6.030  11.792  2.0965 -0.1607  0.0707
 8873TIP3   OH248109   5.266   6.261  14.567 -0.3141  0.7717  0.7139
 8873TIP3    H148110   5.235   6.346  14.596  2.3440  2.3469 -0.5990
 8873TIP3    H248111   5.353   6.252  14.607  0.2265 -0.4401 -0.6218
 8874TIP3   OH248112   0.495   2.535  14.629 -0.2970  0.3053 -0.5015
 8874TIP3    H148113   0.517   2.628  14.625 -1.8004  0.7531  0.5971
 8874TIP3    H248114   0.577   2.490  14.647  0.6108  1.3091 -1.9236
 8875TIP3   OH248115   0.626   0.033  12.790 -0.2825  0.0703  0.6205
 8875TIP3    H148116   0.569  -0.011  12.726  1.5274 -3.5760  1.2536
 8875TIP3    H248117   0.565   0.073  12.853 -2.0606  0.6832 -1.3739
 8876TIP3   OH248118   2.601   4.675  11.839 -0.2628  0.3198 -0.8828
 8876TIP3    H148119   2.517   4.641  11.870 -0.6512  2.3444  0.4354
 8876TIP3    H248120   2.666   4.620  11.882 -0.8786  0.0435 -0.2763
 8877TIP3   OH248121   1.552   1.271   4.017 -0.5405  0.5263 -0.3111
 8877TIP3    H148122   1.562   1.257   3.922  1.8207  1.6684 -0.2940
 8877TIP3    H248123   1.480   1.212   4.042 -1.9692  0.9618 -2.9591
 8878TIP3   OH248124   0.343   1.120  10.832  1.0240  0.0851  0.7074
 8878TIP3    H148125   0.323   1.034  10.795 -0.6288  0.9252 -0.4884
 8878TIP3    H248126   0.438   1.124  10.834  1.2076 -0.5059 -2.3965
 8879TIP3   OH248127   5.294   1.783   5.324 -0.0891  0.6759  0.4515
 8879TIP3    H148128   5.294   1.733   5.242  0.6700 -1.1259  1.4934
 8879TIP3    H248129   5.340   1.864   5.302 -1.3533  0.9934 -1.2929
 8880TIP3   OH248130   6.741   4.540  17.459 -0.2314  0.1715  0.4969
 8880TIP3    H148131   6.707   4.621  17.420 -0.1507  0.8418  1.7738
 8880TIP3    H248132   6.717   4.546  17.551  1.1576 -0.5070  0.9367
 8881TIP3   OH248133   2.253   6.763  13.331  0.2942  0.0309  0.3672
 8881TIP3    H148134   2.197   6.722  13.397 -2.5253  1.1882 -1.1282
 8881TIP3    H248135   2.272   6.693  13.269 -0.4656 -0.1357  0.3143
 8882TIP3   OH248136   0.239   0.347  11.706  0.1607  0.1479 -0.2227
 8882TIP3    H148137   0.318   0.378  11.750  0.1320 -1.1896  0.8251
 8882TIP3    H248138   0.243   0.251  11.713 -1.2420  0.0292 -0.7057
 8883TIP3   OH248139   4.687   5.934  13.889  0.1871  0.3929 -0.1869
 8883TIP3    H148140   4.768   5.887  13.870  0.4923  0.4889  0.8293
 8883TIP3    H248141   4.631   5.869  13.930 -1.1222 -0.2852 -2.7985
 8884TIP3   OH248142   0.817   1.583  12.944 -0.2864  0.4327 -0.5127
 8884TIP3    H148143   0.854   1.495  12.954 -0.5186  0.4996  1.2746
 8884TIP3    H248144   0.781   1.604  13.030  0.5383  2.6344 -0.6403
 8885TIP3   OH248145   5.281   4.209   1.670  0.3906  0.0821 -0.2503
 8885TIP3    H148146   5.194   4.247   1.654  0.5762  0.2841 -0.7797
 8885TIP3    H248147   5.332   4.280   1.708  0.8454  0.4836 -1.5747
 8886TIP3   OH248148   5.370   6.559  13.357 -0.0120  0.0487 -0.6025
 8886TIP3    H148149   5.342   6.623  13.423 -0.2266 -0.6826  0.0210
 8886TIP3    H248150   5.398   6.613  13.282  0.2354  0.8900  0.0786
 8887TIP3   OH248151   1.524   4.896  12.814 -0.2722  0.1807 -0.2407
 8887TIP3    H148152   1.465   4.968  12.836  0.8971  0.2414  3.6315
 8887TIP3    H248153   1.491   4.822  12.864  1.1354 -0.6464 -0.4807
 8888TIP3   OH248154   4.000   6.472  14.930 -0.1074 -0.1924  0.5368
 8888TIP3    H148155   4.069   6.408  14.910  0.2939  0.2744  0.3983
 8888TIP3    H248156   4.023   6.505  15.017  0.9244  1.3223 -0.2650
 8889TIP3   OH248157   2.986   5.945   0.403  0.3483  0.2820  0.2717
 8889TIP3    H148158   3.053   5.880   0.382 -0.2932 -0.4970  0.5624
 8889TIP3    H248159   3.028   6.004   0.465  0.4999 -0.7299  1.1621
 8890TIP3   OH248160   3.439   4.548   4.444 -0.2006 -0.3012  0.3349
 8890TIP3    H148161   3.388   4.467   4.437 -0.6486  0.0041 -0.0011
 8890TIP3    H248162   3.502   4.543   4.372  0.7383 -1.0062  1.1724
 8891TIP3   OH248163   1.272   4.798  12.418  0.4979  0.0977 -0.2142
 8891TIP3    H148164   1.290   4.834  12.331 -0.0203  1.2594  0.1420
 8891TIP3    H248165   1.346   4.826  12.471  0.3605  0.1691 -0.0594
 8892TIP3   OH248166   6.724   1.464   4.215  0.9188  0.5706 -0.5111
 8892TIP3    H148167   6.759   1.493   4.299  1.7374  0.9110 -0.9602
 8892TIP3    H248168   6.698   1.545   4.171 -2.0415  0.2701  0.4551
 8893TIP3   OH248169   3.046   0.147   3.681 -0.2440  0.0142  0.3305
 8893TIP3    H148170   2.952   0.142   3.697 -0.0492 -1.0919  1.2593
 8893TIP3    H248171   3.057   0.119   3.591 -0.9081  1.3897 -0.2062
 8894TIP3   OH248172   6.741   5.910  13.611  0.1413 -0.1255 -0.4362
 8894TIP3    H148173   6.816   5.957  13.648 -0.7519  0.0918  1.1740
 8894TIP3    H248174   6.779   5.839  13.560  1.4683  0.9842 -1.0503
 8895TIP3   OH248175   3.303   1.716  14.817 -0.0484  0.4069 -0.8287
 8895TIP3    H148176   3.307   1.625  14.847 -1.2435  0.6466  0.1046
 8895TIP3    H248177   3.347   1.766  14.886 -1.2036  0.7554 -0.3217
 8896TIP3   OH248178   2.810   5.732  10.599  0.1807 -0.2150  0.8377
 8896TIP3    H148179   2.832   5.732  10.692 -0.5465 -0.9078  1.0203
 8896TIP3    H248180   2.845   5.815  10.566 -0.0096  0.2840  1.8421
 8897TIP3   OH248181   0.128   5.797  16.551  0.3231 -0.0109 -0.2764
 8897TIP3    H148182   0.113   5.848  16.630 -1.7955 -3.3774  1.7255
 8897TIP3    H248183   0.195   5.733  16.576  0.4165 -0.4668 -1.5848
 8898TIP3   OH248184   2.800   4.615   5.694  0.1122 -0.0045 -0.2744
 8898TIP3    H148185   2.734   4.630   5.762  0.1988 -1.0988  0.0635
 8898TIP3    H248186   2.812   4.520   5.692  1.5683  0.1600 -0.4413
 8899TIP3   OH248187   4.031   0.710  13.341 -0.2502 -0.0364  0.5860
 8899TIP3    H148188   4.109   0.765  13.335  1.4544 -2.3061  0.2534
 8899TIP3    H248189   4.021   0.673  13.253 -1.2323 -0.3850  0.8313
 8900TIP3   OH248190   0.716   5.210   2.151 -0.8467  0.6577  0.0313
 8900TIP3    H148191   0.656   5.150   2.108  1.6496 -2.5094  0.5684
 8900TIP3    H248192   0.802   5.168   2.143  0.8815  3.5510  1.6709
 8901TIP3   OH248193   5.955   6.558   5.234  0.4258 -0.1841 -0.2759
 8901TIP3    H148194   5.994   6.589   5.152  0.4123 -0.9488 -0.5793
 8901TIP3    H248195   5.990   6.470   5.245  1.3168  0.3049  1.1272
 8902TIP3   OH248196   6.725   5.387   4.979 -0.2270 -0.3474  0.2810
 8902TIP3    H148197   6.695   5.416   4.893  0.4848 -0.6770 -0.0892
 8902TIP3    H248198   6.715   5.292   4.977  1.8281 -0.5979 -0.2711
 8903TIP3   OH248199   1.228   4.364   1.421 -0.1079  0.2784  0.0578
 8903TIP3    H148200   1.260   4.278   1.451 -0.6830 -0.1791 -0.6092
 8903TIP3    H248201   1.308   4.416   1.410  0.3435 -0.4844 -0.4586
 8904TIP3   OH248202   2.724   5.274   1.487 -0.9563  0.1375 -0.0490
 8904TIP3    H148203   2.695   5.282   1.577  1.2548  2.4104  0.5747
 8904TIP3    H248204   2.715   5.363   1.451 -2.7747 -0.9051 -2.4685
 8905TIP3   OH248205   3.429   1.638  13.563 -0.9023  0.0309 -0.0630
 8905TIP3    H148206   3.428   1.729  13.593 -2.4289 -0.0396  0.1935
 8905TIP3    H248207   3.362   1.595  13.617  1.5526 -1.8934  1.6839
 8906TIP3   OH248208   0.968   0.143  16.792  0.4178 -0.3219  0.0241
 8906TIP3    H148209   0.958   0.173  16.882  1.5839 -0.6311  0.2777
 8906TIP3    H248210   1.008   0.056  16.800  1.7562  0.1853 -0.7930
 8907TIP3   OH248211   0.235   4.755   0.758  0.3629  0.2971  0.0015
 8907TIP3    H148212   0.296   4.739   0.830 -0.6311 -3.8989  0.1579
 8907TIP3    H248213   0.251   4.683   0.697 -1.7112  1.3373 -1.8960
 8908TIP3   OH248214   2.555   3.616   1.093 -0.1880 -0.0558  0.4189
 8908TIP3    H148215   2.559   3.643   1.185  0.5011  1.1239  0.0639
 8908TIP3    H248216   2.558   3.698   1.044  0.8329 -0.7260 -0.6966
 8909TIP3   OH248217   2.620   1.409  15.204  0.0506 -0.5883  0.4766
 8909TIP3    H148218   2.565   1.476  15.243 -0.5180 -0.6830 -0.1302
 8909TIP3    H248219   2.703   1.415  15.251  0.4433  1.3514 -0.3541
 8910TIP3   OH248220   6.576   3.295   5.821 -0.9444 -0.0616  0.0179
 8910TIP3    H148221   6.623   3.337   5.749 -1.3010 -0.3227 -0.3694
 8910TIP3    H248222   6.644   3.251   5.872 -0.7104  0.0052 -0.2385
 8911TIP3   OH248223   5.668   6.746  10.716 -0.1307 -0.6477 -0.3575
 8911TIP3    H148224   5.623   6.828  10.694 -1.5778 -1.1463  0.6014
 8911TIP3    H248225   5.608   6.678  10.687  1.4947 -1.4494 -2.0681
 8912TIP3   OH248226   6.418   3.423   4.523 -0.3912  0.1731 -0.3602
 8912TIP3    H148227   6.333   3.421   4.567 -0.1219 -0.8154  0.1587
 8912TIP3    H248228   6.402   3.385   4.437 -0.4878  0.0322 -0.2800
 8913TIP3   OH248229   1.933   3.609   1.584  0.3100  0.3587 -0.4203
 8913TIP3    H148230   1.958   3.695   1.549  1.4292  0.2420  0.0524
 8913TIP3    H248231   2.011   3.579   1.631 -0.9956  0.3216  1.8192
 8914TIP3   OH248232   5.572   0.153  14.730  0.1335  0.0830 -0.6041
 8914TIP3    H148233   5.576   0.061  14.706  1.0388  0.1821 -0.8424
 8914TIP3    H248234   5.620   0.159  14.813  0.0845  0.3479 -0.5915
 8915TIP3   OH248235   5.064   2.519  15.148  0.6368 -0.3574  0.6317
 8915TIP3    H148236   5.132   2.575  15.109 -0.1746  0.7259  0.7436
 8915TIP3    H248237   5.013   2.578  15.203 -1.7792 -0.6585 -1.1604
 8916TIP3   OH248238   3.579   0.369   0.453  0.0126  0.8229 -0.3669
 8916TIP3    H148239   3.625   0.321   0.521  0.4323  1.1544 -0.4120
 8916TIP3    H248240   3.614   0.458   0.458 -0.1794  0.9272 -0.8097
 8917TIP3   OH248241   2.502   5.322  13.982 -0.3730  0.1339 -0.2695
 8917TIP3    H148242   2.483   5.324  13.888  2.1655 -0.6000 -0.8816
 8917TIP3    H248243   2.532   5.233  13.998 -0.3077  0.3889  1.1542
 8918TIP3   OH248244   2.824   1.115   4.194  0.2786  0.3755  0.1809
 8918TIP3    H148245   2.892   1.169   4.153 -0.4953  0.2596 -1.3181
 8918TIP3    H248246   2.800   1.163   4.273  0.7637  1.3911 -0.2659
 8919TIP3   OH248247   0.580   1.103   5.254  0.3954 -0.5582 -0.8755
 8919TIP3    H148248   0.551   1.017   5.286  0.5212 -0.8747 -1.6010
 8919TIP3    H248249   0.509   1.163   5.279  0.1741 -0.9225 -0.6166
 8920TIP3   OH248250   3.657   5.273  15.446 -0.0618  0.5397  0.2334
 8920TIP3    H148251   3.735   5.310  15.405 -0.3994  0.2128 -0.7313
 8920TIP3    H248252   3.617   5.219  15.377 -0.4012 -0.3847  1.1406
 8921TIP3   OH248253   4.062   1.263   5.304  0.1021  0.4725  0.1209
 8921TIP3    H148254   4.124   1.265   5.377  0.4395  1.5985 -0.1680
 8921TIP3    H248255   4.104   1.315   5.236 -0.7645  0.4868 -0.4163
 8922TIP3   OH248256   6.750   3.252  12.316 -0.2093  0.2250  0.1863
 8922TIP3    H148257   6.835   3.280  12.350 -0.8452 -0.7178  2.8352
 8922TIP3    H248258   6.768   3.168  12.274  0.3042  0.4855 -0.1243
 8923TIP3   OH248259   1.418   1.663  12.082  0.2340  0.0704  0.4291
 8923TIP3    H148260   1.389   1.675  11.992 -0.2408  0.0835  0.5826
 8923TIP3    H248261   1.417   1.751  12.119 -2.9851 -0.2854  1.4776
 8924TIP3   OH248262   2.485   0.708   2.874  0.0853 -0.4234  0.0894
 8924TIP3    H148263   2.493   0.646   2.947 -0.8166  0.3723  0.8998
 8924TIP3    H248264   2.410   0.764   2.898  1.7477  1.9444  0.1398
 8925TIP3   OH248265   3.500   4.450  11.767 -0.1787 -0.0054 -0.4383
 8925TIP3    H148266   3.509   4.379  11.703 -0.4901 -0.4288 -0.0262
 8925TIP3    H248267   3.546   4.417  11.845 -0.4679  0.1748 -0.1898
 8926TIP3   OH248268   0.886   0.493   5.344  0.1175  0.0392  0.2104
 8926TIP3    H148269   0.957   0.549   5.314  0.9909 -0.4322  1.3314
 8926TIP3    H248270   0.848   0.457   5.264  1.2188  0.1880 -0.3916
 8927TIP3   OH248271   1.229   4.269  11.008 -0.6917 -0.0445 -0.1507
 8927TIP3    H148272   1.316   4.304  10.993 -0.5529  0.5305  1.7874
 8927TIP3    H248273   1.219   4.200  10.942  1.0641  0.1324 -0.6339
 8928TIP3   OH248274   5.525   5.842  17.424 -0.0771  0.0666 -0.1015
 8928TIP3    H148275   5.449   5.784  17.435 -1.1299  1.3169 -0.4483
 8928TIP3    H248276   5.574   5.833  17.506 -1.2210  0.0672  0.6080
 8929TIP3   OH248277   0.752   3.003  14.556  0.7070  0.3614 -0.1738
 8929TIP3    H148278   0.781   3.040  14.640  1.6952  0.6369 -0.6212
 8929TIP3    H248279   0.777   3.068  14.491 -0.3211  0.2807 -0.6640
 8930TIP3   OH248280   1.259   2.197  16.053  0.5458  0.8466 -0.0917
 8930TIP3    H148281   1.220   2.134  16.115 -1.4392  1.7126 -0.3649
 8930TIP3    H248282   1.254   2.153  15.968  0.9046  0.6479 -0.0103
 8931TIP3   OH248283   0.246   0.328  15.301 -0.5166 -0.3717 -0.2197
 8931TIP3    H148284   0.295   0.272  15.241  2.3911  0.9312  0.7634
 8931TIP3    H248285   0.272   0.417  15.277 -2.6477  0.4377  0.2408
 8932TIP3   OH248286   1.504   3.701  15.518 -0.8724 -0.3610 -0.1542
 8932TIP3    H148287   1.542   3.647  15.587  0.7806  0.9676  0.0322
 8932TIP3    H248288   1.489   3.640  15.446 -0.5906 -1.3534  0.6002
 8933TIP3   OH248289   4.897   5.188   6.308 -0.3363  0.3487  0.3038
 8933TIP3    H148290   4.822   5.165   6.254  0.1920 -0.8398  0.0377
 8933TIP3    H248291   4.878   5.150   6.394  0.3108 -0.6965  0.0051
 8934TIP3   OH248292   6.319   5.621  11.676 -0.7121 -0.3260 -0.4362
 8934TIP3    H148293   6.253   5.612  11.744 -1.2470  0.4666 -0.8335
 8934TIP3    H248294   6.308   5.543  11.622 -0.8173 -0.5649 -0.0698
 8935TIP3   OH248295   6.588   0.121   4.446  0.7096  0.0030  0.2316
 8935TIP3    H148296   6.640   0.187   4.492  0.2764  1.4366 -1.2542
 8935TIP3    H248297   6.499   0.155   4.447  0.1285 -1.4514  0.9821
 8936TIP3   OH248298   3.043   1.738   4.367 -0.4191  1.0521 -0.8316
 8936TIP3    H148299   3.136   1.757   4.355 -0.5504  1.3824 -1.3820
 8936TIP3    H248300   3.029   1.654   4.323  0.0179 -0.0356  0.9982
 8937TIP3   OH248301   6.540   1.277  12.843  0.3277 -0.7944 -0.2397
 8937TIP3    H148302   6.573   1.323  12.920 -0.5281 -0.9480  0.2413
 8937TIP3    H248303   6.604   1.294  12.774 -0.4181  1.9080 -0.3685
 8938TIP3   OH248304   4.254   3.146  13.413 -0.1611 -0.3508 -1.1483
 8938TIP3    H148305   4.262   3.234  13.451 -0.3946 -0.0848 -1.7091
 8938TIP3    H248306   4.304   3.150  13.331  1.2069 -1.2182 -0.4060
 8939TIP3   OH248307   4.321   0.340  10.896 -0.3888  0.1266  0.0328
 8939TIP3    H148308   4.404   0.375  10.862 -0.4396  0.3587  0.1472
 8939TIP3    H248309   4.257   0.408  10.879 -0.6277 -0.1893 -0.3583
 8940TIP3   OH248310   5.548   2.108  12.765 -0.0267 -0.6110  0.0759
 8940TIP3    H148311   5.478   2.070  12.712  0.1480 -0.0735 -0.5535
 8940TIP3    H248312   5.518   2.098  12.855 -1.2184  0.1743 -0.2131
 8941TIP3   OH248313   2.353   5.953  12.461  0.1134  0.5233  0.8399
 8941TIP3    H148314   2.322   5.918  12.545 -0.6833  0.5858  0.5783
 8941TIP3    H248315   2.423   6.013  12.485 -0.0738  0.4994  1.4624
 8942TIP3   OH248316   1.544   1.037   5.008 -0.4368 -0.5840 -0.4104
 8942TIP3    H148317   1.605   1.076   5.070 -0.4809 -1.2962  0.0962
 8942TIP3    H248318   1.573   0.946   5.000  0.9651 -0.0038 -3.1858
 8943TIP3   OH248319   2.827   2.560  17.033  0.7555  0.2957 -0.5637
 8943TIP3    H148320   2.765   2.490  17.008  0.2477  0.9753 -1.2676
 8943TIP3    H248321   2.816   2.569  17.127 -1.1687  1.2481 -0.8297
 8944TIP3   OH248322   1.005   2.034  14.523  0.1796  0.1860 -0.1490
 8944TIP3    H148323   0.960   1.971  14.580  0.8595  1.5692  2.0225
 8944TIP3    H248324   0.958   2.029  14.439 -3.4580  0.8878  1.6686
 8945TIP3   OH248325   1.893   0.906   2.920 -0.1207  0.1850 -0.3873
 8945TIP3    H148326   1.911   0.820   2.882  0.6627  0.5202 -0.8030
 8945TIP3    H248327   1.806   0.897   2.960 -0.5210 -0.4807 -1.3660
 8946TIP3   OH248328   1.988   2.534  16.707 -0.1110  0.1240  0.1434
 8946TIP3    H148329   2.049   2.505  16.638 -0.6147 -0.4800 -0.0537
 8946TIP3    H248330   1.906   2.549  16.660 -0.2240  0.5447  0.4798
 8947TIP3   OH248331   1.695   6.123   5.170  0.6678  0.2511  0.5866
 8947TIP3    H148332   1.738   6.129   5.085 -0.2734  1.4837  0.1581
 8947TIP3    H248333   1.756   6.164   5.231  0.5961  0.9671  0.1837
 8948TIP3   OH248334   5.742   2.677   2.811  0.0089 -0.1560 -0.8975
 8948TIP3    H148335   5.671   2.690   2.875 -0.3057 -1.4738 -0.9494
 8948TIP3    H248336   5.809   2.628   2.859  1.0491  1.3302 -0.7626
 8949TIP3   OH248337   0.950   1.845  14.824  0.0896 -0.0737 -0.2847
 8949TIP3    H148338   0.891   1.794  14.770  0.2243 -0.9788  0.4021
 8949TIP3    H248339   1.038   1.821  14.794  0.1376  0.3972 -0.5290
 8950TIP3   OH248340   6.724   0.328   3.624 -0.1244 -0.1881 -0.2833
 8950TIP3    H148341   6.786   0.293   3.561  0.9391  0.6534  0.2613
 8950TIP3    H248342   6.677   0.397   3.577  2.0323  1.8225  0.3041
 8951TIP3   OH248343   3.557   2.029   3.679  0.7521  0.0703  0.1704
 8951TIP3    H148344   3.510   2.018   3.761  0.5890 -0.1479  0.0499
 8951TIP3    H248345   3.619   1.956   3.677 -2.1616 -2.6280 -1.8859
 8952TIP3   OH248346   1.086   2.908  11.529 -0.1654 -0.0959 -0.1970
 8952TIP3    H148347   1.096   2.876  11.439 -0.7011  1.6363 -0.9241
 8952TIP3    H248348   1.169   2.885  11.572  0.2241 -0.6860 -1.2168
 8953TIP3   OH248349   1.480   4.848  11.088  0.1862  0.2979 -0.2080
 8953TIP3    H148350   1.570   4.818  11.074 -0.1834 -0.2109 -1.6311
 8953TIP3    H248351   1.425   4.777  11.055 -0.7366  1.0997 -0.4510
 8954TIP3   OH248352   1.665   2.251   4.843 -0.1375  0.6436 -0.0593
 8954TIP3    H148353   1.696   2.338   4.818 -0.1843  0.8583  0.6254
 8954TIP3    H248354   1.675   2.248   4.938 -1.5558  0.4740  0.1051
 8955TIP3   OH248355   6.639   2.269  15.184  0.0875 -0.1957  0.1899
 8955TIP3    H148356   6.649   2.206  15.255 -1.7279 -1.4202 -0.5767
 8955TIP3    H248357   6.672   2.223  15.107  4.2704  1.9046  0.4038
 8956TIP3   OH248358   6.136   2.985  15.193  0.0776  1.0609  0.2002
 8956TIP3    H148359   6.200   3.040  15.239  0.5308  0.0539  0.7932
 8956TIP3    H248360   6.187   2.910  15.163 -0.8483  0.1990  0.7633
 8957TIP3   OH248361   6.644   5.257  16.720 -0.4111  0.0575  0.1485
 8957TIP3    H148362   6.575   5.285  16.660  0.7114  1.4267 -0.5385
 8957TIP3    H248363   6.642   5.161  16.715  0.3843  0.0969 -2.9996
 8958TIP3   OH248364   3.372   4.882  13.392  0.0403  0.0334 -0.2572
 8958TIP3    H148365   3.373   4.976  13.411  0.6302 -0.3665  2.0862
 8958TIP3    H248366   3.464   4.857  13.391 -0.1565 -0.8405  1.1784
 8959TIP3   OH248367   5.863   1.763  16.679  0.0636  0.1925  0.1911
 8959TIP3    H148368   5.798   1.813  16.728  0.6932  0.7393  0.4845
 8959TIP3    H248369   5.843   1.671  16.700 -1.2215  0.2861 -0.5174
 8960TIP3   OH248370   3.739   6.747  15.211 -0.2243  0.1022  0.0503
 8960TIP3    H148371   3.809   6.758  15.275 -0.7595  0.4278  0.5881
 8960TIP3    H248372   3.703   6.834  15.198 -0.2186  0.0164 -0.5904
 8961TIP3   OH248373   0.562   1.755   5.092  0.6381  0.1720  0.5898
 8961TIP3    H148374   0.517   1.836   5.068  2.6326  1.3268  0.5489
 8961TIP3    H248375   0.510   1.718   5.163 -0.6898  1.1023  0.1423
 8962TIP3   OH248376   4.339   5.551  13.119  0.1487  0.0618  0.2941
 8962TIP3    H148377   4.378   5.493  13.053  0.1982 -0.3723  0.6979
 8962TIP3    H248378   4.342   5.638  13.080 -1.5076 -0.4305 -1.0769
 8963TIP3   OH248379   5.327   2.585  14.547 -0.3259 -0.1093 -0.3216
 8963TIP3    H148380   5.380   2.508  14.568  1.0868  1.8614  4.9091
 8963TIP3    H248381   5.389   2.646  14.508 -0.3139 -0.0906 -0.2749
 8964TIP3   OH248382   5.605   6.667   3.805  0.0097 -0.6293  0.4874
 8964TIP3    H148383   5.597   6.645   3.712  2.0944  0.6228 -0.0340
 8964TIP3    H248384   5.674   6.609   3.838  0.1204 -0.2212  0.9880
 8965TIP3   OH248385   2.455   1.499   0.258 -0.2233 -0.1482  0.3130
 8965TIP3    H148386   2.453   1.472   0.350 -0.5733  0.1185  0.3828
 8965TIP3    H248387   2.494   1.424   0.213 -1.7298 -1.0410  0.4167
 8966TIP3   OH248388   2.089   1.734  15.623 -0.0716  0.1951 -0.0961
 8966TIP3    H148389   2.059   1.819  15.655  3.1922  1.1941  0.7047
 8966TIP3    H248390   2.091   1.678  15.701 -0.0617  0.0895 -0.1720
 8967TIP3   OH248391   6.723   5.625  14.551  0.4582  0.0102 -0.2889
 8967TIP3    H148392   6.768   5.707  14.568  3.1288 -1.0390 -1.7131
 8967TIP3    H248393   6.777   5.580  14.486 -0.3465 -3.2941  1.0776
 8968TIP3   OH248394   6.707   1.938  14.987 -0.0810  0.1303  0.6516
 8968TIP3    H148395   6.629   1.985  14.956 -1.2665 -2.5371 -0.7274
 8968TIP3    H248396   6.779   2.000  14.973 -1.3655  1.1648 -2.1546
 8969TIP3   OH248397   1.449   3.040  14.254  0.6433  0.0268 -0.0770
 8969TIP3    H148398   1.416   2.985  14.183  1.5880  2.4779 -2.6331
 8969TIP3    H248399   1.488   2.979  14.317  1.2782 -2.2448 -2.5152
 8970TIP3   OH248400   6.457   5.899   2.770 -0.5177 -0.1972 -0.0531
 8970TIP3    H148401   6.520   5.843   2.724  0.5098  0.3102  0.6843
 8970TIP3    H248402   6.491   5.905   2.859 -2.1288 -0.6430  0.6260
 8971TIP3   OH248403   4.489   1.778  14.999 -0.2472 -0.6711  0.4150
 8971TIP3    H148404   4.409   1.816  14.963  0.6147 -0.0331 -0.9011
 8971TIP3    H248405   4.486   1.686  14.973 -0.0501 -0.4093 -0.5620
 8972TIP3   OH248406   1.088   6.262   0.081 -0.5992  0.4107  0.4851
 8972TIP3    H148407   1.025   6.247   0.151 -0.2243  0.2832  0.8023
 8972TIP3    H248408   1.132   6.177   0.069 -0.9593  0.3135 -0.2087
 8973TIP3   OH248409   0.447   3.157  12.293 -0.1957 -0.7098 -0.0551
 8973TIP3    H148410   0.440   3.237  12.240 -0.4120 -0.7684 -0.1129
 8973TIP3    H248411   0.419   3.184  12.380 -0.3413 -0.7399 -0.0924
 8974TIP3   OH248412   6.388   3.159   4.926 -0.1967 -0.0208  0.1500
 8974TIP3    H148413   6.371   3.157   4.832 -0.5349  0.1816  0.2078
 8974TIP3    H248414   6.484   3.156   4.933 -0.1512  0.6023 -0.2122
 8975TIP3   OH248415   5.997   3.308   0.161 -0.5640  0.3759 -0.7397
 8975TIP3    H148416   5.960   3.251   0.228 -1.6676  1.9252  0.0508
 8975TIP3    H248417   6.023   3.250   0.090  0.0457 -1.2523  0.7678
 8976TIP3   OH248418   5.001   1.174  13.092 -0.0123 -0.0307  0.0368
 8976TIP3    H148419   4.976   1.108  13.028  1.3215 -0.2729 -0.2618
 8976TIP3    H248420   5.088   1.147  13.122  0.6170  1.6375 -0.1857
 8977TIP3   OH248421   4.326   1.448   4.725 -0.2590 -0.1756 -0.5532
 8977TIP3    H148422   4.385   1.418   4.794 -0.4171 -1.3271 -0.9018
 8977TIP3    H248423   4.315   1.542   4.742  2.9148  0.4560 -1.4230
 8978TIP3   OH248424   4.008   5.175  17.269  0.1555 -0.2395 -0.6135
 8978TIP3    H148425   4.006   5.109  17.338 -0.7609 -1.9956 -2.2144
 8978TIP3    H248426   4.084   5.151  17.216  0.3167  0.5284 -0.7370
 8979TIP3   OH248427   4.121   2.370   3.574  0.2748  0.3256 -0.2649
 8979TIP3    H148428   4.086   2.301   3.629 -0.5339 -0.3048 -1.5208
 8979TIP3    H248429   4.185   2.326   3.517 -0.9607  0.3678 -1.7555
 8980TIP3   OH248430   5.841   6.639  11.046  0.0046  0.1138 -0.1522
 8980TIP3    H148431   5.893   6.565  11.013  0.4835  0.3899 -0.0294
 8980TIP3    H248432   5.903   6.712  11.049 -1.0626  1.2104 -2.6524
 8981TIP3   OH248433   1.435   2.148  12.797 -0.4498  0.1540 -0.1759
 8981TIP3    H148434   1.381   2.192  12.732  1.5693 -0.3069 -2.2671
 8981TIP3    H248435   1.497   2.215  12.827 -1.0803  0.2440  0.9994
 8982TIP3   OH248436   2.194   3.374   6.561  0.4701 -0.3689 -0.0827
 8982TIP3    H148437   2.157   3.430   6.628 -0.9963 -1.0792 -0.2429
 8982TIP3    H248438   2.239   3.433   6.501  0.3007  0.4462  0.5846
 8983TIP3   OH248439   5.330   3.242  12.625  0.1254 -0.0458 -0.5315
 8983TIP3    H148440   5.370   3.273  12.706 -0.4163 -0.5272 -0.0738
 8983TIP3    H248441   5.237   3.233  12.646 -0.2972  1.3363 -1.6569
 8984TIP3   OH248442   1.421   6.282   3.550 -0.0695  0.1918  0.0149
 8984TIP3    H148443   1.357   6.308   3.483 -0.6097  0.6997  0.7063
 8984TIP3    H248444   1.406   6.344   3.622 -0.8132 -1.5036  1.3797
 8985TIP3   OH248445   1.059   0.960   0.432  0.4402  0.6718 -0.2970
 8985TIP3    H148446   1.135   0.931   0.482  0.4400  0.0694 -0.6203
 8985TIP3    H248447   0.984   0.941   0.489  0.5487  1.5608  0.1493
 8986TIP3   OH248448   0.308   3.885   0.172 -0.0807 -0.1166  0.4289
 8986TIP3    H148449   0.213   3.894   0.174 -0.2501 -1.7997  1.1781
 8986TIP3    H248450   0.337   3.950   0.106 -1.7693 -0.0042 -0.2486
 8987TIP3   OH248451   0.094   2.722   6.342  0.2224 -0.2632  0.0745
 8987TIP3    H148452   0.155   2.728   6.268  0.7932 -0.9701  0.4837
 8987TIP3    H248453   0.129   2.653   6.397  0.2770  0.8169  1.4524
 8988TIP3   OH248454   3.587   5.316   3.676  0.3894  0.2031 -0.0096
 8988TIP3    H148455   3.630   5.392   3.717  0.0771  0.2036  0.3244
 8988TIP3    H248456   3.566   5.345   3.588 -0.2753  0.7189  0.3086
 8989TIP3   OH248457   5.112   4.320  12.189  0.6556 -0.1207  0.0812
 8989TIP3    H148458   5.053   4.371  12.244  0.3746  0.5294 -0.7948
 8989TIP3    H248459   5.189   4.377  12.177  0.4919 -0.0343 -0.6092
 8990TIP3   OH248460   2.704   4.204   1.464 -0.2833 -0.5443 -0.2385
 8990TIP3    H148461   2.727   4.258   1.540 -0.6350  0.3079 -0.7173
 8990TIP3    H248462   2.726   4.115   1.490 -1.2981 -0.3959  1.2283
 8991TIP3   OH248463   6.388   5.772   4.743  0.9385 -0.2458  0.4343
 8991TIP3    H148464   6.303   5.727   4.742  1.2173 -0.8016  0.7372
 8991TIP3    H248465   6.420   5.764   4.654  0.9988 -0.6917  0.4904
 8992TIP3   OH248466   4.698   4.119  14.749 -0.6276 -0.0286 -0.6615
 8992TIP3    H148467   4.754   4.070  14.809 -1.3294  0.0228  0.0479
 8992TIP3    H248468   4.644   4.174  14.806 -1.4080 -0.0853 -1.3278
 8993TIP3   OH248469   0.706   2.397  16.456 -0.4232  0.0627 -0.4321
 8993TIP3    H148470   0.611   2.400  16.464 -0.4248 -0.4628 -0.1976
 8993TIP3    H248471   0.739   2.441  16.535 -0.4683 -0.9085  0.1389
 8994TIP3   OH248472   1.935   0.560   0.430 -0.2193 -0.3232  0.0518
 8994TIP3    H148473   1.883   0.636   0.459 -0.9809 -0.7124 -0.2673
 8994TIP3    H248474   2.004   0.552   0.496  0.5637  1.3386 -0.5046
 8995TIP3   OH248475   4.839   6.495   0.468  0.1995  0.0018  0.1256
 8995TIP3    H148476   4.847   6.586   0.495 -3.9788  0.6666 -0.2179
 8995TIP3    H248477   4.823   6.447   0.549  2.1484 -0.4438  0.2778
 8996TIP3   OH248478   4.145   5.400   0.574 -0.4216 -0.1272  0.6181
 8996TIP3    H148479   4.081   5.342   0.533 -0.0389 -0.7319  0.8670
 8996TIP3    H248480   4.156   5.472   0.512 -0.1266 -0.8471 -0.1738
 8997TIP3   OH248481   3.580   0.378   3.278  0.5696 -0.0457  0.1785
 8997TIP3    H148482   3.498   0.394   3.233 -0.1844 -1.0269  1.1446
 8997TIP3    H248483   3.633   0.329   3.215  0.9624  1.7399 -0.9292
 8998TIP3   OH248484   3.777   4.389  14.823 -0.2274  0.2001  0.3069
 8998TIP3    H148485   3.706   4.382  14.759 -1.7800 -1.5019  2.0832
 8998TIP3    H248486   3.853   4.352  14.778 -1.3789 -1.3800 -0.4365
 8999TIP3   OH248487   3.139   1.553   0.680 -0.3620  0.1164  0.6566
 8999TIP3    H148488   3.165   1.636   0.721 -0.3779  0.6269 -0.3392
 8999TIP3    H248489   3.214   1.529   0.625  0.2017 -1.2454  1.9559
 9000TIP3   OH248490   6.343   2.823   2.040 -0.3832 -0.1093  0.3077
 9000TIP3    H148491   6.300   2.898   1.998  1.3334  0.3558 -0.7041
 9000TIP3    H248492   6.363   2.764   1.968  0.9019 -0.1830  0.7108
 9001TIP3   OH248493   3.001   1.018  11.346 -0.0274  0.4420 -0.1445
 9001TIP3    H148494   3.059   0.973  11.407  1.1111  3.1437  0.9470
 9001TIP3    H248495   2.995   0.959  11.271  4.7530  0.2070 -0.6517
 9002TIP3   OH248496   3.703   1.443   2.341  0.2138 -0.5500 -0.0774
 9002TIP3    H148497   3.668   1.384   2.408 -0.7318 -0.8064 -0.7811
 9002TIP3    H248498   3.684   1.531   2.374  2.4415 -0.5458  1.4223
 9003TIP3   OH248499   3.522   4.153  14.904  0.3560 -0.4676 -0.2961
 9003TIP3    H148500   3.497   4.129  14.994  0.4003  1.0875  0.1656
 9003TIP3    H248501   3.470   4.231  14.885  2.1545  0.6894 -0.6720
 9004TIP3   OH248502   0.927   5.198  15.556  0.3462  0.1662 -0.9814
 9004TIP3    H148503   0.998   5.172  15.497  0.8839 -0.1210 -0.2131
 9004TIP3    H248504   0.968   5.257  15.618  0.5010 -1.8740  0.9712
 9005TIP3   OH248505   4.315   0.428   5.080 -0.0493  0.7470 -0.4717
 9005TIP3    H148506   4.386   0.491   5.068  2.3343 -1.7128 -0.0960
 9005TIP3    H248507   4.259   0.440   5.003  2.3586  0.8244 -2.3169
 9006TIP3   OH248508   0.466   3.858  13.617  0.3551  0.5001  0.2064
 9006TIP3    H148509   0.510   3.943  13.611  0.2394  0.5186 -0.3852
 9006TIP3    H248510   0.425   3.859  13.704  0.6010  0.9281  0.3214
 9007TIP3   OH248511   3.361   5.761   3.859 -0.4550  0.4481  0.1768
 9007TIP3    H148512   3.373   5.852   3.833 -0.0447  0.1097 -0.8757
 9007TIP3    H248513   3.449   5.730   3.879 -0.6404  0.3890  0.9209
 9008TIP3   OH248514   2.333   3.169   2.766  0.0375  0.0345  0.1489
 9008TIP3    H148515   2.245   3.159   2.802  0.0864 -1.7710 -0.1322
 9008TIP3    H248516   2.333   3.119   2.685  0.9211  1.2404 -0.6427
 9009TIP3   OH248517   0.038   0.591   4.193 -0.6382  0.1525  0.3322
 9009TIP3    H148518   0.113   0.572   4.136 -1.6908  0.0499 -1.0905
 9009TIP3    H248519   0.073   0.651   4.259  0.8052 -0.2792 -0.0020
 9010TIP3   OH248520   2.159   2.245  15.321 -0.1330  0.3963  0.1468
 9010TIP3    H148521   2.187   2.335  15.303 -0.9959  0.4114 -1.3022
 9010TIP3    H248522   2.236   2.192  15.303 -0.2017  0.6777 -1.0942
 9011TIP3   OH248523   1.364   2.667  11.209  0.0892  0.5258 -0.0009
 9011TIP3    H148524   1.373   2.607  11.135 -1.1389 -1.7818  1.6137
 9011TIP3    H248525   1.270   2.675  11.222  0.2746  1.4972  0.8703
 9012TIP3   OH248526   0.162   2.373  16.749 -0.1166  0.0447 -0.2719
 9012TIP3    H148527   0.256   2.370  16.766 -0.2007  1.1107  0.4575
 9012TIP3    H248528   0.124   2.406  16.830 -1.2118 -1.0964 -0.2852
 9013TIP3   OH248529   2.416   6.604   1.527 -0.3370  0.0501 -0.9028
 9013TIP3    H148530   2.439   6.668   1.460  0.8181 -0.3394 -0.8968
 9013TIP3    H248531   2.384   6.529   1.477  0.5136 -0.2368 -1.0426
 9014TIP3   OH248532   0.736   0.409  14.582  0.3779  0.1162 -0.0890
 9014TIP3    H148533   0.753   0.499  14.612 -0.7694  0.5123 -0.5715
 9014TIP3    H248534   0.738   0.356  14.661 -4.3408  1.3667  1.1867
 9015TIP3   OH248535   0.955   2.563   0.484  0.8575  0.0059  0.0048
 9015TIP3    H148536   0.934   2.601   0.569  1.1922 -2.7041  1.4197
 9015TIP3    H248537   1.004   2.632   0.439  0.0098  1.8032  1.6622
 9016TIP3   OH248538   5.212   0.562  16.464 -0.1576  0.3343 -0.0592
 9016TIP3    H148539   5.184   0.639  16.416 -1.0857  0.4652  0.6641
 9016TIP3    H248540   5.308   0.565  16.461 -0.1706  1.7431  0.2978
 9017TIP3   OH248541   0.584   4.335   5.178 -0.3396  0.2752  0.0785
 9017TIP3    H148542   0.676   4.323   5.155  0.2408  1.9944  1.3430
 9017TIP3    H248543   0.558   4.251   5.217  0.2345 -0.7344 -1.6041
 9018TIP3   OH248544   4.302   3.992  10.873 -0.5492 -0.2893 -0.1387
 9018TIP3    H148545   4.367   4.060  10.855  0.1322 -1.5022 -2.6940
 9018TIP3    H248546   4.228   4.015  10.816 -0.0044 -2.0206 -1.6356
 9019TIP3   OH248547   2.191   4.606  14.543  0.5687  0.1657  0.5492
 9019TIP3    H148548   2.143   4.561  14.473  1.8647  1.4134 -1.2446
 9019TIP3    H248549   2.126   4.622  14.611 -0.8905 -0.5903 -0.6196
 9020TIP3   OH248550   3.323   2.384   1.120  0.3590 -0.5975 -0.1923
 9020TIP3    H148551   3.402   2.420   1.159 -1.1927  0.0440  2.6308
 9020TIP3    H248552   3.266   2.366   1.194 -1.5159 -2.6616 -1.9977
 9021TIP3   OH248553   5.214   4.762   5.277 -0.8215  0.2866  0.1489
 9021TIP3    H148554   5.224   4.816   5.199 -0.6639 -0.9121 -0.6869
 9021TIP3    H248555   5.300   4.720   5.289 -0.8764  0.3695  0.8987
 9022TIP3   OH248556   2.598   5.166  11.810 -0.2335  0.1147  0.0441
 9022TIP3    H148557   2.555   5.236  11.859 -0.3667  0.5716 -0.7045
 9022TIP3    H248558   2.541   5.091  11.820 -0.6078  0.3935  0.0248
 9023TIP3   OH248559   6.049   1.006   1.326  0.0832 -0.4649  0.4546
 9023TIP3    H148560   6.140   0.987   1.301  0.2462  0.5188  0.2475
 9023TIP3    H248561   6.054   1.028   1.419 -0.4009 -3.3005  1.2371
 9024TIP3   OH248562   3.424   5.068  15.834 -0.3536  0.3426 -0.4619
 9024TIP3    H148563   3.476   5.009  15.889 -1.4618  1.0500  1.4569
 9024TIP3    H248564   3.374   5.011  15.777 -1.4628 -0.6714  1.4034
 9025TIP3   OH248565   4.985   5.952   1.004 -0.9613  0.4154 -0.3221
 9025TIP3    H148566   4.937   5.920   0.927 -0.4203 -1.5994  0.1119
 9025TIP3    H248567   5.064   5.992   0.967 -0.2630 -1.3267 -0.8460
 9026TIP3   OH248568   2.827   0.506   4.286  0.2141  0.9346  0.2232
 9026TIP3    H148569   2.805   0.596   4.310  1.3143  1.7257 -1.5579
 9026TIP3    H248570   2.921   0.500   4.303  0.3140  0.3966 -0.4950
 9027TIP3   OH248571   4.231   6.686   5.796  0.2548  0.5552  0.1936
 9027TIP3    H148572   4.216   6.603   5.752  0.2106 -0.0407  1.3000
 9027TIP3    H248573   4.238   6.663   5.889 -1.5749  2.0078  0.7415
 9028TIP3   OH248574   0.030   1.783   5.663  0.6606 -0.3821  0.0228
 9028TIP3    H148575   0.065   1.793   5.575 -0.1163 -0.0728 -0.2571
 9028TIP3    H248576   0.022   1.688   5.675  1.8726 -0.4729  0.2144
 9029TIP3   OH248577   2.847   4.575   0.398 -0.0713  0.6452  0.0320
 9029TIP3    H148578   2.925   4.607   0.352 -0.4162  0.9849 -0.3295
 9029TIP3    H248579   2.863   4.597   0.490  1.5556 -1.8711  0.4405
 9030TIP3   OH248580   0.138   0.886   6.179 -0.2302  0.2320  0.2383
 9030TIP3    H148581   0.130   0.792   6.195 -0.0681  0.6514  3.3492
 9030TIP3    H248582   0.052   0.921   6.201  0.2727  0.9924  1.0882
 9031TIP3   OH248583   3.767   6.204  16.590 -0.4305 -0.4034  0.1829
 9031TIP3    H148584   3.700   6.252  16.639  0.0455 -0.2321  0.6845
 9031TIP3    H248585   3.786   6.127  16.643 -0.6508 -0.7542 -0.2471
 9032TIP3   OH248586   1.521   5.376   5.915  0.4608 -0.0919  0.0283
 9032TIP3    H148587   1.609   5.337   5.914  0.2200 -0.6509  0.1490
 9032TIP3    H248588   1.533   5.462   5.955  1.0990  0.1947 -0.7519
 9033TIP3   OH248589   4.331   4.265   1.327  0.0421  0.2096 -0.6495
 9033TIP3    H148590   4.250   4.218   1.350  0.0138 -0.1075 -1.3793
 9033TIP3    H248591   4.356   4.229   1.242  1.0733  0.1555 -0.3296
 9034TIP3   OH248592   1.432   4.615   4.278 -0.0195  0.0619 -0.4987
 9034TIP3    H148593   1.430   4.610   4.373  2.5073  3.1425 -0.1243
 9034TIP3    H248594   1.478   4.536   4.251  0.3112 -0.2572  0.9199
 9035TIP3   OH248595   3.272   3.845  13.527  0.0793 -0.0622 -0.7478
 9035TIP3    H148596   3.360   3.808  13.522  0.1635  0.2588 -1.7060
 9035TIP3    H248597   3.238   3.812  13.610  0.8720 -0.6968 -0.6589
 9036TIP3   OH248598   3.121   1.429  17.162  0.6463 -0.1715 -0.0538
 9036TIP3    H148599   3.099   1.451  17.072 -1.5047  0.2412  0.4961
 9036TIP3    H248600   3.166   1.506  17.196  0.6194  0.0507 -0.5227
 9037TIP3   OH248601   3.332   0.595  17.352 -0.1520 -0.1539 -0.4430
 9037TIP3    H148602   3.359   0.680  17.387 -0.9993  0.2295 -0.7142
 9037TIP3    H248603   3.402   0.536  17.379  0.4439  0.6197 -0.2375
 9038TIP3   OH248604   2.530   6.609  10.884  0.1580  0.3178  0.3778
 9038TIP3    H148605   2.550   6.628  10.976 -2.8999  0.6689  1.0927
 9038TIP3    H248606   2.487   6.688  10.852 -0.7750 -0.5718 -0.6578
 9039TIP3   OH248607   1.776   0.677   3.110 -0.0073  0.0907  0.8388
 9039TIP3    H148608   1.761   0.585   3.128  2.1155 -0.7254 -1.0293
 9039TIP3    H248609   1.807   0.679   3.019  1.0357  2.5099  1.1651
 9040TIP3   OH248610   2.431   6.754  15.483 -0.3330 -0.1977  0.3676
 9040TIP3    H148611   2.435   6.712  15.397 -0.7137 -1.1643  0.8073
 9040TIP3    H248612   2.443   6.682  15.545  1.8936  0.7583  1.1214
 9041TIP3   OH248613   0.250   3.280  13.805  0.1522  0.2090  0.2384
 9041TIP3    H148614   0.272   3.219  13.734  0.0763  0.0159  0.3804
 9041TIP3    H248615   0.159   3.258  13.827 -0.0607  0.7395 -0.0817
 9042TIP3   OH248616   5.005   5.748  16.931  0.6316 -0.0136  0.1005
 9042TIP3    H148617   5.077   5.805  16.956  3.2011 -1.5770 -2.9821
 9042TIP3    H248618   4.926   5.801  16.944  2.3241  2.1505  2.6387
 9043TIP3   OH248619   4.745   3.033   4.651  0.2952  0.1506  0.4934
 9043TIP3    H148620   4.755   3.013   4.558 -0.1991  2.1693 -0.0520
 9043TIP3    H248621   4.747   3.129   4.654 -0.9452  0.1529  2.4158
 9044TIP3   OH248622   4.223   5.286   4.357  0.4340  0.0872 -0.4577
 9044TIP3    H148623   4.286   5.223   4.392 -1.1856 -0.5674  1.4463
 9044TIP3    H248624   4.264   5.372   4.372  0.0240 -0.1733  2.8823
 9045TIP3   OH248625   3.469   4.602   5.295  0.4336  0.4265  0.0523
 9045TIP3    H148626   3.383   4.644   5.291  0.7044  1.0563  0.5719
 9045TIP3    H248627   3.477   4.572   5.386 -0.1902 -1.7309 -0.5566
 9046TIP3   OH248628   5.954   6.036  11.286  0.4984 -0.6336  0.4322
 9046TIP3    H148629   6.039   6.009  11.321  0.4186 -0.3048  0.8902
 9046TIP3    H248630   5.976   6.099  11.217  0.6243 -0.4730  0.6173
 9047TIP3   OH248631   0.654   5.626   0.274 -0.4924  0.2759 -0.1090
 9047TIP3    H148632   0.651   5.615   0.179  3.6715  0.4826 -0.4735
 9047TIP3    H248633   0.651   5.721   0.288  0.0816  0.3135 -0.1929
 9048TIP3   OH248634   4.349   6.277  13.031  0.0084  0.0641  0.4377
 9048TIP3    H148635   4.363   6.364  13.069 -0.3557 -0.1040  0.9769
 9048TIP3    H248636   4.314   6.225  13.104 -0.8580 -0.2282 -0.1683
 9049TIP3   OH248637   3.943   5.587  11.673  0.4168  0.6267 -0.1411
 9049TIP3    H148638   4.003   5.661  11.673  0.7273  0.4130  1.3875
 9049TIP3    H248639   3.911   5.582  11.764 -0.8188 -0.1277 -0.5939
 9050TIP3   OH248640   5.092   1.359   6.446 -0.0195 -0.1644 -0.5073
 9050TIP3    H148641   5.015   1.406   6.478  0.2980  0.3396 -0.4776
 9050TIP3    H248642   5.145   1.344   6.524  0.3508  0.3129 -0.6601
 9051TIP3   OH248643   3.041   1.090  12.910 -0.5254  0.5267 -0.0368
 9051TIP3    H148644   2.999   1.159  12.858  2.0454  0.8226 -1.9504
 9051TIP3    H248645   3.008   1.008  12.873 -3.0687  0.6032  1.7969
 9052TIP3   OH248646   0.776   0.037  12.125  0.2119 -0.8625 -0.0247
 9052TIP3    H148647   0.825   0.109  12.166  0.1188 -1.0799  0.4670
 9052TIP3    H248648   0.739  -0.012  12.198 -1.4890 -0.1996 -0.3913
 9053TIP3   OH248649   2.253   0.833   5.439 -0.1855 -0.2781 -0.2671
 9053TIP3    H148650   2.207   0.749   5.442  0.0040 -0.3580  0.3827
 9053TIP3    H248651   2.299   0.839   5.522  1.3539 -0.3904 -1.0832
 9054TIP3   OH248652   5.308   3.054  15.089 -0.2666  0.0962  0.3298
 9054TIP3    H148653   5.212   3.047  15.084 -0.1295 -1.2869 -0.8298
 9054TIP3    H248654   5.332   3.108  15.014 -0.1915  1.5089  1.3207
 9055TIP3   OH248655   3.050   1.690  16.511 -0.2746  0.2108  0.3258
 9055TIP3    H148656   3.091   1.724  16.590 -1.4837  0.8726  0.7016
 9055TIP3    H248657   3.121   1.650  16.462  0.9254  1.8626  0.6382
 9056TIP3   OH248658   6.037   1.043   6.019  0.2019  0.3714  0.0652
 9056TIP3    H148659   5.997   1.130   6.020  1.7631  1.1677  2.2601
 9056TIP3    H248660   6.002   1.000   6.097  1.2029 -0.0729  0.2813
 9057TIP3   OH248661   1.656   6.440   0.482 -0.3131 -0.0201  0.8377
 9057TIP3    H148662   1.594   6.447   0.410  1.1523  0.5117 -0.4515
 9057TIP3    H248663   1.607   6.401   0.554 -1.5085 -1.7445 -0.8412
 9058TIP3   OH248664   3.426   3.051  14.426  0.4478 -0.1199  0.1694
 9058TIP3    H148665   3.515   3.076  14.451 -0.5208  2.6806  1.1768
 9058TIP3    H248666   3.413   2.965  14.465  1.9706  0.3962  1.9288
 9059TIP3   OH248667   0.963   0.379   1.632  0.7184 -0.7936 -0.4635
 9059TIP3    H148668   0.941   0.326   1.708  0.5047 -0.2390 -0.1353
 9059TIP3    H248669   0.910   0.342   1.561  0.3686 -0.8566 -0.1749
 9060TIP3   OH248670   4.382   0.299   2.257  0.6001 -0.5047 -0.6158
 9060TIP3    H148671   4.457   0.241   2.270 -0.5855 -1.8937  0.4038
 9060TIP3    H248672   4.324   0.279   2.330 -0.5332  0.9344 -1.0718
 9061TIP3   OH248673   0.682   2.480  16.804  0.0122  0.1776 -0.0883
 9061TIP3    H148674   0.654   2.560  16.848  1.2797  0.3821  0.3948
 9061TIP3    H248675   0.778   2.483  16.807  0.1052 -0.6096 -1.4272
 9062TIP3   OH248676   0.785   2.261   0.782 -0.3169  0.5721  0.1208
 9062TIP3    H148677   0.837   2.336   0.808 -2.4465  1.8069  1.1381
 9062TIP3    H248678   0.757   2.222   0.865  2.1411 -2.5115 -0.3088
 9063TIP3   OH248679   1.198   5.127  15.438 -0.3913 -0.1763 -0.6953
 9063TIP3    H148680   1.292   5.122  15.456  0.1512  0.5540 -2.9379
 9063TIP3    H248681   1.167   5.037  15.445  0.3758 -0.3814  0.3999
 9064TIP3   OH248682   6.372   0.202   0.713 -0.3196  0.1996 -0.3021
 9064TIP3    H148683   6.396   0.244   0.796  0.7369  1.3126 -1.1500
 9064TIP3    H248684   6.424   0.122   0.711  0.3425  0.6274 -0.3064
 9065TIP3   OH248685   5.347   4.422  12.083 -0.4059 -0.3901  0.4378
 9065TIP3    H148686   5.440   4.442  12.094 -0.5133  0.0109  0.6171
 9065TIP3    H248687   5.325   4.456  11.996 -0.3343 -0.6857  0.3004
 9066TIP3   OH248688   2.928   4.563  12.148 -0.4307  0.0785 -0.4326
 9066TIP3    H148689   2.893   4.529  12.066 -0.6168  2.9785 -1.6720
 9066TIP3    H248690   3.023   4.562  12.136 -0.4082 -0.4351 -0.2474
 9067TIP3   OH248691   2.149   0.030  16.373  0.4506  0.2846  0.2497
 9067TIP3    H148692   2.211  -0.030  16.415  1.2226  1.0956  0.3191
 9067TIP3    H248693   2.200   0.072  16.303  0.0348  1.0968  0.4168
 9068TIP3   OH248694   4.495   4.854   2.358 -0.3660  0.1487  0.4623
 9068TIP3    H148695   4.466   4.928   2.303 -1.0371 -0.3080  0.1915
 9068TIP3    H248696   4.467   4.776   2.309 -1.6827 -0.2673  1.8209
 9069TIP3   OH248697   4.816   2.908   1.307  0.3821 -0.3639  0.2996
 9069TIP3    H148698   4.797   2.816   1.324 -3.1784  0.0124 -0.9965
 9069TIP3    H248699   4.812   2.917   1.212  1.9642  0.9432  0.3100
 9070TIP3   OH248700   3.621   5.565   5.602  0.1414 -0.3106  0.6856
 9070TIP3    H148701   3.711   5.593   5.617  0.5693 -1.2383 -0.0322
 9070TIP3    H248702   3.578   5.643   5.568  0.9994 -0.1743 -0.1458
 9071TIP3   OH248703   2.265   5.817  10.176 -0.4015  0.1404 -0.1548
 9071TIP3    H148704   2.178   5.825  10.216  0.4987 -0.6459  2.1570
 9071TIP3    H248705   2.299   5.733  10.208  1.1432  0.3426 -1.1443
 9072TIP3   OH248706   6.267   4.737  14.913 -0.6298 -1.1437  0.0721
 9072TIP3    H148707   6.310   4.820  14.893 -1.6875  0.3801  3.3531
 9072TIP3    H248708   6.310   4.707  14.993 -0.3382 -3.8029 -0.9680
 9073TIP3   OH248709   1.253   2.443  16.932  0.0808  0.0738 -0.0781
 9073TIP3    H148710   1.327   2.468  16.988  0.5999  0.3117 -0.8604
 9073TIP3    H248711   1.182   2.423  16.994  0.8841 -0.4615  0.6899
 9074TIP3   OH248712   2.842   2.413   6.132 -0.2901 -0.1052 -0.0495
 9074TIP3    H148713   2.926   2.450   6.104  0.0113 -0.3301  0.5332
 9074TIP3    H248714   2.810   2.474   6.198  0.4834 -1.1179  1.3416
 9075TIP3   OH248715   5.163   2.306  16.461  0.0786  0.0760 -0.1517
 9075TIP3    H148716   5.257   2.290  16.466 -0.0107 -1.0375 -1.3852
 9075TIP3    H248717   5.123   2.228  16.501 -0.3083  0.2782 -0.1361
 9076TIP3   OH248718   5.681   6.194  15.239  0.4192  0.2838  0.4283
 9076TIP3    H148719   5.588   6.170  15.240  0.5744 -0.3028  1.6180
 9076TIP3    H248720   5.682   6.288  15.255 -0.0774  0.8119 -2.1408
 9077TIP3   OH248721   5.766   3.214   3.332  0.2553  0.3435 -0.1758
 9077TIP3    H148722   5.677   3.247   3.331  0.2713  0.3879 -0.1348
 9077TIP3    H248723   5.784   3.195   3.424  0.0647 -0.2727 -0.2594
 9078TIP3   OH248724   1.969   2.443  15.192 -0.6056 -0.2188 -0.1418
 9078TIP3    H148725   2.053   2.448  15.146 -0.6055 -0.2609 -0.1470
 9078TIP3    H248726   1.959   2.349  15.212 -1.7816 -0.6034 -2.2431
 9079TIP3   OH248727   6.032   1.003  13.781 -0.1081  0.5919  0.0773
 9079TIP3    H148728   6.011   1.068  13.714  0.3541  1.3825  0.6897
 9079TIP3    H248729   6.095   1.046  13.838  1.8772 -1.0948 -0.6990
 9080TIP3   OH248730   0.345   4.738   2.807  0.2105 -0.1126 -0.2278
 9080TIP3    H148731   0.354   4.684   2.885 -0.9261 -1.6893 -1.1144
 9080TIP3    H248732   0.387   4.686   2.738  1.2430  1.2724 -0.6913
 9081TIP3   OH248733   0.765   1.703   3.565 -0.3350  0.1624 -0.5217
 9081TIP3    H148734   0.729   1.782   3.606  0.0151 -1.2215  2.8570
 9081TIP3    H248735   0.831   1.735   3.504 -1.5526  2.4892 -0.7177
 9082TIP3   OH248736   0.595   5.813   3.134  0.7522  0.5719  0.1520
 9082TIP3    H148737   0.651   5.754   3.085 -0.1331 -2.5711  2.6173
 9082TIP3    H248738   0.507   5.800   3.098  0.5621  0.4432  0.6509
 9083TIP3   OH248739   1.256   6.764   4.571  0.2361 -0.1765 -0.1990
 9083TIP3    H148740   1.183   6.819   4.545 -0.3153 -0.8230 -0.0504
 9083TIP3    H248741   1.215   6.687   4.610  0.9878  0.4181  1.9419
 9084TIP3   OH248742   5.103   1.119  14.313  0.5200  0.6225 -1.0060
 9084TIP3    H148743   5.130   1.145  14.225  0.0455  1.8592 -0.8090
 9084TIP3    H248744   5.165   1.164  14.372  0.3777  0.3992 -0.6793
 9085TIP3   OH248745   0.675   3.767  11.790 -0.2840  0.1686 -0.2238
 9085TIP3    H148746   0.665   3.717  11.709 -1.5944 -0.4365  0.2738
 9085TIP3    H248747   0.625   3.847  11.776  1.4654  1.2236 -0.8624
 9086TIP3   OH248748   0.388   3.301   2.975  0.1741  0.6694  0.3265
 9086TIP3    H148749   0.449   3.365   3.009  1.3224 -0.6460  0.8503
 9086TIP3    H248750   0.401   3.223   3.029  0.3344 -0.7037 -1.5690
 9087TIP3   OH248751   4.211   5.850   0.335  0.3710 -0.5415 -0.4054
 9087TIP3    H148752   4.275   5.884   0.271 -0.8140  0.6568 -0.9928
 9087TIP3    H248753   4.147   5.921   0.345  0.5865 -0.6315  2.2556
 9088TIP3   OH248754   6.648   4.016  10.783  0.2511 -0.3214 -0.2865
 9088TIP3    H148755   6.686   4.004  10.696 -0.2070 -0.3225 -0.4934
 9088TIP3    H248756   6.637   3.927  10.817  1.5786 -0.2796  0.2912
 9089TIP3   OH248757   1.683   4.205   5.245  0.1674  0.4645 -0.1980
 9089TIP3    H148758   1.775   4.214   5.269  0.0959 -1.0817  0.7958
 9089TIP3    H248759   1.637   4.263   5.306  0.2575 -1.1352  1.4780
 9090TIP3   OH248760   6.371   0.156  11.341  0.2909 -0.5176  0.1727
 9090TIP3    H148761   6.314   0.222  11.303  0.7128  0.4846  1.2207
 9090TIP3    H248762   6.393   0.190  11.428  1.0957 -1.6942  0.4555
 9091TIP3   OH248763   1.922   2.126  11.589 -0.1846 -0.0324  0.2147
 9091TIP3    H148764   1.889   2.195  11.647 -0.8715 -0.7942  0.7523
 9091TIP3    H248765   1.911   2.162  11.501 -1.9614 -0.0303  0.4047
 9092TIP3   OH248766   4.658   5.512   4.506  0.9250  0.4375  0.3747
 9092TIP3    H148767   4.563   5.514   4.512  0.9806 -0.8619  3.5484
 9092TIP3    H248768   4.683   5.604   4.501 -0.4821  0.8644  0.7110
 9093TIP3   OH248769   5.048   2.892   2.011 -0.0146 -0.1285  0.3798
 9093TIP3    H148770   5.049   2.807   1.969  0.6692  0.0674 -0.0133
 9093TIP3    H248771   5.035   2.954   1.939 -0.5055  0.1064  0.6617
 9094TIP3   OH248772   5.029   0.564  10.643 -0.3249  0.3509  0.0319
 9094TIP3    H148773   5.065   0.647  10.677 -0.7898  1.4025 -1.9268
 9094TIP3    H248774   5.106   0.508  10.633  0.0520  0.6569  0.9869
 9095TIP3   OH248775   0.168   4.520  13.185  0.0742 -0.2263  0.6336
 9095TIP3    H148776   0.185   4.450  13.247  0.9386 -0.9797 -0.4406
 9095TIP3    H248777   0.241   4.581  13.196 -0.6928  0.5772  1.5932
 9096TIP3   OH248778   5.572   2.180   4.273  0.1536  0.1069 -0.0039
 9096TIP3    H148779   5.531   2.203   4.357 -3.0251 -0.1705 -1.3373
 9096TIP3    H248780   5.537   2.245   4.211  0.5977 -1.0745 -1.5440
 9097TIP3   OH248781   4.745   3.291  14.830  0.2752 -0.3012  0.0063
 9097TIP3    H148782   4.718   3.361  14.771  0.0548 -0.6815 -0.3553
 9097TIP3    H248783   4.822   3.253  14.788  0.6430 -0.0076  0.4132
 9098TIP3   OH248784   4.144   4.575  16.460 -0.0513  0.3141  0.1717
 9098TIP3    H148785   4.050   4.572  16.441 -0.6046 -0.1620  2.6231
 9098TIP3    H248786   4.152   4.643  16.527  1.4873  0.8483 -0.5122
 9099TIP3   OH248787   0.786   2.188   4.263 -0.2184 -0.5140 -0.5170
 9099TIP3    H148788   0.797   2.283   4.252  0.9579 -0.7383 -1.3782
 9099TIP3    H248789   0.869   2.157   4.298 -0.6532 -1.2251 -0.0755
 9100TIP3   OH248790   6.578   3.824   0.954  0.1255  0.0682 -0.4269
 9100TIP3    H148791   6.653   3.764   0.956 -0.0687 -0.1506  0.5088
 9100TIP3    H248792   6.513   3.778   0.900  0.7963  0.4455 -1.6082
 9101TIP3   OH248793   1.800   3.738   0.836  1.0300  0.1507 -0.4433
 9101TIP3    H148794   1.772   3.830   0.833  2.3564  0.5907 -3.4729
 9101TIP3    H248795   1.887   3.740   0.875  0.6579  0.0284  0.4058
 9102TIP3   OH248796   2.623   5.999  14.127  0.1430 -0.0052 -0.0415
 9102TIP3    H148797   2.573   5.984  14.207 -0.0536  0.6431 -0.0388
 9102TIP3    H248798   2.612   5.918  14.077 -1.0733  0.1964 -0.1274
 9103TIP3   OH248799   0.691   5.266  12.256 -0.2289 -0.1997 -0.1340
 9103TIP3    H148800   0.607   5.305  12.233 -0.7971  0.1820  2.2414
 9103TIP3    H248801   0.682   5.174  12.233 -1.5009 -0.2515  0.4951
 9104TIP3   OH248802   6.523   6.026  16.541 -0.2634  0.3241  0.0804
 9104TIP3    H148803   6.584   6.013  16.468  0.7800 -1.8096  1.2472
 9104TIP3    H248804   6.444   5.978  16.515 -0.1585  0.1672  0.0496
 9105TIP3   OH248805   4.537   0.838  12.187 -0.2432  0.0660 -0.0081
 9105TIP3    H148806   4.541   0.801  12.099 -1.5516 -0.5589  0.1637
 9105TIP3    H248807   4.489   0.920  12.177  0.7850  0.6801 -0.0605
 9106TIP3   OH248808   5.487   1.166   2.466 -0.4330  0.0200 -0.5373
 9106TIP3    H148809   5.418   1.184   2.530 -0.2762  1.5743 -0.7656
 9106TIP3    H248810   5.473   1.231   2.397  1.9497  1.2318 -0.0130
 9107TIP3   OH248811   1.394   5.270  14.151  0.3094  0.0454 -0.1852
 9107TIP3    H148812   1.451   5.231  14.216  0.5932 -0.4722 -0.7356
 9107TIP3    H248813   1.337   5.198  14.122  0.3965  0.1939 -0.7312
 9108TIP3   OH248814   1.055   1.013   4.388  0.1227 -0.4093  0.2246
 9108TIP3    H148815   1.142   1.010   4.350 -0.1566  1.1072 -0.6027
 9108TIP3    H248816   1.063   0.967   4.472  1.5136 -0.9415 -0.1840
 9109TIP3   OH248817   2.368   0.856  13.284  0.3376  0.4863 -0.2205
 9109TIP3    H148818   2.338   0.895  13.366  2.3340  0.4392  0.5969
 9109TIP3    H248819   2.464   0.861  13.289  0.5742 -1.5712 -1.5515
 9110TIP3   OH248820   5.022   3.657  12.339  0.7461 -0.0234 -0.5738
 9110TIP3    H148821   5.110   3.667  12.302  1.2590  0.8616  0.8070
 9110TIP3    H248822   5.020   3.716  12.414 -0.6212 -0.9240  0.1591
 9111TIP3   OH248823   5.646   3.096   5.795 -0.5565 -0.0453  0.3487
 9111TIP3    H148824   5.636   3.001   5.785  1.7543 -0.2707 -0.7013
 9111TIP3    H248825   5.563   3.133   5.766 -1.2075 -1.7299 -0.0321
 9112TIP3   OH248826   6.543   6.757  14.550 -0.2660  0.2756 -0.7086
 9112TIP3    H148827   6.514   6.686  14.492  1.4275 -0.1888 -1.0295
 9112TIP3    H248828   6.555   6.715  14.635 -0.5219  0.4660 -0.5759
 9113TIP3   OH248829   4.934   4.405  11.894  0.1027  0.1549 -0.6343
 9113TIP3    H148830   4.956   4.323  11.939  0.3792  0.5777  0.0145
 9113TIP3    H248831   4.943   4.384  11.801  1.6040 -0.1824 -0.4481
 9114TIP3   OH248832   2.862   1.116   5.530  0.3659 -0.5092 -0.3600
 9114TIP3    H148833   2.816   1.108   5.614  0.2875  1.5364 -0.1591
 9114TIP3    H248834   2.908   1.200   5.535  1.2027 -0.8258 -1.9653
 9115TIP3   OH248835   5.036   5.653   0.973 -0.2700  1.1186 -0.1482
 9115TIP3    H148836   5.131   5.654   0.956 -0.2946  0.4797 -0.3532
 9115TIP3    H248837   4.996   5.670   0.888 -0.3372  2.2867  0.1005
 9116TIP3   OH248838   5.722   0.402  12.656  0.1340  0.3343  0.0660
 9116TIP3    H148839   5.740   0.314  12.690 -0.7637 -0.3833 -1.2434
 9116TIP3    H248840   5.760   0.461  12.722  2.2337 -1.0211  0.1530
 9117TIP3   OH248841   2.067   3.010  12.038 -0.1636 -0.6358 -0.1461
 9117TIP3    H148842   2.141   2.992  11.980  1.0721  0.4238  1.0330
 9117TIP3    H248843   2.038   3.097  12.012 -1.3855 -1.2593 -0.9605
 9118TIP3   OH248844   5.367   1.236  13.069  0.3547 -0.2455  0.0746
 9118TIP3    H148845   5.379   1.195  12.983  0.0358  0.2907 -0.2399
 9118TIP3    H248846   5.433   1.306  13.072  1.1664 -1.0250  0.7731
 9119TIP3   OH248847   2.343   4.994  11.987 -0.0614 -0.5468 -0.3199
 9119TIP3    H148848   2.265   4.961  11.943  2.5072 -1.9702 -4.3125
 9119TIP3    H248849   2.327   5.088  11.996 -2.6648 -0.9566  0.2616
 9120TIP3   OH248850   4.168   3.850   1.800 -0.1364 -0.1613  0.2355
 9120TIP3    H148851   4.229   3.886   1.736 -1.3981  0.4450 -0.6810
 9120TIP3    H248852   4.094   3.911   1.799 -0.5782 -0.6477  1.6075
 9121TIP3   OH248853   3.086   6.743   2.736  0.0560 -0.1948  0.3396
 9121TIP3    H148854   3.029   6.815   2.707  1.5454  0.4125 -1.2946
 9121TIP3    H248855   3.138   6.722   2.659  2.3327 -0.4412  1.8542
 9122TIP3   OH248856   1.349   1.414  15.309 -0.1573 -0.0340 -0.0242
 9122TIP3    H148857   1.297   1.443  15.383 -0.2196  2.9327 -1.1096
 9122TIP3    H248858   1.286   1.369  15.252 -0.8029  0.4955  0.2593
 9123TIP3   OH248859   0.333   3.056  16.011 -0.1099 -0.5211 -0.0057
 9123TIP3    H148860   0.361   3.145  15.993  1.1099 -1.1189 -1.3353
 9123TIP3    H248861   0.242   3.053  15.982  0.1335  0.0544 -0.8664
 9124TIP3   OH248862   4.952   0.613  13.401  0.2262  0.0830  0.0541
 9124TIP3    H148863   5.014   0.640  13.468  0.7902 -0.7212 -0.1335
 9124TIP3    H248864   4.930   0.694  13.355 -1.9891  1.0865  2.6300
 9125TIP3   OH248865   5.808   4.612  12.600 -0.1509 -0.3756 -0.4082
 9125TIP3    H148866   5.747   4.685  12.589 -0.4152 -0.6379 -0.7201
 9125TIP3    H248867   5.791   4.579  12.688  2.0918  1.8494  1.0051
 9126TIP3   OH248868   0.294   5.806   6.718  0.1814 -0.2483  0.2717
 9126TIP3    H148869   0.238   5.879   6.693  1.1417 -0.0386 -1.3883
 9126TIP3    H248870   0.274   5.737   6.655 -1.4235 -1.8534  2.4022
 9127TIP3   OH248871   0.458   1.899   0.250 -0.4880  0.3691  0.0207
 9127TIP3    H148872   0.459   1.821   0.195 -0.3537  0.2991  0.1210
 9127TIP3    H248873   0.514   1.876   0.324  1.5396  1.3900 -1.1101
 9128TIP3   OH248874   2.774   3.836   4.748 -0.2918 -0.0143 -0.2049
 9128TIP3    H148875   2.739   3.793   4.826 -2.0554  0.1044 -0.8983
 9128TIP3    H248876   2.774   3.929   4.769  3.0859 -0.1475  1.1172
 9129TIP3   OH248877   4.332   1.278   2.451 -0.1508  0.4005  0.0645
 9129TIP3    H148878   4.389   1.355   2.460  0.7946 -0.1975 -0.7247
 9129TIP3    H248879   4.383   1.206   2.487 -0.1587 -0.2460 -1.1658
 9130TIP3   OH248880   1.925   3.660   0.274 -0.0792 -0.3011  0.0106
 9130TIP3    H148881   1.882   3.581   0.241 -1.0352 -0.1875  0.9575
 9130TIP3    H248882   1.869   3.691   0.344  0.3621  1.1509 -0.2449
 9131TIP3   OH248883   3.438   4.528   3.088 -0.1741  0.2974 -0.4801
 9131TIP3    H148884   3.463   4.565   3.004 -1.3808 -1.4390 -1.6845
 9131TIP3    H248885   3.375   4.590   3.124 -0.5751  0.4717 -1.4541
 9132TIP3   OH248886   1.905   2.614   2.170  0.2555 -0.6361  0.5878
 9132TIP3    H148887   1.989   2.582   2.137  1.3218 -0.5605  3.0091
 9132TIP3    H248888   1.846   2.539   2.167  0.1008 -0.4788 -1.9143
 9133TIP3   OH248889   0.150   3.552  16.054  0.1175  0.2313  0.1032
 9133TIP3    H148890   0.070   3.504  16.034  1.0345 -1.8261  1.1583
 9133TIP3    H248891   0.166   3.536  16.147  1.7207  0.6283 -0.0779
 9134TIP3   OH248892   2.087   4.898  15.826 -0.0870 -0.1194  0.0791
 9134TIP3    H148893   2.040   4.953  15.763 -0.9078 -1.6627 -0.7140
 9134TIP3    H248894   2.174   4.887  15.787 -0.2578 -0.2172 -0.2862
 9135TIP3   OH248895   0.865   4.957  16.611 -0.2345  0.0555 -0.4647
 9135TIP3    H148896   0.949   4.942  16.567 -0.6067  0.4789 -1.3582
 9135TIP3    H248897   0.858   4.885  16.674  1.4134  0.7625  0.5928
 9136TIP3   OH248898   3.867   3.079  16.641 -0.3126  0.4806 -0.0014
 9136TIP3    H148899   3.903   3.022  16.572  0.3090  3.2548 -2.1893
 9136TIP3    H248900   3.912   3.052  16.721  0.3344 -1.6968 -1.0305
 9137TIP3   OH248901   4.610   2.923   5.766 -0.1144 -0.0793  0.1179
 9137TIP3    H148902   4.680   2.948   5.825  1.1048 -1.7527 -0.5406
 9137TIP3    H248903   4.654   2.886   5.689 -1.6820  0.1453 -0.9527
 9138TIP3   OH248904   5.931   5.275   0.206  0.1030 -0.1766 -0.0776
 9138TIP3    H148905   6.011   5.223   0.198  0.7412  0.7488  0.2420
 9138TIP3    H248906   5.866   5.224   0.157  0.4521 -1.7847  1.0416
 9139TIP3   OH248907   0.985   6.201   4.704  0.0295  0.1568  0.1594
 9139TIP3    H148908   0.974   6.112   4.738  1.5677 -0.6325 -1.2461
 9139TIP3    H248909   1.021   6.250   4.778 -1.6943 -0.1028  1.2346
 9140TIP3   OH248910   5.621   6.594  16.686 -0.6929 -0.1523 -0.0737
 9140TIP3    H148911   5.604   6.599  16.780  4.1418 -1.2618  1.0976
 9140TIP3    H248912   5.639   6.685  16.660 -1.5364  0.0821  0.1014
 9141TIP3   OH248913   1.185   0.013  11.637  0.8179  0.0093  0.5502
 9141TIP3    H148914   1.105   0.051  11.602  0.7524 -1.1597 -0.6810
 9141TIP3    H248915   1.172  -0.082  11.630  1.7399 -0.2286  1.6634
 9142TIP3   OH248916   1.142   0.928  13.908 -0.0034 -0.0053  0.1820
 9142TIP3    H148917   1.221   0.980  13.923  0.5557 -0.3634 -1.3109
 9142TIP3    H248918   1.086   0.983  13.854  0.5647 -0.8736 -1.3540
 9143TIP3   OH248919   0.990   2.671   4.153  0.1916  0.0345 -0.5258
 9143TIP3    H148920   1.056   2.739   4.141  1.8073 -1.4666 -0.4876
 9143TIP3    H248921   0.969   2.641   4.065 -1.0409  1.0259 -0.5900
 9144TIP3   OH248922   2.641   3.428   2.140 -0.4192 -0.0485 -0.1529
 9144TIP3    H148923   2.684   3.507   2.171  0.4379 -0.6900  0.3331
 9144TIP3    H248924   2.712   3.365   2.126 -1.1115 -0.8566 -0.1539
 9145TIP3   OH248925   5.300   0.722   1.150 -0.4273  0.4510 -0.0177
 9145TIP3    H148926   5.266   0.797   1.100  2.6506  0.5389 -2.2600
 9145TIP3    H248927   5.385   0.752   1.182  0.2775 -1.6398  0.1689
 9146TIP3   OH248928   6.201   0.218   5.800 -0.2874 -0.0281 -0.4875
 9146TIP3    H148929   6.130   0.164   5.767  1.2722 -2.0356 -0.7371
 9146TIP3    H248930   6.245   0.163   5.865  0.2740  1.6445  0.6187
 9147TIP3   OH248931   1.936   4.255  13.122  0.4288  0.0727 -0.1693
 9147TIP3    H148932   1.973   4.263  13.210  0.3290 -1.8641  0.0732
 9147TIP3    H248933   1.847   4.290  13.131  0.5742  0.3226  0.3843
 9148TIP3   OH248934   2.090   2.313   5.566 -0.2988 -0.2516  0.5717
 9148TIP3    H148935   2.026   2.384   5.568 -0.0368 -0.0130  1.6764
 9148TIP3    H248936   2.142   2.329   5.488 -0.0915  0.9335  0.9256
 9149TIP3   OH248937   3.571   0.784   0.360  0.0405 -0.4410 -0.3615
 9149TIP3    H148938   3.540   0.736   0.284  1.9671 -0.8443 -0.9467
 9149TIP3    H248939   3.600   0.716   0.421  0.5028 -0.0734 -0.1660
 9150TIP3   OH248940   1.676   6.420  11.439 -0.1378 -0.5830 -0.2397
 9150TIP3    H148941   1.766   6.411  11.471  0.3955  1.0046 -1.1564
 9150TIP3    H248942   1.679   6.497  11.382 -1.9755 -0.8133 -0.7014
 9151TIP3   OH248943   5.958   5.666   5.320 -0.1377  0.3368  0.1986
 9151TIP3    H148944   5.987   5.587   5.366 -0.3862  0.9839  1.5159
 9151TIP3    H248945   5.893   5.705   5.378 -1.8656  0.2339 -1.5423
 9152TIP3   OH248946   1.608   2.709  13.242  0.1803 -0.5598 -0.9715
 9152TIP3    H148947   1.572   2.766  13.310  0.6008 -0.0952 -1.1274
 9152TIP3    H248948   1.574   2.622  13.262 -0.3099 -0.2872 -0.6098
 9153TIP3   OH248949   2.728   4.837   0.631  0.9413  0.5493  0.5917
 9153TIP3    H148950   2.799   4.773   0.618  0.0932 -0.5345  1.1743
 9153TIP3    H248951   2.654   4.785   0.663  0.3269  1.8821  1.4146
 9154TIP3   OH248952   0.186   6.711   4.502  0.4218 -0.3799 -0.3364
 9154TIP3    H148953   0.268   6.707   4.551  0.1035  0.4702  0.2881
 9154TIP3    H248954   0.200   6.653   4.427  1.2547 -0.9638  0.2553
 9155TIP3   OH248955   0.742   3.234  16.341 -0.4560  0.3741  0.0320
 9155TIP3    H148956   0.738   3.247  16.246  0.6689  1.1527  0.0590
 9155TIP3    H248957   0.782   3.147  16.351 -0.6132  0.2722 -0.2010
 9156TIP3   OH248958   0.147   3.978   0.893 -0.3029  0.1296  0.1647
 9156TIP3    H148959   0.221   3.919   0.904  1.9555  2.6307 -0.5579
 9156TIP3    H248960   0.130   3.979   0.799  0.1138  1.0857  0.0897
 9157TIP3   OH248961   3.320   3.045   1.687  0.3666 -0.8979  0.1872
 9157TIP3    H148962   3.250   2.981   1.674 -0.3652 -0.2129  0.6296
 9157TIP3    H248963   3.274   3.129   1.693  1.3405 -0.2694 -0.8347
 9158TIP3   OH248964   2.509   6.767  13.391  0.5553  0.3761  0.1333
 9158TIP3    H148965   2.414   6.755  13.388  0.6050 -0.2555  0.8762
 9158TIP3    H248966   2.531   6.806  13.306 -0.3214  0.2329 -0.1678
 9159TIP3   OH248967   5.695   4.680  17.412 -0.4428 -0.2251  0.1208
 9159TIP3    H148968   5.685   4.752  17.475  1.5224  0.3449 -0.1301
 9159TIP3    H248969   5.614   4.631  17.418 -0.8534  0.5996  2.1115
 9160TIP3   OH248970   1.161   5.239   4.577 -0.0290  0.5166  0.3399
 9160TIP3    H148971   1.227   5.297   4.538  0.6905  0.7927  1.9105
 9160TIP3    H248972   1.105   5.298   4.628 -1.9156  0.3843 -1.4074
 9161TIP3   OH248973   1.946   4.325  13.826 -0.5646  0.3946  0.2279
 9161TIP3    H148974   1.889   4.249  13.816 -0.8245  0.7617 -1.4275
 9161TIP3    H248975   1.886   4.400  13.831 -0.2923  0.5609  1.2164
 9162TIP3   OH248976   5.613   1.800  16.244 -0.6928  0.1149 -0.1868
 9162TIP3    H148977   5.632   1.715  16.285 -0.9791  0.5973  0.9856
 9162TIP3    H248978   5.558   1.845  16.308 -0.4675  1.2214 -0.7623
 9163TIP3   OH248979   3.970   5.742  16.059  0.0543  0.2292 -0.1829
 9163TIP3    H148980   4.044   5.803  16.061  0.8993 -0.7675  0.5014
 9163TIP3    H248981   3.928   5.752  16.145  0.2056 -0.1467 -0.0611
 9164TIP3   OH248982   0.973   5.538  10.371  0.0425 -0.1850 -0.0493
 9164TIP3    H148983   1.023   5.593  10.311  2.5899 -1.4548  0.7424
 9164TIP3    H248984   0.953   5.460  10.321  0.9222 -0.6404  0.2800
 9165TIP3   OH248985   5.850   5.181   2.015  0.3137 -0.0885 -0.4045
 9165TIP3    H148986   5.853   5.258   1.958 -1.0530  0.3886  0.1290
 9165TIP3    H248987   5.889   5.111   1.962  2.0185  1.0359 -0.7259
 9166TIP3   OH248988   1.304   5.496  14.658 -0.6568 -0.0635  0.2331
 9166TIP3    H148989   1.315   5.427  14.592  1.1246  0.4645 -0.0678
 9166TIP3    H248990   1.289   5.448  14.739 -1.2661 -0.7637 -0.2815
 9167TIP3   OH248991   0.318   3.788   2.230  0.2523 -0.1488  0.3956
 9167TIP3    H148992   0.276   3.704   2.210  1.1985 -0.5160 -0.0773
 9167TIP3    H248993   0.276   3.817   2.311  1.1852 -1.9768  1.6029
 9168TIP3   OH248994   6.672   0.427  12.869 -0.1384  0.0410 -0.5078
 9168TIP3    H148995   6.739   0.494  12.855  0.6684 -0.8724 -1.1426
 9168TIP3    H248996   6.592   0.477  12.886  0.4695  1.1603 -0.7939
 9169TIP3   OH248997   5.686   2.939  12.873 -0.0561  0.2411  0.0442
 9169TIP3    H148998   5.666   2.845  12.871 -2.0847  0.6125 -1.4555
 9169TIP3    H248999   5.742   2.953  12.796  0.1205  0.2890  0.1804
 9170TIP3   OH249000   4.210   1.276  11.639 -0.8311 -0.1959  0.1638
 9170TIP3    H149001   4.178   1.198  11.594 -2.3397  1.4277 -1.8182
 9170TIP3    H249002   4.131   1.318  11.673  0.1658 -0.7911  3.6266
 9171TIP3   OH249003   1.318   3.460  12.464  0.6034  0.1705  0.4640
 9171TIP3    H149004   1.286   3.535  12.415  1.0683 -0.7675 -1.3800
 9171TIP3    H249005   1.410   3.479  12.481  1.0344 -0.4542 -1.0417
 9172TIP3   OH249006   2.336   6.733  14.407  0.3087 -0.3522  0.1696
 9172TIP3    H149007   2.246   6.707  14.385 -0.2745 -0.0376  2.0344
 9172TIP3    H249008   2.382   6.732  14.323 -1.5804  0.0757 -0.9363
 9173TIP3   OH249009   3.589   4.294  14.282 -0.2593  0.5643 -0.1779
 9173TIP3    H149010   3.532   4.273  14.356 -0.7792  0.1315 -0.6971
 9173TIP3    H249011   3.555   4.377  14.248  1.2906  1.9290  1.3630
 9174TIP3   OH249012   3.410   1.950   3.897 -0.5957 -0.0203 -0.0663
 9174TIP3    H149013   3.457   2.002   3.963 -1.2910  0.2951  0.1896
 9174TIP3    H249014   3.362   1.885   3.948 -0.7301 -0.1089 -0.3058
 9175TIP3   OH249015   2.908   5.137   5.962 -0.3438 -0.2655  0.0930
 9175TIP3    H149016   2.954   5.159   5.881 -0.1084  0.3312  0.3851
 9175TIP3    H249017   2.925   5.044   5.975  0.2572 -0.1858 -0.1340
 9176TIP3   OH249018   1.470   1.244   1.452 -0.1827  0.0784  0.0440
 9176TIP3    H149019   1.513   1.314   1.502  1.1597  0.4620 -1.5556
 9176TIP3    H249020   1.377   1.259   1.466  0.1104 -0.0056  2.6092
 9177TIP3   OH249021   5.783   2.782   3.282 -0.0950  0.4226 -0.4253
 9177TIP3    H149022   5.858   2.738   3.242 -0.2066  0.5252 -0.7472
 9177TIP3    H249023   5.768   2.858   3.226  0.8926  1.5866  0.8046
 9178TIP3   OH249024   2.036   1.575  14.235 -0.1475 -0.5211  0.1718
 9178TIP3    H149025   2.051   1.583  14.329 -0.0602  0.8767  0.0648
 9178TIP3    H249026   2.107   1.624  14.194  0.7254 -2.4285 -0.7134
 9179TIP3   OH249027   4.729   0.972   5.889  0.2081 -0.0641  0.5874
 9179TIP3    H149028   4.702   0.900   5.832  0.2121  1.5745 -1.5826
 9179TIP3    H249029   4.728   0.934   5.977  0.7910 -2.8691 -0.5163
 9180TIP3   OH249030   5.110   2.909   4.989 -0.0598 -0.1234  0.3597
 9180TIP3    H149031   5.041   2.975   4.987 -0.0340 -0.0107  2.0028
 9180TIP3    H249032   5.087   2.847   4.920 -0.5078  1.1720 -0.6860
 9181TIP3   OH249033   5.908   2.208   1.635  0.3464  0.6148 -0.2206
 9181TIP3    H149034   5.925   2.261   1.557  0.4349 -0.2868 -0.8232
 9181TIP3    H249035   5.954   2.126   1.619 -0.3373  0.0997  0.4013
 9182TIP3   OH249036   0.866   0.824   1.067  0.1979 -0.0377  0.3747
 9182TIP3    H149037   0.844   0.866   1.151 -0.8852 -2.7144  1.5270
 9182TIP3    H249038   0.961   0.812   1.071  0.3504  1.1323  0.5677
 9183TIP3   OH249039   2.808   6.311   2.354 -0.7065  0.3855  0.1047
 9183TIP3    H149040   2.865   6.364   2.409  0.1477 -1.2209  0.8282
 9183TIP3    H249041   2.826   6.221   2.380 -1.6254 -0.3219 -1.5445
 9184TIP3   OH249042   2.506   4.158   0.749 -0.3713 -0.1496 -0.0132
 9184TIP3    H149043   2.522   4.064   0.751  1.1164  0.0485 -1.0140
 9184TIP3    H249044   2.452   4.172   0.671  3.1352  0.2286 -2.6261
 9185TIP3   OH249045   1.697   5.817  16.518  0.4716 -0.5602 -0.0776
 9185TIP3    H149046   1.664   5.731  16.490 -0.6453 -0.1705 -0.0223
 9185TIP3    H249047   1.749   5.849  16.445  0.3441 -1.0022 -0.3640
 9186TIP3   OH249048   4.120   5.003  15.132 -1.0936  0.1455 -0.5099
 9186TIP3    H149049   4.045   4.984  15.188 -0.9707  0.2199 -0.3211
 9186TIP3    H249050   4.143   4.919  15.093 -0.5162 -0.0987  0.3595
 9187TIP3   OH249051   6.296   1.742   1.826 -0.5082  0.0022  0.0350
 9187TIP3    H149052   6.208   1.778   1.827  0.4311  2.5308  0.4143
 9187TIP3    H249053   6.346   1.803   1.772  1.3809 -0.3109  1.3107
 9188TIP3   OH249054   5.416   4.890  16.581 -0.9183 -0.0045 -0.0991
 9188TIP3    H149055   5.415   4.813  16.524 -1.6450  0.0133 -0.1181
 9188TIP3    H249056   5.418   4.854  16.670 -0.7907 -0.0362 -0.1139
 9189TIP3   OH249057   0.608   4.347   5.836 -0.5485 -0.5175  0.7203
 9189TIP3    H149058   0.637   4.256   5.840  0.6687 -0.1659  0.1304
 9189TIP3    H249059   0.666   4.394   5.895 -0.3534  0.0770  0.0719
 9190TIP3   OH249060   6.275   0.837  13.062 -0.5917  0.0723  0.4223
 9190TIP3    H149061   6.188   0.851  13.099 -0.9677  0.9165 -0.7372
 9190TIP3    H249062   6.335   0.870  13.129 -1.1833  0.0970  0.9513
 9191TIP3   OH249063   1.272   1.634   3.694 -0.9031 -0.4751 -1.0871
 9191TIP3    H149064   1.301   1.629   3.603 -1.0372 -1.5243 -1.0884
 9191TIP3    H249065   1.317   1.711   3.729 -0.1479 -0.5763 -1.7967
 9192TIP3   OH249066   4.952   4.667   1.502  0.2802 -0.0806  0.1281
 9192TIP3    H149067   5.007   4.649   1.426  0.8076 -0.7225  0.6483
 9192TIP3    H249068   4.943   4.762   1.504 -0.3105 -0.0939 -1.1292
 9193TIP3   OH249069   4.735   4.034  17.443  0.0853 -0.2174 -0.9234
 9193TIP3    H149070   4.798   3.963  17.433  0.8905  0.3898 -0.2523
 9193TIP3    H249071   4.680   4.008  17.517  0.0934 -0.3388 -0.9602
 9194TIP3   OH249072   3.751   6.201  11.690  0.0469 -0.1404  0.0886
 9194TIP3    H149073   3.826   6.186  11.634 -0.4682  0.1525 -0.6967
 9194TIP3    H249074   3.732   6.116  11.728 -0.5286 -0.6980 -1.3743
 9195TIP3   OH249075   3.632   2.118   2.958  0.3855 -0.3176 -0.4977
 9195TIP3    H149076   3.652   2.024   2.962  0.9305 -0.3536 -2.6919
 9195TIP3    H249077   3.718   2.160   2.957  0.1837  0.0954 -0.8616
 9196TIP3   OH249078   5.198   6.142  14.024 -0.1320 -0.7183  0.5008
 9196TIP3    H149079   5.164   6.228  14.050 -0.3942 -0.9107  0.8061
 9196TIP3    H249080   5.225   6.101  14.106 -1.4792 -1.5480  0.5636
 9197TIP3   OH249081   4.823   1.189  14.059  0.5195  0.8545 -0.3988
 9197TIP3    H149082   4.756   1.157  14.120  0.1269  0.0323 -1.2232
 9197TIP3    H249083   4.860   1.266  14.101  1.0696 -0.3496  1.4194
 9198TIP3   OH249084   4.320   2.072  16.703 -0.4247  0.6258  0.4621
 9198TIP3    H149085   4.401   2.030  16.734 -0.3926 -0.5578 -1.0719
 9198TIP3    H249086   4.290   2.124  16.777  2.3687  2.0705  0.7084
 9199TIP3   OH249087   4.998   0.116   3.608  0.1160  0.3064  0.4316
 9199TIP3    H149088   5.007   0.208   3.584 -0.5256  0.1649 -0.3627
 9199TIP3    H249089   4.916   0.111   3.658 -0.9231 -0.1561 -1.2559
 9200TIP3   OH249090   6.434   0.111   3.519 -0.5471 -0.4407 -0.4032
 9200TIP3    H149091   6.440   0.054   3.596  0.2574 -0.5700 -0.5507
 9200TIP3    H249092   6.360   0.076   3.469  0.6954 -2.1820 -1.1321
 9201TIP3   OH249093   1.039   0.706   5.249  0.3379 -0.3621 -0.1035
 9201TIP3    H149094   1.119   0.731   5.296 -0.0566 -0.7478  0.8018
 9201TIP3    H249095   1.067   0.695   5.158  1.5404 -1.4539  0.3660
 9202TIP3   OH249096   4.488   2.525  17.317  0.3918 -0.4848 -0.0654
 9202TIP3    H149097   4.469   2.494  17.406  0.7445 -1.4099 -0.2918
 9202TIP3    H249098   4.529   2.449  17.275  1.4149  0.3621 -0.6187
 9203TIP3   OH249099   6.561   1.055  16.013  0.7446  0.1742 -0.1072
 9203TIP3    H149100   6.497   1.100  15.958 -0.0044 -0.5755  0.1452
 9203TIP3    H249101   6.597   0.986  15.957 -0.7327 -1.2340  0.6056
 9204TIP3   OH249102   6.517   3.495  16.614  0.3967 -0.2532  0.1312
 9204TIP3    H149103   6.557   3.453  16.538 -0.4355  0.8248 -0.9280
 9204TIP3    H249104   6.430   3.455  16.620 -0.0444  0.6285 -0.3141
 9205TIP3   OH249105   0.484   5.300  15.187 -0.0548  0.1140 -0.2683
 9205TIP3    H149106   0.416   5.311  15.253 -0.8791 -0.3120 -1.0230
 9205TIP3    H249107   0.517   5.389  15.172  0.2651  0.1849  0.8311
 9206TIP3   OH249108   5.310   0.113   2.764  0.6933  0.1411 -0.0201
 9206TIP3    H149109   5.338   0.191   2.812 -0.0914  0.5474 -0.1936
 9206TIP3    H249110   5.310   0.043   2.829 -2.9955  1.2127  1.4139
 9207TIP3   OH249111   0.534   6.731   3.099  0.0889  0.2608  0.6465
 9207TIP3    H149112   0.515   6.676   3.022 -1.5892 -1.3917  2.1204
 9207TIP3    H249113   0.522   6.821   3.068  0.1216 -0.3126 -1.1684
 9208TIP3   OH249114   2.771   2.253   0.221  0.1254 -0.6591  0.4221
 9208TIP3    H149115   2.734   2.181   0.272  0.6425 -0.9924  0.3354
 9208TIP3    H249116   2.749   2.234   0.130  0.7141 -0.9883  0.3446
 9209TIP3   OH249117   1.954   4.889   0.487 -0.3715 -0.1548  0.3280
 9209TIP3    H149118   2.015   4.894   0.560  1.2032 -2.2494 -0.7299
 9209TIP3    H249119   1.885   4.830   0.518  0.3826 -1.1798  0.1073
 9210TIP3   OH249120   2.417   3.123   3.224 -0.6733 -0.1649  0.3490
 9210TIP3    H149121   2.347   3.105   3.162 -0.8379  1.0710  0.1528
 9210TIP3    H249122   2.378   3.183   3.288  0.2438  0.7268  0.1134
 9211TIP3   OH249123   1.550   3.756   3.592 -0.3858 -0.6688  0.0966
 9211TIP3    H149124   1.630   3.786   3.634 -0.5287 -0.9541  0.5863
 9211TIP3    H249125   1.579   3.710   3.514 -0.1503  0.4120 -0.4685
 9212TIP3   OH249126   1.877   6.221  13.710 -0.6287  0.0447  0.1827
 9212TIP3    H149127   1.847   6.299  13.664  1.0528  0.2348 -0.6856
 9212TIP3    H249128   1.849   6.235  13.801 -0.5600  1.5605  0.0069
 9213TIP3   OH249129   2.971   6.173   1.029  0.0624 -0.1015  0.0478
 9213TIP3    H149130   3.007   6.084   1.035 -0.0478 -0.0484  2.9447
 9213TIP3    H249131   3.031   6.226   1.081  0.6404  1.8117 -2.3688
 9214TIP3   OH249132   2.041   3.095   0.740 -0.2924  0.5878  0.2508
 9214TIP3    H149133   1.977   3.038   0.699 -0.2186  0.4687  0.3006
 9214TIP3    H249134   2.043   3.067   0.831 -0.9311  1.2790  0.4875
 9215TIP3   OH249135   2.952   5.748  14.999 -0.4930 -0.3858  0.2375
 9215TIP3    H149136   2.894   5.679  15.031 -0.7960  0.0242  0.5937
 9215TIP3    H249137   2.949   5.741  14.904 -0.9941 -0.4859  0.2554
 9216TIP3   OH249138   5.927   3.436   0.852  0.0290  0.0483 -0.2068
 9216TIP3    H149139   5.888   3.348   0.847  1.0258 -0.5361  1.3060
 9216TIP3    H249140   5.969   3.438   0.938 -0.0483  2.0695 -0.1692
 9217TIP3   OH249141   1.569   2.104  11.014 -0.2011 -0.0506  0.5940
 9217TIP3    H149142   1.547   2.039  10.947 -1.1848  0.3414  0.5033
 9217TIP3    H249143   1.511   2.178  10.994 -0.9198 -0.1345  2.1984
 9218TIP3   OH249144   5.326   4.345   6.490  0.5304  0.8052 -0.3986
 9218TIP3    H149145   5.301   4.330   6.399  0.2636  0.2187 -0.2331
 9218TIP3    H249146   5.421   4.359   6.487  0.7208 -0.4329 -0.6307
 9219TIP3   OH249147   0.944   0.697  13.207  0.2062 -0.2422  0.1656
 9219TIP3    H149148   0.960   0.791  13.219 -0.0817 -0.0034 -1.2005
 9219TIP3    H249149   0.850   0.687  13.222  0.2149 -0.2943  0.1843
 9220TIP3   OH249150   0.060   5.068  16.877 -0.2174 -0.3769  0.2383
 9220TIP3    H149151   0.145   5.091  16.913 -0.1241  0.2145 -0.3484
 9220TIP3    H249152   0.012   5.151  16.874  0.4975  0.0589 -2.9285
 9221TIP3   OH249153   4.627   3.927   3.612  1.0439 -0.2480  0.3894
 9221TIP3    H149154   4.643   3.851   3.668  0.3953  0.3746  1.4465
 9221TIP3    H249155   4.684   3.996   3.646  1.0683 -0.0239 -0.0842
 9222TIP3   OH249156   2.330   4.495  11.214 -0.8946 -0.0446 -0.5261
 9222TIP3    H149157   2.368   4.407  11.220 -1.9445 -0.4764  0.0178
 9222TIP3    H249158   2.363   4.541  11.292  0.0868  0.2387 -1.0859
 9223TIP3   OH249159   0.197   0.760   0.399 -0.4701 -0.2219  0.0017
 9223TIP3    H149160   0.245   0.727   0.475  0.0847  0.2813 -0.1260
 9223TIP3    H249161   0.260   0.815   0.353 -1.9329  2.8412  1.3592
 9224TIP3   OH249162   5.380   1.448   2.843 -0.4635  0.1294 -0.5906
 9224TIP3    H149163   5.288   1.469   2.826 -0.6077  3.0511  2.8118
 9224TIP3    H249164   5.422   1.532   2.858  2.1058 -1.2836  0.9567
 9225TIP3   OH249165   5.881   1.841  16.056 -0.1572  0.2910 -0.5111
 9225TIP3    H149166   5.809   1.814  16.113  0.3780  0.9528  0.5116
 9225TIP3    H249167   5.956   1.789  16.086 -0.1221 -0.1730 -1.3685
 9226TIP3   OH249168   1.859   6.745   3.440  0.2067 -0.0886 -0.7966
 9226TIP3    H149169   1.844   6.815   3.376 -0.3871 -0.9791 -1.6624
 9226TIP3    H249170   1.906   6.677   3.392  0.5548 -0.3979 -0.0401
 9227TIP3   OH249171   3.348   6.099   6.017 -0.0493 -0.1517 -0.3364
 9227TIP3    H149172   3.324   6.090   6.109  0.0270  0.7426 -0.2253
 9227TIP3    H249173   3.437   6.065   6.012  0.4247  0.9660  0.1750
 9228TIP3   OH249174   6.730   1.287  15.102  0.1089 -0.3688 -0.1911
 9228TIP3    H149175   6.753   1.205  15.058  4.3102  0.5265 -0.1030
 9228TIP3    H249176   6.745   1.355  15.036  0.9535  0.5864  0.9316
 9229TIP3   OH249177   3.794   5.175   6.125  0.2546 -0.1860  0.4534
 9229TIP3    H149178   3.792   5.118   6.202  0.0845 -0.4470  0.2590
 9229TIP3    H249179   3.875   5.153   6.080  1.1191  1.0582  1.3677
 9230TIP3   OH249180   5.989   4.214  10.908 -0.3557 -0.0538  0.5604
 9230TIP3    H149181   5.901   4.240  10.879  0.6533  0.6388 -2.2415
 9230TIP3    H249182   6.029   4.294  10.940  0.7717  0.8561 -2.6791
 9231TIP3   OH249183   1.191   2.812   4.055  0.4956  0.0862  0.9932
 9231TIP3    H149184   1.279   2.780   4.077  0.1531 -1.2542  0.5334
 9231TIP3    H249185   1.198   2.840   3.964  0.5582  0.4239  1.1010
 9232TIP3   OH249186   4.726   3.245  12.479 -0.0916  0.5781  0.1798
 9232TIP3    H149187   4.752   3.189  12.406  0.3782  0.8119  0.1629
 9232TIP3    H249188   4.761   3.331  12.457  0.8249  0.4576  1.0922
 9233TIP3   OH249189   3.227   0.117  16.987  0.0762 -0.0243  0.7232
 9233TIP3    H149190   3.151   0.160  17.025 -1.5290 -1.2021 -0.9850
 9233TIP3    H249191   3.213   0.024  17.004  0.7949 -0.3217 -0.1989
 9234TIP3   OH249192   1.503   5.826   0.464  0.0867  0.2699 -0.7638
 9234TIP3    H149193   1.535   5.893   0.523 -0.8150  0.5344 -0.5576
 9234TIP3    H249194   1.581   5.794   0.419  0.6881  0.5511  0.0603
 9235TIP3   OH249195   4.746   0.749   1.434 -0.0470 -0.1150  0.3807
 9235TIP3    H149196   4.724   0.664   1.397 -0.4364  0.2446 -0.2334
 9235TIP3    H249197   4.818   0.780   1.380 -0.0200  0.0243  0.4959
 9236TIP3   OH249198   2.371   1.328  12.570 -0.0926 -0.2102  0.0107
 9236TIP3    H149199   2.278   1.347  12.556  0.1369  0.3782 -0.8415
 9236TIP3    H249200   2.377   1.297  12.660 -0.8670  1.5428  0.7118
 9237TIP3   OH249201   0.868   5.223   4.206  0.1528  0.1220  0.4643
 9237TIP3    H149202   0.885   5.165   4.280  1.2919 -0.5904 -0.3198
 9237TIP3    H249203   0.841   5.306   4.245 -1.5659 -0.9207  1.6146
 9238TIP3   OH249204   4.608   1.413  12.557  0.3193 -0.0557  0.7127
 9238TIP3    H149205   4.582   1.505  12.555 -2.5606 -0.7608  1.4947
 9238TIP3    H249206   4.703   1.415  12.570  0.4539  2.7748 -0.1989
 9239TIP3   OH249207   2.273   0.244  13.179  0.0462  0.1526  0.2506
 9239TIP3    H149208   2.300   0.323  13.226 -3.0547  1.6902 -0.2616
 9239TIP3    H249209   2.252   0.181  13.248  0.1750  0.6757  0.7768
 9240TIP3   OH249210   0.627   1.502  15.033 -0.1847 -0.0761 -0.1763
 9240TIP3    H149211   0.542   1.492  14.989  0.1822  1.1038 -1.2310
 9240TIP3    H249212   0.612   1.471  15.122 -1.4723 -0.7612 -0.6020
 9241TIP3   OH249213   1.667   6.134   1.049  0.3534  0.1601  0.0644
 9241TIP3    H149214   1.587   6.156   1.096  0.2138  1.1421 -0.6154
 9241TIP3    H249215   1.702   6.058   1.097 -0.6547  0.0870  0.7244
 9242TIP3   OH249216   3.533   1.489   6.495  0.0559  0.0331  0.2027
 9242TIP3    H149217   3.615   1.524   6.532  0.1307 -0.7573  0.8133
 9242TIP3    H249218   3.470   1.560   6.506  0.7007  0.7274 -0.4567
 9243TIP3   OH249219   5.574   2.385   5.872  0.7575 -0.5213  0.3091
 9243TIP3    H149220   5.502   2.421   5.819 -0.1029  0.8024  2.2692
 9243TIP3    H249221   5.638   2.456   5.877  0.5895 -0.4289  1.4286
 9244TIP3   OH249222   5.543   0.937  12.343  0.3906  0.0141  0.3411
 9244TIP3    H149223   5.602   0.863  12.331 -1.4867 -1.4209 -0.5677
 9244TIP3    H249224   5.492   0.914  12.421  1.2107  1.3878  1.3141
 9245TIP3   OH249225   1.634   0.203   2.117  0.1148  0.5103 -0.3478
 9245TIP3    H149226   1.653   0.113   2.144  0.2606  0.3027 -1.0995
 9245TIP3    H249227   1.540   0.204   2.100 -0.1002  0.8227  0.7957
 9246TIP3   OH249228   6.576   6.143   4.236 -1.2362 -0.1179 -0.4422
 9246TIP3    H149229   6.541   6.057   4.261  2.0923 -0.9098  2.1273
 9246TIP3    H249230   6.653   6.123   4.184 -0.8859  1.3689 -0.5411
 9247TIP3   OH249231   2.369   1.350  13.825 -0.1800  0.2920  0.0504
 9247TIP3    H149232   2.281   1.356  13.862 -0.4775  0.6549 -0.6856
 9247TIP3    H249233   2.400   1.441  13.824  0.2874  0.1423  0.4871
 9248TIP3   OH249234   4.986   5.922  11.977  0.1022  0.5411  0.6418
 9248TIP3    H149235   4.906   5.894  12.022  0.3608 -1.9595 -0.3072
 9248TIP3    H249236   4.955   5.980  11.907 -1.2131 -1.9029 -0.9524
 9249TIP3   OH249237   5.089   2.685  13.494 -0.0756 -0.3389 -0.2486
 9249TIP3    H149238   5.069   2.668  13.586  0.0798 -1.9447 -0.4823
 9249TIP3    H249239   5.007   2.667  13.448 -0.4569  1.4567 -0.3615
 9250TIP3   OH249240   6.740   3.946   4.530  0.2956 -0.9385 -0.0249
 9250TIP3    H149241   6.830   3.919   4.510  0.0279  0.1824 -3.2565
 9250TIP3    H249242   6.686   3.903   4.464 -1.7815 -2.2177  2.3054
 9251TIP3   OH249243   2.383   3.349  13.646 -0.0577 -0.1979  0.7105
 9251TIP3    H149244   2.331   3.379  13.721 -0.1960 -0.0693  0.5636
 9251TIP3    H249245   2.448   3.291  13.685 -1.3856 -1.7626  0.7192
 9252TIP3   OH249246   0.070   0.382   3.126 -0.6132  0.2020  0.5534
 9252TIP3    H149247   0.091   0.292   3.150 -0.2870  0.1321  0.0073
 9252TIP3    H249248   0.072   0.430   3.209 -0.4530 -0.2287  0.7993
 9253TIP3   OH249249   2.930   2.362  16.733 -0.1409 -0.1776 -0.0802
 9253TIP3    H149250   2.949   2.307  16.657 -2.2799 -0.3388 -0.5754
 9253TIP3    H249251   2.930   2.301  16.807 -0.7980 -0.5536 -0.3777
 9254TIP3   OH249252   4.188   0.426   2.104 -0.1349  0.3259 -0.5254
 9254TIP3    H149253   4.260   0.372   2.135 -0.0636 -0.4585 -1.9828
 9254TIP3    H249254   4.213   0.516   2.126  1.4611  0.1031 -1.3432
 9255TIP3   OH249255   4.499   0.877  16.484 -0.3156  0.0782 -0.6664
 9255TIP3    H149256   4.422   0.918  16.445 -0.1466  1.7861  0.6382
 9255TIP3    H249257   4.517   0.801  16.429 -2.6995 -0.1741 -1.2202
 9256TIP3   OH249258   3.090   3.358  11.497  0.3220  1.1367 -0.3271
 9256TIP3    H149259   3.147   3.379  11.570  1.4358 -0.3430 -0.7149
 9256TIP3    H249260   3.059   3.270  11.515 -3.0341  2.3511  0.5540
 9257TIP3   OH249261   3.359   6.059   0.263  0.0655  0.6184  0.1330
 9257TIP3    H149262   3.272   6.025   0.285 -1.1411  0.5132 -3.9533
 9257TIP3    H249263   3.379   6.120   0.333 -4.2373  2.1068  0.3741
 9258TIP3   OH249264   1.512   2.078   0.673  0.9208 -0.3241 -0.3249
 9258TIP3    H149265   1.569   2.140   0.719  1.2491 -1.2982  0.6113
 9258TIP3    H249266   1.549   2.072   0.585  3.4270 -2.3027  0.7404
 9259TIP3   OH249267   2.159   1.930   3.909 -0.0871 -0.3314  0.1322
 9259TIP3    H149268   2.210   1.983   3.848  0.0146  0.1545  0.6336
 9259TIP3    H249269   2.174   1.970   3.995  0.1259 -1.2736  0.5443
 9260TIP3   OH249270   0.398   0.412   6.675  0.0997  0.1133  0.0292
 9260TIP3    H149271   0.347   0.382   6.600  0.7482 -1.2270  0.0887
 9260TIP3    H249272   0.333   0.425   6.744 -0.1156 -2.9716  0.5461
 9261TIP3   OH249273   2.149   1.756   1.724 -0.2886 -0.2079 -0.1865
 9261TIP3    H149274   2.196   1.828   1.766 -0.7122 -0.7021  1.2224
 9261TIP3    H249275   2.094   1.798   1.658  1.1560  0.5018 -0.9692
 9262TIP3   OH249276   2.327   5.182  15.302  0.4485 -0.1322  0.0225
 9262TIP3    H149277   2.310   5.191  15.208 -0.8410 -2.8838 -0.0866
 9262TIP3    H249278   2.418   5.153  15.306  1.2371  2.0899 -0.1644
 9263TIP3   OH249279   5.571   3.704  12.445 -0.4214  0.4497  0.3821
 9263TIP3    H149280   5.617   3.622  12.425  1.0356  1.0913  0.9259
 9263TIP3    H249281   5.579   3.756  12.365  0.4365  0.8239  0.6966
 9264TIP3   OH249282   6.245   0.884   0.299  0.2288  0.5710  0.0986
 9264TIP3    H149283   6.237   0.920   0.211  1.6502 -0.7519 -0.6223
 9264TIP3    H249284   6.182   0.812   0.302  0.5583  0.2769 -0.0237
 9265TIP3   OH249285   6.506   1.023   2.037 -0.4287 -0.6420  0.3606
 9265TIP3    H149286   6.526   0.944   2.088  1.4213 -0.1045  0.5668
 9265TIP3    H249287   6.557   1.092   2.080 -0.3179  0.2153 -1.0961
 9266TIP3   OH249288   3.669   4.194  11.071 -0.2627  0.2283  0.3619
 9266TIP3    H149289   3.589   4.224  11.029 -1.4656 -1.6289  1.1952
 9266TIP3    H249290   3.647   4.189  11.164  0.5763 -0.9704  0.5222
 9267TIP3   OH249291   6.052   6.174  16.505  0.1280  0.0861  0.1180
 9267TIP3    H149292   6.040   6.099  16.446 -0.8051  0.7528 -0.5761
 9267TIP3    H249293   6.073   6.247  16.447 -0.6284  0.7175  0.6110
 9268TIP3   OH249294   4.625   0.369   2.584  0.0625 -0.3603  0.3739
 9268TIP3    H149295   4.697   0.333   2.637 -0.6543 -1.6510  0.4920
 9268TIP3    H249296   4.641   0.464   2.585  1.9184 -0.6246  0.1641
 9269TIP3   OH249297   4.921   5.256   1.522 -0.7270  0.0929  0.1665
 9269TIP3    H149298   4.856   5.271   1.590 -1.1421  1.6026 -0.5124
 9269TIP3    H249299   4.978   5.333   1.525  1.4441 -1.4385  1.1152
 9270TIP3   OH249300   2.272   6.550   1.206 -0.0576 -0.1759  0.1082
 9270TIP3    H149301   2.342   6.546   1.140  0.0189 -0.7621  0.2224
 9270TIP3    H249302   2.255   6.459   1.228  1.3741  0.0554  2.4711
 9271TIP3   OH249303   3.393   2.224   3.545 -0.0322 -0.0240  0.4903
 9271TIP3    H149304   3.473   2.255   3.502 -0.5477  0.6115 -0.0176
 9271TIP3    H249305   3.413   2.134   3.569  0.4786 -0.1974 -0.5295
 9272TIP3   OH249306   1.906   4.852  14.283  0.1120  0.8184  0.1800
 9272TIP3    H149307   1.832   4.881  14.336  0.5994  1.2973  0.6059
 9272TIP3    H249308   1.927   4.926  14.227 -0.4944  0.2673 -0.8254
 9273TIP3   OH249309   2.183   5.447   4.784  0.0046  0.0988  0.7328
 9273TIP3    H149310   2.139   5.366   4.758  1.3170  0.0000 -1.4761
 9273TIP3    H249311   2.262   5.450   4.729 -0.0850  2.9400  0.6025
 9274TIP3   OH249312   0.640   2.512  16.037 -0.2806  0.2792 -0.4123
 9274TIP3    H149313   0.701   2.534  16.108 -0.4412  2.4748 -0.8827
 9274TIP3    H249314   0.661   2.421  16.014 -0.0798 -0.4510  2.2749
 9275TIP3   OH249315   0.664   3.796  16.906 -0.2466  0.3687  0.2034
 9275TIP3    H149316   0.628   3.839  16.829  1.7334  1.2445 -0.3059
 9275TIP3    H249317   0.620   3.838  16.980 -0.6591  1.0096 -0.3955
 9276TIP3   OH249318   2.591   0.160  16.705  0.2072  0.3450 -0.4731
 9276TIP3    H149319   2.594   0.066  16.685  0.0451  0.1315  0.4701
 9276TIP3    H249320   2.573   0.164  16.799  0.6531  1.3171 -0.4170
 9277TIP3   OH249321   6.758   3.095   4.172  0.5997 -0.1569  0.4475
 9277TIP3    H149322   6.801   3.143   4.243  0.9978  1.3222 -0.7502
 9277TIP3    H249323   6.810   3.015   4.162  2.0464  0.7699  0.2192
 9278TIP3   OH249324   6.387   5.394   1.929  0.1067 -0.1613 -0.0448
 9278TIP3    H149325   6.465   5.381   1.874 -0.8428 -1.5078 -1.1335
 9278TIP3    H249326   6.334   5.458   1.881 -1.0325 -1.8284 -1.1134
 9279TIP3   OH249327   4.156   2.357   5.391  0.8808 -0.2315  0.1655
 9279TIP3    H149328   4.169   2.451   5.406  0.5816 -0.2912  0.8249
 9279TIP3    H249329   4.114   2.325   5.471 -1.2009 -0.4855 -0.9554
 9280TIP3   OH249330   2.074   5.033   2.374  0.6181  0.1294  0.5201
 9280TIP3    H149331   2.019   4.955   2.377 -0.7141  1.0628  1.1834
 9280TIP3    H249332   2.038   5.086   2.303  0.5787  0.7904  1.0145
 9281TIP3   OH249333   1.754   1.459   0.279 -0.1811  0.1617 -0.1806
 9281TIP3    H149334   1.795   1.434   0.197 -1.0322  0.8548 -0.8388
 9281TIP3    H249335   1.702   1.382   0.304 -2.4313  1.0132 -1.9609
 9282TIP3   OH249336   6.315   0.381  17.309 -0.0386 -0.3491  0.3218
 9282TIP3    H149337   6.402   0.365  17.273 -0.5356  0.8845 -1.5840
 9282TIP3    H249338   6.263   0.306  17.281 -0.2185  0.2051 -0.8669
 9283TIP3   OH249339   4.933   4.450   4.326 -0.6704 -0.0300  0.2057
 9283TIP3    H149340   4.933   4.354   4.322  0.3280 -0.1277  1.6420
 9283TIP3    H249341   4.849   4.476   4.289 -0.4567 -1.3846 -1.3678
 9284TIP3   OH249342   3.521   2.600  13.584  0.0640 -0.4312 -0.1695
 9284TIP3    H149343   3.489   2.650  13.509  0.5011  1.4940  0.8445
 9284TIP3    H249344   3.442   2.561  13.622 -0.5308  0.7433 -0.1527
 9285TIP3   OH249345   1.615   1.528  17.040  0.4918  1.0037 -0.2122
 9285TIP3    H149346   1.689   1.547  16.982  0.6387  2.4826  0.4092
 9285TIP3    H249347   1.596   1.435  17.025  4.3525 -0.3044  1.6447
 9286TIP3   OH249348   3.850   5.330  14.189 -0.1810 -0.8560  0.1553
 9286TIP3    H149349   3.799   5.266  14.238 -1.7845  0.1080 -0.2149
 9286TIP3    H249350   3.941   5.313  14.215 -0.5624 -3.1481  0.2067
 9287TIP3   OH249351   5.134   4.493   1.048 -0.1371 -0.3351  0.8959
 9287TIP3    H149352   5.150   4.550   0.973 -1.4713 -2.5612 -1.2316
 9287TIP3    H249353   5.156   4.405   1.017 -0.2310 -1.3017  3.3063
 9288TIP3   OH249354   0.658   1.224  12.809  0.0861  0.2474 -0.3577
 9288TIP3    H149355   0.716   1.281  12.860 -0.1283  1.6096 -1.5443
 9288TIP3    H249356   0.653   1.143  12.858  1.2200  0.9117  0.8993
 9289TIP3   OH249357   3.620   2.045   2.011  0.4792  0.1996 -0.5325
 9289TIP3    H149358   3.640   2.092   2.092  2.1275  1.3077 -1.5165
 9289TIP3    H249359   3.704   2.007   1.984 -0.4245 -1.7066 -0.8057
 9290TIP3   OH249360   3.652   5.660   5.907  0.1847 -0.1052 -0.2462
 9290TIP3    H149361   3.576   5.640   5.853  0.8652 -1.2458 -0.8005
 9290TIP3    H249362   3.727   5.632   5.855  0.9610  0.4953  0.5237
 9291TIP3   OH249363   4.682   2.025  10.947  0.2789 -0.5067 -0.3024
 9291TIP3    H149364   4.762   2.034  10.895  1.2290  0.7237  1.2700
 9291TIP3    H249365   4.673   2.110  10.992 -2.3065 -0.3603 -0.9457
 9292TIP3   OH249366   1.734   4.856  13.149 -0.1106  0.1460 -0.4632
 9292TIP3    H149367   1.750   4.786  13.085 -0.5856 -0.4462  0.0597
 9292TIP3    H249368   1.655   4.899  13.117  1.6910  2.2992 -2.3703
 9293TIP3   OH249369   2.785   2.529  14.216  0.3960 -0.1591  0.1850
 9293TIP3    H149370   2.863   2.497  14.170  1.4046  0.2684  1.5479
 9293TIP3    H249371   2.807   2.618  14.241  0.1300 -0.5790  2.0328
 9294TIP3   OH249372   0.069   2.215   0.377 -0.5752  0.0298 -0.0267
 9294TIP3    H149373   0.041   2.251   0.293 -0.8554  1.0216  0.4779
 9294TIP3    H249374   0.123   2.284   0.416  0.0898 -0.6780  0.3280
 9295TIP3   OH249375   1.925   1.762   5.825  0.1493 -0.0501  0.2284
 9295TIP3    H149376   2.020   1.772   5.819  0.2643 -1.4115 -0.6032
 9295TIP3    H249377   1.898   1.829   5.888  1.5014  1.1635 -0.4273
 9296TIP3   OH249378   0.742   4.682   1.469  0.3344  0.0325  0.4829
 9296TIP3    H149379   0.829   4.695   1.431  0.4427 -2.4722 -0.3084
 9296TIP3    H249380   0.683   4.681   1.394 -0.3029  0.9517  0.9512
 9297TIP3   OH249381   5.223   2.944   3.188 -0.3743 -0.4567 -0.2672
 9297TIP3    H149382   5.235   3.022   3.134  0.6680 -1.4206 -1.4940
 9297TIP3    H249383   5.263   2.873   3.137  2.0475 -1.1847  2.4373
 9298TIP3   OH249384   1.397   4.007   4.196  0.2060  0.0724  0.0989
 9298TIP3    H149385   1.344   4.086   4.187  0.1540  0.0402  0.1251
 9298TIP3    H249386   1.475   4.024   4.142  0.9389  0.7769  1.3372
 9299TIP3   OH249387   5.609   4.758   1.383 -0.5315  0.2857 -0.0751
 9299TIP3    H149388   5.552   4.831   1.407  0.4293  1.0843 -0.1727
 9299TIP3    H249389   5.697   4.785   1.412 -0.2399 -1.0602  0.3832
 9300TIP3   OH249390   1.370   1.963  16.820  0.2967 -0.6642  0.1557
 9300TIP3    H149391   1.425   1.924  16.888 -0.5124  0.1616  1.3208
 9300TIP3    H249392   1.280   1.950  16.851 -0.0850 -0.1900 -0.7087
 9301TIP3   OH249393   4.726   0.743   5.755 -0.3432 -0.8266 -0.5180
 9301TIP3    H149394   4.789   0.683   5.716  0.9586  1.7655 -2.6787
 9301TIP3    H249395   4.680   0.781   5.681 -1.1532  0.7935  0.7607
 9302TIP3   OH249396   1.508   2.069   1.003  0.1048  0.6370 -0.4554
 9302TIP3    H149397   1.441   2.036   1.064  0.7271  0.3248  0.0680
 9302TIP3    H249398   1.517   1.999   0.938  1.4805 -0.3218  0.6987
 9303TIP3   OH249399   5.522   5.413  15.837  0.1885 -0.4370 -0.9728
 9303TIP3    H149400   5.521   5.429  15.743 -1.3452 -0.5141 -0.9907
 9303TIP3    H249401   5.608   5.445  15.866  0.1467  0.8547 -2.1837
 9304TIP3   OH249402   1.646   3.294   5.477 -0.0370  0.2949 -0.4419
 9304TIP3    H149403   1.714   3.357   5.452  0.5411 -0.7055 -1.4833
 9304TIP3    H249404   1.607   3.267   5.395 -0.1560 -0.8422 -0.0232
 9305TIP3   OH249405   3.448   3.396   2.499 -0.6485  0.4105 -0.1110
 9305TIP3    H149406   3.412   3.443   2.423 -0.8371  0.9770  0.3250
 9305TIP3    H249407   3.375   3.343   2.531 -0.7401  0.6238  0.0331
 9306TIP3   OH249408   5.883   4.200   4.900 -0.1043  0.1379  0.2051
 9306TIP3    H149409   5.855   4.269   4.960 -0.8810  2.9094 -3.0447
 9306TIP3    H249410   5.816   4.132   4.908 -1.5576  1.5663  0.6894
 9307TIP3   OH249411   0.973   2.854  15.909 -0.2665 -0.2497 -0.2480
 9307TIP3    H149412   0.943   2.908  15.836  2.1298  1.1630 -0.2800
 9307TIP3    H249413   1.015   2.778  15.867  1.8107  0.9443 -0.4482
 9308TIP3   OH249414   0.256   4.521  15.134 -0.2206  0.7061  0.2962
 9308TIP3    H149415   0.248   4.427  15.120  2.0070  0.6579 -1.0934
 9308TIP3    H249416   0.244   4.559  15.047  0.0524  1.6272  0.6515
 9309TIP3   OH249417   2.567   1.886  12.057 -0.2716 -0.1682 -0.0305
 9309TIP3    H149418   2.486   1.910  12.011 -0.9570 -1.3620  0.4988
 9309TIP3    H249419   2.636   1.896  11.992 -0.8847  0.6039 -0.5753
 9310TIP3   OH249420   0.232   4.693  11.477  0.5522 -0.2929 -0.7302
 9310TIP3    H149421   0.200   4.755  11.412  0.4054 -0.4279 -0.7870
 9310TIP3    H249422   0.328   4.699  11.471  0.5815  1.3712  0.6377
 9311TIP3   OH249423   5.065   6.740  17.069  0.0139 -0.1182  0.0182
 9311TIP3    H149424   5.034   6.831  17.065  0.5909  0.0601 -0.3964
 9311TIP3    H249425   4.985   6.688  17.062 -0.2062  0.3408 -1.0491
 9312TIP3   OH249426   2.840   0.766   5.427  0.3244  0.8451 -0.4612
 9312TIP3    H149427   2.889   0.684   5.417  1.4919  1.3867  0.6020
 9312TIP3    H249428   2.878   0.825   5.363  1.0427  1.2506  0.3289
 9313TIP3   OH249429   2.893   0.990   3.039  0.6813  0.0163 -0.0864
 9313TIP3    H149430   2.978   0.994   3.083  1.3481  0.5481 -1.3646
 9313TIP3    H249431   2.854   1.077   3.054  0.6029 -0.0396  0.0360
 9314TIP3   OH249432   4.867   1.337   0.806  0.1212 -0.3860  0.3000
 9314TIP3    H149433   4.866   1.249   0.769  1.2215 -0.8674  1.3357
 9314TIP3    H249434   4.857   1.395   0.731 -0.0005 -1.3757 -0.4689
 9315TIP3   OH249435   4.254   5.628   0.775 -0.1051 -0.0964 -0.2209
 9315TIP3    H149436   4.185   5.684   0.740  0.4339 -0.2086 -1.5155
 9315TIP3    H249437   4.211   5.544   0.790  0.0627 -0.6695 -2.5828
 9316TIP3   OH249438   4.591   0.944   4.589 -0.1425  0.7327  0.1202
 9316TIP3    H149439   4.500   0.962   4.564  0.6029  0.4985 -3.2379
 9316TIP3    H249440   4.642   1.009   4.542  1.6795 -1.9517 -1.9841
 9317TIP3   OH249441   5.670   6.404   2.449 -0.1293 -0.1007  0.7632
 9317TIP3    H149442   5.754   6.376   2.484  1.1320  1.7614 -0.5900
 9317TIP3    H249443   5.687   6.421   2.356 -1.9492  0.5182  0.5027
 9318TIP3   OH249444   1.016   6.349   0.687 -0.6152 -0.0482 -0.2837
 9318TIP3    H149445   1.025   6.255   0.669 -0.2986 -0.5104  1.9781
 9318TIP3    H249446   1.105   6.380   0.699 -0.7254  0.5378 -0.9286
 9319TIP3   OH249447   6.335   3.338   3.668  0.0132  0.5398  0.2695
 9319TIP3    H149448   6.350   3.370   3.756 -0.3596  0.6509  0.2951
 9319TIP3    H249449   6.240   3.324   3.663  0.0248  0.5794 -0.1261
 9320TIP3   OH249450   3.492   1.576   0.660  0.4312 -0.4124 -0.1756
 9320TIP3    H149451   3.548   1.650   0.638  0.8117 -0.4811  0.5301
 9320TIP3    H249452   3.496   1.519   0.583  1.6116 -0.5797 -0.0107
 9321TIP3   OH249453   6.387   5.426   4.887 -0.6447 -0.0401 -0.0677
 9321TIP3    H149454   6.372   5.497   4.949 -0.4791 -1.0663  1.2062
 9321TIP3    H249455   6.299   5.401   4.857 -0.8292 -0.2854  0.6552
 9322TIP3   OH249456   0.331   4.893   1.541 -0.4197 -0.4766  0.1384
 9322TIP3    H149457   0.347   4.977   1.498  2.7390 -0.8881  0.3360
 9322TIP3    H249458   0.298   4.836   1.471 -0.9491  0.4254 -0.3696
 9323TIP3   OH249459   6.597   5.619   6.319 -0.1218 -0.5148  0.1185
 9323TIP3    H149460   6.604   5.688   6.385  0.2251 -2.2539  2.0352
 9323TIP3    H249461   6.611   5.663   6.236  1.8829  1.4237  1.3809
 9324TIP3   OH249462   0.681   1.791  12.056  0.1244 -0.2438 -0.1120
 9324TIP3    H149463   0.627   1.827  11.985 -1.0849  1.9852  1.7925
 9324TIP3    H249464   0.723   1.868  12.095  0.1507 -1.2843  2.0309
 9325TIP3   OH249465   6.694   4.400   2.888 -0.0020 -0.2520  0.0308
 9325TIP3    H149466   6.681   4.324   2.944  0.0890 -0.0949  0.2684
 9325TIP3    H249467   6.667   4.475   2.942  0.7870 -0.0303  0.1313
 9326TIP3   OH249468   3.555   3.078   3.867 -0.9551  0.0582 -0.0819
 9326TIP3    H149469   3.531   3.163   3.829 -0.8387 -0.4894 -1.4285
 9326TIP3    H249470   3.601   3.101   3.948 -0.3148  1.3196 -0.7571
 9327TIP3   OH249471   3.991   2.713   5.892 -0.4718  0.1760  0.0608
 9327TIP3    H149472   4.052   2.768   5.845  0.9660 -0.8678  0.6336
 9327TIP3    H249473   3.941   2.668   5.823 -0.1677  0.5557 -0.4129
 9328TIP3   OH249474   3.136   2.387  12.666  0.4899  0.5220 -0.2119
 9328TIP3    H149475   3.227   2.378  12.638  0.4756  0.7322 -0.3282
 9328TIP3    H249476   3.140   2.380  12.761  0.5700  0.0566 -0.2474
 9329TIP3   OH249477   6.042   2.552   1.727 -0.0284 -0.5866  0.1362
 9329TIP3    H149478   5.975   2.486   1.708 -0.0075  0.0607 -2.7407
 9329TIP3    H249479   5.992   2.630   1.751 -0.1446 -1.0140  1.3161
 9330TIP3   OH249480   2.106   1.868   1.322 -0.7186  0.5477 -0.0815
 9330TIP3    H149481   2.168   1.798   1.300  0.9548  2.4979 -1.9758
 9330TIP3    H249482   2.078   1.847   1.411  1.4457 -1.3177  0.2672
 9331TIP3   OH249483   3.034   2.254   2.194  0.1526  0.5588  0.3280
 9331TIP3    H149484   2.940   2.239   2.197  0.3001 -0.5296 -0.0071
 9331TIP3    H249485   3.060   2.264   2.285  0.0860 -1.7835  0.6639
 9332TIP3   OH249486   6.014   0.026   5.718 -0.1394 -0.6398 -0.0205
 9332TIP3    H149487   6.028  -0.015   5.633 -2.8507  1.6535 -1.7431
 9332TIP3    H249488   5.976  -0.044   5.772  0.7534 -1.8888 -0.9360
 9333TIP3   OH249489   4.169   4.881   3.103 -0.3748 -0.0941  0.4759
 9333TIP3    H149490   4.133   4.961   3.141 -3.2757 -1.2080  0.2901
 9333TIP3    H249491   4.264   4.889   3.116 -0.3955  3.9153 -0.6678
 9334TIP3   OH249492   2.265   4.522  14.936  0.1246  0.1904 -0.1507
 9334TIP3    H149493   2.275   4.543  14.844  0.4353 -0.4179 -0.2609
 9334TIP3    H249494   2.326   4.450  14.951 -1.1278 -0.8580  0.1271
 9335TIP3   OH249495   5.623   6.354   0.216  0.1236 -0.3207 -0.1402
 9335TIP3    H149496   5.588   6.413   0.282  0.9325  0.1832 -0.1431
 9335TIP3    H249497   5.546   6.317   0.173 -0.4046 -0.4747  0.9209
 9336TIP3   OH249498   0.328   5.882  14.986  0.2560  0.0149  0.2496
 9336TIP3    H149499   0.413   5.899  15.026  0.5022 -0.1526 -0.1955
 9336TIP3    H249500   0.283   5.824  15.047  0.4418  0.1416  0.5081
 9337TIP3   OH249501   4.781   6.170   2.068 -0.1127 -0.0187 -0.0576
 9337TIP3    H149502   4.874   6.159   2.051 -0.1909  0.0465 -0.5304
 9337TIP3    H249503   4.747   6.081   2.077 -0.1777 -0.0809 -0.8396
 9338TIP3   OH249504   5.897   0.489   5.472 -0.4251 -0.1830 -0.1778
 9338TIP3    H149505   5.971   0.464   5.527 -0.1737  0.3055 -0.2852
 9338TIP3    H249506   5.871   0.408   5.428  1.2173 -0.0492 -1.5360
 9339TIP3   OH249507   2.440   2.917   6.240  0.1531 -0.4395 -0.3745
 9339TIP3    H149508   2.474   2.843   6.190  0.9448  0.1282 -0.6816
 9339TIP3    H249509   2.499   2.989   6.220 -0.8640  0.4011 -0.4258
 9340TIP3   OH249510   6.215   3.817  11.311 -0.2247  0.2773  0.4155
 9340TIP3    H149511   6.218   3.845  11.220  2.1799  0.7500  0.5689
 9340TIP3    H249512   6.180   3.728  11.308 -0.6662  0.4800 -0.9062
 9341TIP3   OH249513   1.129   3.428  13.048 -0.1778 -0.0994 -0.0341
 9341TIP3    H149514   1.180   3.395  12.973 -0.4167 -1.5920  0.4221
 9341TIP3    H249515   1.157   3.374  13.122 -1.6124 -0.1990  0.4664
 9342TIP3   OH249516   5.047   2.577  12.830  0.3210 -0.4246 -0.3435
 9342TIP3    H149517   5.062   2.584  12.924 -0.6888  1.4158 -0.2856
 9342TIP3    H249518   5.106   2.641  12.791 -0.0659 -0.3836 -0.8707
 9343TIP3   OH249519   3.364   1.234  11.293 -0.0401  0.7897 -0.2508
 9343TIP3    H149520   3.416   1.250  11.214  1.4113  1.8394  0.8441
 9343TIP3    H249521   3.282   1.280  11.278 -0.5203 -0.5004 -1.8394
 9344TIP3   OH249522   0.664   5.581  13.219 -0.5998  0.1107 -0.1825
 9344TIP3    H149523   0.721   5.625  13.157 -0.1157 -0.1620  0.0657
 9344TIP3    H249524   0.602   5.532  13.164 -1.1169  1.0419 -0.4580
 9345TIP3   OH249525   4.829   4.749   7.005 -0.1792 -0.2676  0.4197
 9345TIP3    H149526   4.809   4.735   6.913 -1.6124  0.4019  0.6030
 9345TIP3    H249527   4.854   4.841   7.011 -0.3651 -0.2359  0.7321
 9346TIP3   OH249528   1.339   1.986   1.268  0.4766  0.4277  0.0500
 9346TIP3    H149529   1.305   1.898   1.252  0.2904  0.5302 -0.1247
 9346TIP3    H249530   1.261   2.042   1.267  0.7542  0.8173 -1.4289
 9347TIP3   OH249531   3.528   3.252  13.533  0.1109  0.6070  0.1373
 9347TIP3    H149532   3.546   3.158  13.534 -1.6347  0.2423  0.1274
 9347TIP3    H249533   3.573   3.284  13.455 -1.1361 -0.6474 -1.1386
 9348TIP3   OH249534   5.955   4.525   2.120  0.4318 -0.2438  0.1077
 9348TIP3    H149535   5.946   4.613   2.158  2.0011 -0.4912  1.1586
 9348TIP3    H249536   5.893   4.471   2.168  2.2316 -0.5027  2.2979
 9349TIP3   OH249537   2.765   0.609   4.607 -0.3880 -0.6425 -0.3271
 9349TIP3    H149538   2.722   0.694   4.615 -1.7230 -1.4459  5.1418
 9349TIP3    H249539   2.697   0.551   4.574 -0.7108 -0.2541 -0.3539
 9350TIP3   OH249540   2.816   5.731   5.788 -0.2557 -0.0526 -0.2595
 9350TIP3    H149541   2.808   5.817   5.746 -0.6403 -0.6064 -1.3255
 9350TIP3    H249542   2.748   5.731   5.855 -0.3484  0.4185 -0.3499
 9351TIP3   OH249543   2.818   1.073  14.547  0.2316  0.1286  0.2709
 9351TIP3    H149544   2.847   1.004  14.488 -1.3394 -0.8614  0.5896
 9351TIP3    H249545   2.857   1.051  14.632  0.1147 -0.1026  0.2641
 9352TIP3   OH249546   2.067   6.695   0.485  0.4089 -0.1787  0.8218
 9352TIP3    H149547   2.125   6.625   0.458 -0.9770 -2.2800  2.8826
 9352TIP3    H249548   1.980   6.668   0.454 -0.0085  1.1469  0.7697
 9353TIP3   OH249549   0.506   5.455   5.567 -0.2676 -0.6588  0.0817
 9353TIP3    H149550   0.448   5.528   5.588 -1.9613 -1.6604 -0.8909
 9353TIP3    H249551   0.576   5.460   5.631 -0.5790  1.5493  0.3036
 9354TIP3   OH249552   1.795   5.152  11.499  0.2926  0.3473  0.1644
 9354TIP3    H149553   1.816   5.245  11.505 -0.5017  0.5058  0.6505
 9354TIP3    H249554   1.871   5.113  11.456  1.6039  0.8760  1.8781
 9355TIP3   OH249555   4.041   4.067  11.609 -0.4134 -0.5696 -0.2923
 9355TIP3    H149556   4.113   4.013  11.641 -1.5536 -2.1671 -0.2959
 9355TIP3    H249557   4.015   4.119  11.684 -0.2578 -1.1223  0.1512
 9356TIP3   OH249558   1.075   0.442  16.426  0.0067 -0.0418  0.4923
 9356TIP3    H149559   1.045   0.371  16.369  3.0188  0.2461 -1.6595
 9356TIP3    H249560   1.100   0.398  16.507 -1.9968 -0.7919  0.7820
 9357TIP3   OH249561   2.004   1.376   1.314 -0.1761 -0.4722  0.4338
 9357TIP3    H149562   2.056   1.305   1.351  1.5162  1.3817  1.8061
 9357TIP3    H249563   1.938   1.331   1.260  2.3500 -2.9496 -0.8364
 9358TIP3   OH249564   2.221   5.739   4.900 -0.6979 -0.0084 -0.5066
 9358TIP3    H149565   2.300   5.714   4.948 -1.5821 -1.4244  0.2675
 9358TIP3    H249566   2.213   5.673   4.830 -2.2885 -1.1736  0.6972
 9359TIP3   OH249567   4.436   2.336   1.584 -0.0025  0.2499 -0.0504
 9359TIP3    H149568   4.466   2.292   1.505  1.2407  1.9330 -0.5675
 9359TIP3    H249569   4.348   2.368   1.561 -1.1380 -2.2397  0.4983
 9360TIP3   OH249570   6.626   3.506  11.883 -0.2079  0.5279  0.0555
 9360TIP3    H149571   6.552   3.482  11.940 -0.0765 -1.4176 -0.5089
 9360TIP3    H249572   6.616   3.600  11.869 -2.7550  0.2920 -0.2086
 9361TIP3   OH249573   2.639   5.614   5.589  0.0445 -0.0342  0.4799
 9361TIP3    H149574   2.687   5.689   5.556 -2.0262  1.5806  0.9420
 9361TIP3    H249575   2.599   5.644   5.671 -1.8324 -1.2222  0.0656
 9362TIP3   OH249576   3.215   6.251   1.149  0.2261 -0.4744 -0.4531
 9362TIP3    H149577   3.283   6.284   1.209  0.4480  0.9285 -1.4367
 9362TIP3    H249578   3.264   6.210   1.078  0.1208  1.2821 -1.5914
 9363TIP3   OH249579   4.860   6.651  15.516  0.2520 -0.4253  0.6815
 9363TIP3    H149580   4.849   6.679  15.425  2.5933 -2.1367 -0.2602
 9363TIP3    H249581   4.797   6.580  15.527  1.7838 -2.1064 -0.6393
 9364TIP3   OH249582   2.929   0.055   1.765  0.5874  0.1445 -0.0606
 9364TIP3    H149583   2.844   0.027   1.800  1.0277  0.7672  1.5966
 9364TIP3    H249584   2.993  -0.000   1.810  1.2441  1.6462  0.9330
 9365TIP3   OH249585   4.658   2.475   1.722 -0.0895 -0.1111 -0.5314
 9365TIP3    H149586   4.627   2.413   1.656 -0.4984  1.2942 -1.7284
 9365TIP3    H249587   4.729   2.522   1.679 -1.3764  1.9011 -0.6156
 9366TIP3   OH249588   2.973   2.428   4.318  0.4377 -0.1319  0.0329
 9366TIP3    H149589   2.949   2.335   4.313 -0.0438  0.0441 -1.4816
 9366TIP3    H249590   3.029   2.434   4.396  1.3077 -1.8677 -0.4047
 9367TIP3   OH249591   5.911   3.612  15.050 -0.5145 -0.3138 -0.2851
 9367TIP3    H149592   5.909   3.596  15.144 -1.1978  1.2323  0.0052
 9367TIP3    H249593   6.004   3.627  15.030 -0.5622  1.2557  0.5350
 9368TIP3   OH249594   3.456   5.805   1.633  0.4045  0.2719 -0.4866
 9368TIP3    H149595   3.520   5.734   1.639 -0.6918 -0.6527  0.8810
 9368TIP3    H249596   3.460   5.847   1.719  0.4485  1.3603 -1.0067
 9369TIP3   OH249597   2.839   4.788   1.252 -0.3526 -0.0141  0.1344
 9369TIP3    H149598   2.926   4.811   1.220 -0.7371  0.4335 -0.6039
 9369TIP3    H249599   2.813   4.862   1.306 -0.6349  0.2588 -0.3666
 9370TIP3   OH249600   4.978   3.200  14.023 -0.4333  0.1263  0.1630
 9370TIP3    H149601   4.931   3.123  14.057  1.1302 -0.5271  0.9278
 9370TIP3    H249602   4.985   3.183  13.929 -0.5667 -0.4158  0.2440
 9371TIP3   OH249603   2.442   1.865   4.112  0.2302 -0.1337 -0.6027
 9371TIP3    H149604   2.482   1.949   4.134 -0.2038  0.3196 -1.5451
 9371TIP3    H249605   2.348   1.881   4.116  0.1335 -0.7885  0.0045
 9372TIP3   OH249606   4.852   0.952  14.361 -0.2342  0.6196 -0.5512
 9372TIP3    H149607   4.878   0.865  14.391 -0.0437  0.3087 -1.5791
 9372TIP3    H249608   4.929   1.006  14.376 -1.1902  1.2915  2.5862
 9373TIP3   OH249609   2.956   3.055  11.951 -0.4066  0.1568 -0.2623
 9373TIP3    H149610   2.887   3.077  11.889 -1.2269 -2.0084 -0.2068
 9373TIP3    H249611   3.025   3.017  11.897 -1.0767 -1.6273  0.0466
 9374TIP3   OH249612   1.685   3.194  12.188  0.3721 -0.1271  0.6536
 9374TIP3    H149613   1.677   3.099  12.191  1.1166 -0.1842  1.4322
 9374TIP3    H249614   1.597   3.225  12.167  0.2477 -0.9997 -0.1884
 9375TIP3   OH249615   3.993   1.476  15.585 -0.1574 -0.0393  0.0116
 9375TIP3    H149616   4.034   1.530  15.518  0.3287  1.0970  1.1888
 9375TIP3    H249617   3.970   1.537  15.655 -0.7302 -1.1779  0.8567
 9376TIP3   OH249618   0.406   3.813  11.427 -0.1354  0.1291  0.0213
 9376TIP3    H149619   0.368   3.845  11.510 -1.4489 -1.1731 -0.0394
 9376TIP3    H249620   0.373   3.874  11.361  0.5260  0.8913  0.3746
 9377TIP3   OH249621   3.572   1.844   3.021 -0.0453  0.3809 -0.7662
 9377TIP3    H149622   3.528   1.799   3.093 -4.5823  2.3387 -1.9433
 9377TIP3    H249623   3.520   1.821   2.944  2.7837  0.7651 -2.9267
 9378TIP3   OH249624   6.503   2.589  15.513 -0.2297  0.4028  0.1677
 9378TIP3    H149625   6.563   2.541  15.571  1.4885  0.9734 -1.0614
 9378TIP3    H249626   6.556   2.662  15.479 -0.7539 -0.5360 -2.9881
 9379TIP3   OH249627   0.355   0.177   0.515  0.3798  0.2072 -0.1031
 9379TIP3    H149628   0.437   0.224   0.498  0.6250  0.3340  1.2804
 9379TIP3    H249629   0.382   0.097   0.560 -0.2960  0.8925  1.6415
 9380TIP3   OH249630   2.514   4.048  14.282  0.5583  0.0620  0.7207
 9380TIP3    H149631   2.566   4.017  14.208  1.5490  0.0715  1.3936
 9380TIP3    H249632   2.427   4.064  14.245  1.0876  0.2732 -0.4797
 9381TIP3   OH249633   2.981   3.431   1.195 -0.6829  0.1566  0.1982
 9381TIP3    H149634   2.944   3.417   1.108  0.9129  0.4071 -0.5687
 9381TIP3    H249635   3.050   3.365   1.203  1.1761  1.9746  0.0263
 9382TIP3   OH249636   3.116   3.390  17.408  0.3204 -0.0972 -0.1768
 9382TIP3    H149637   3.073   3.306  17.393 -1.7803  0.7130  0.8712
 9382TIP3    H249638   3.183   3.371  17.473  0.2557 -1.0765 -0.3790
 9383TIP3   OH249639   0.572   1.565   3.745  0.1138  0.2266  0.5189
 9383TIP3    H149640   0.643   1.501   3.751 -0.4459 -0.5559 -0.7082
 9383TIP3    H249641   0.602   1.627   3.678 -1.0848 -1.1590 -1.4052
 9384TIP3   OH249642   2.206   1.598  12.419  0.1137 -0.4086 -0.6230
 9384TIP3    H149643   2.181   1.546  12.496 -0.5925  0.2046 -0.4231
 9384TIP3    H249644   2.131   1.590  12.360  0.6511 -0.8665 -1.2499
 9385TIP3   OH249645   1.839   2.583  11.473  0.2275  0.0125 -0.0249
 9385TIP3    H149646   1.820   2.539  11.390 -1.0837  1.0528 -0.3246
 9385TIP3    H249647   1.906   2.648  11.450 -0.7646  0.8939 -0.4859
 9386TIP3   OH249648   5.094   2.620  17.194 -0.2530 -0.0331 -0.1349
 9386TIP3    H149649   5.025   2.614  17.127  1.6460 -0.2063 -2.1738
 9386TIP3    H249650   5.109   2.714  17.205 -0.7944  0.0067  0.3451
 9387TIP3   OH249651   2.903   5.897  12.056  0.3243  0.4470 -0.0273
 9387TIP3    H149652   2.820   5.878  12.011  0.2617  1.3365 -0.3034
 9387TIP3    H249653   2.891   5.861  12.144  0.3065 -0.9793 -0.5798
 9388TIP3   OH249654   1.592   6.322  16.700 -0.0517  0.2020  0.4303
 9388TIP3    H149655   1.673   6.373  16.699 -0.7074  1.2868 -0.8131
 9388TIP3    H249656   1.619   6.235  16.670  0.7964  0.3114  0.8489
 9389TIP3   OH249657   1.578   4.293  13.852  0.4735 -0.0320 -0.2739
 9389TIP3    H149658   1.598   4.300  13.946  1.2805 -1.3344 -0.3155
 9389TIP3    H249659   1.634   4.222  13.821 -0.4092 -0.2028 -1.5689
 9390TIP3   OH249660   4.138   0.338  14.393 -0.1394  0.3660  0.4636
 9390TIP3    H149661   4.190   0.259  14.407 -2.0082 -1.2661 -1.2496
 9390TIP3    H249662   4.081   0.317  14.319 -1.5286  2.9328  0.6851
 9391TIP3   OH249663   3.486   5.554  11.294  0.0536 -0.1581 -0.7456
 9391TIP3    H149664   3.574   5.589  11.280 -0.6293  1.1105 -2.0700
 9391TIP3    H249665   3.496   5.496  11.370  2.3645 -1.3514 -1.8420
 9392TIP3   OH249666   4.911   6.351  17.032  0.2971  0.7056  0.2523
 9392TIP3    H149667   4.905   6.436  16.988 -1.0591  0.4922 -0.0092
 9392TIP3    H249668   4.857   6.361  17.110  0.4149  0.1800  0.4023
 9393TIP3   OH249669   2.633   0.035   3.085  0.3359  0.2816  0.2961
 9393TIP3    H149670   2.704   0.032   3.021  0.9991 -1.0928  1.0291
 9393TIP3    H249671   2.605  -0.056   3.093 -0.1131  0.5059  1.5283
 9394TIP3   OH249672   5.436   1.962   4.929  0.1608  0.5835  0.2572
 9394TIP3    H149673   5.494   1.938   5.001  1.1307  0.9637 -0.3688
 9394TIP3    H249674   5.493   2.007   4.866 -0.7446  0.6458 -0.5509
 9395TIP3   OH249675   4.094   6.600   3.080  0.2162 -0.3995  0.4433
 9395TIP3    H149676   4.118   6.515   3.043 -0.2407 -0.3280 -0.0248
 9395TIP3    H249677   4.056   6.578   3.165 -0.7195 -0.7503 -0.0443
 9396TIP3   OH249678   1.932   0.668  17.027  0.1317 -0.0712  0.6698
 9396TIP3    H149679   1.869   0.653  16.956  1.4849 -1.4846 -0.2831
 9396TIP3    H249680   1.944   0.582  17.067  0.5674  0.4194  1.6286
 9397TIP3   OH249681   3.850   2.512  14.131  0.7417 -0.4324  0.1059
 9397TIP3    H149682   3.874   2.427  14.169 -0.4155  0.1301  2.2518
 9397TIP3    H249683   3.759   2.500  14.103  0.0203  0.5308  1.9258
 9398TIP3   OH249684   1.339   3.663  15.209 -0.2639  0.3343  0.3475
 9398TIP3    H149685   1.279   3.728  15.247  1.6595  2.0892  0.6051
 9398TIP3    H249686   1.357   3.603  15.280 -0.2969  0.8873  0.8335
 9399TIP3   OH249687   3.654   0.246   2.786 -0.8428 -0.0371  0.1003
 9399TIP3    H149688   3.598   0.174   2.757  0.5440 -0.2729 -2.1455
 9399TIP3    H249689   3.670   0.297   2.707  2.1889 -0.0494  0.6078
 9400TIP3   OH249690   4.181   3.669   2.537  0.1448  0.3767 -0.4600
 9400TIP3    H149691   4.203   3.614   2.612 -0.0668 -1.0055 -1.3833
 9400TIP3    H249692   4.090   3.694   2.552 -0.3063 -0.9526 -0.8683
 9401TIP3   OH249693   2.560   4.129   3.602  0.2003  0.3953  0.0024
 9401TIP3    H149694   2.547   4.132   3.507  0.1527  1.7948  0.0319
 9401TIP3    H249695   2.473   4.113   3.638 -0.1053  1.6467 -0.1366
 9402TIP3   OH249696   6.633   0.429  11.343  0.6951  0.1961 -0.4858
 9402TIP3    H149697   6.547   0.440  11.383  0.9674  0.0648  0.1476
 9402TIP3    H249698   6.695   0.443  11.415  1.3109  2.5812 -1.3761
 9403TIP3   OH249699   2.105   3.626   4.991  0.1667 -0.4280  0.1302
 9403TIP3    H149700   2.077   3.621   4.900 -2.8476  1.6511  0.8043
 9403TIP3    H249701   2.092   3.538   5.025  0.2253 -0.9495 -1.1531
 9404TIP3   OH249702   2.369   5.370  11.246  0.1515  0.4849 -0.8937
 9404TIP3    H149703   2.417   5.289  11.232 -0.8365 -0.3629  0.4265
 9404TIP3    H249704   2.301   5.347  11.309 -0.6108  2.1685 -1.0571
 9405TIP3   OH249705   6.297   4.238   5.791  0.3445 -0.1809  0.0946
 9405TIP3    H149706   6.351   4.309   5.826  1.6581 -0.0482 -2.0089
 9405TIP3    H249707   6.207   4.269   5.802  0.8127  1.0298  0.7773
 9406TIP3   OH249708   4.894   0.694   5.085 -0.4659  0.2373  0.2345
 9406TIP3    H149709   4.922   0.633   5.016  1.3694  1.2996 -0.0185
 9406TIP3    H249710   4.974   0.716   5.132 -0.9716  2.7177  0.0774
 9407TIP3   OH249711   2.217   6.011   5.801  0.0182 -0.4868 -0.0913
 9407TIP3    H149712   2.301   5.968   5.818  0.1564 -0.0050  0.4689
 9407TIP3    H249713   2.164   5.991   5.877 -0.0661 -0.0362 -0.0323
 9408TIP3   OH249714   3.609   2.007   5.569 -0.2316 -0.2083 -0.4019
 9408TIP3    H149715   3.631   2.009   5.476  1.1138 -2.1451 -0.1891
 9408TIP3    H249716   3.532   1.950   5.574  0.3699 -1.0174 -0.2362
 9409TIP3   OH249717   3.242   4.646  16.530 -0.2844  0.1926 -0.4496
 9409TIP3    H149718   3.285   4.566  16.499  1.1750 -0.5862  3.0567
 9409TIP3    H249719   3.148   4.629  16.518  0.0350 -1.6089 -0.7152
 9410TIP3   OH249720   0.232   6.058   2.226 -0.3090  0.5035 -0.3785
 9410TIP3    H149721   0.204   5.967   2.214 -2.1372  1.2463 -2.2161
 9410TIP3    H249722   0.151   6.109   2.224  0.7190  2.2474  0.1108
 9411TIP3   OH249723   2.740   0.361  11.213 -0.1728  0.0195 -0.1801
 9411TIP3    H149724   2.697   0.433  11.167  0.8618  0.5111 -0.3934
 9411TIP3    H249725   2.765   0.398  11.298  0.8413  0.0985 -0.4945
 9412TIP3   OH249726   3.906   5.389   2.100 -0.2715 -0.3594  0.0080
 9412TIP3    H149727   3.891   5.427   2.187 -1.3516  0.5891 -0.5639
 9412TIP3    H249728   3.891   5.462   2.040  0.8276 -0.9035 -0.9744
 9413TIP3   OH249729   3.705   2.288   1.095  0.4113  0.5495  0.3066
 9413TIP3    H149730   3.638   2.316   1.157  1.5953  2.9534  0.6038
 9413TIP3    H249731   3.753   2.368   1.073  2.3430 -0.8527 -0.9069
 9414TIP3   OH249732   4.170   6.027  17.324 -0.2200 -0.6302 -0.2147
 9414TIP3    H149733   4.091   6.011  17.376 -0.7795  0.6411 -0.6341
 9414TIP3    H249734   4.174   5.953  17.264 -1.5855 -0.2883 -0.7683
 9415TIP3   OH249735   0.379   2.499   0.816  0.0863  0.0186  0.4504
 9415TIP3    H149736   0.436   2.470   0.745  0.9953  1.8672  0.3706
 9415TIP3    H249737   0.387   2.430   0.883  0.1516 -1.1459 -0.7301
 9416TIP3   OH249738   3.074   0.314   0.090 -0.9073 -0.4286  0.0512
 9416TIP3    H149739   2.997   0.307   0.147 -0.5995  0.2363  0.5582
 9416TIP3    H249740   3.136   0.251   0.126 -0.3958  0.5770  0.9801
 9417TIP3   OH249741   4.321   0.889   3.849 -0.1499  0.2945  0.2296
 9417TIP3    H149742   4.274   0.920   3.772  0.5433 -2.1774 -1.3176
 9417TIP3    H249743   4.410   0.874   3.818 -0.1005 -1.7256  1.1656
 9418TIP3   OH249744   2.166   6.752  11.827  0.5448 -0.2636 -0.3438
 9418TIP3    H149745   2.093   6.740  11.888  0.7601  0.6514  0.1145
 9418TIP3    H249746   2.243   6.721  11.875  0.6865  0.2785 -0.2175
 9419TIP3   OH249747   3.189   6.473   0.891 -0.1794  0.2742 -0.2410
 9419TIP3    H149748   3.143   6.535   0.948 -1.7763 -1.4427  0.4649
 9419TIP3    H249749   3.121   6.442   0.831  0.4172 -1.1546 -0.2138
 9420TIP3   OH249750   1.514   0.013   4.740  0.5776  0.1317  0.2633
 9420TIP3    H149751   1.461   0.009   4.661 -0.1994 -0.8333  0.8258
 9420TIP3    H249752   1.599  -0.022   4.713 -0.0663 -1.3966  0.1596
 9421TIP3   OH249753   6.178   2.254   0.703  0.3009 -0.1566  0.0642
 9421TIP3    H149754   6.098   2.230   0.657 -0.2650  4.5809 -2.0467
 9421TIP3    H249755   6.243   2.189   0.675 -1.9435 -2.1875 -0.7802
 9422TIP3   OH249756   6.440   3.601  12.559  0.3191  0.5104 -0.1602
 9422TIP3    H149757   6.507   3.642  12.613 -0.2085  1.0785  0.0759
 9422TIP3    H249758   6.487   3.534  12.509  0.9712  0.5740  0.3514
 9423TIP3   OH249759   0.249   4.612  12.899 -0.0077 -0.5523 -0.5191
 9423TIP3    H149760   0.242   4.679  12.967 -0.3868 -1.1836  0.0682
 9423TIP3    H249761   0.165   4.566  12.901 -0.7826  0.5678 -2.6593
 9424TIP3   OH249762   6.716   4.728  14.053  0.5353  0.5190  0.6355
 9424TIP3    H149763   6.794   4.687  14.091  0.3692 -2.2945 -1.6996
 9424TIP3    H249764   6.746   4.767  13.971 -0.4359 -0.4745 -0.2256
 9425TIP3   OH249765   3.723   1.668   3.473  0.2134 -0.4916  0.2083
 9425TIP3    H149766   3.682   1.584   3.454  0.5545 -0.3717 -1.2082
 9425TIP3    H249767   3.773   1.654   3.552  0.9513 -1.8755 -0.4778
 9426TIP3   OH249768   5.531   0.628   5.522 -0.2462 -0.1272  1.3716
 9426TIP3    H149769   5.594   0.572   5.568 -0.1826  0.0897  1.5447
 9426TIP3    H249770   5.450   0.577   5.520  0.0617 -0.6165  0.7224
 9427TIP3   OH249771   2.529   2.023  11.217  0.3809  0.0421 -0.1395
 9427TIP3    H149772   2.584   1.988  11.147  0.9865 -0.3085  0.4987
 9427TIP3    H249773   2.476   1.948  11.245 -0.9522  0.5408 -1.2205
 9428TIP3   OH249774   3.712   6.424  13.896  0.1589 -0.4835 -0.2259
 9428TIP3    H149775   3.650   6.498  13.894  0.3212 -0.3094  0.7415
 9428TIP3    H249776   3.795   6.462  13.867  0.6504  0.1496  1.8237
 9429TIP3   OH249777   3.559   1.149  12.732  0.4711 -0.0073  0.0093
 9429TIP3    H149778   3.573   1.059  12.703  0.0585 -0.4184  1.0439
 9429TIP3    H249779   3.601   1.154  12.818 -0.2959  0.5276  0.3613
 9430TIP3   OH249780   4.770   3.982   6.709 -0.0954 -0.3895  0.1176
 9430TIP3    H149781   4.783   3.895   6.671  0.3499 -0.9504  1.4898
 9430TIP3    H249782   4.680   4.004   6.685  0.5543 -0.0964 -2.3758
 9431TIP3   OH249783   4.481   5.126  15.186 -0.0906  0.6017 -0.9346
 9431TIP3    H149784   4.524   5.207  15.212 -0.2656  0.7717 -1.1685
 9431TIP3    H249785   4.424   5.103  15.259  1.4257 -0.3785 -0.0078
 9432TIP3   OH249786   5.151   0.995  12.538 -0.1273  0.0662  0.1951
 9432TIP3    H149787   5.114   1.077  12.569 -0.8943  0.2740 -1.1567
 9432TIP3    H249788   5.080   0.932  12.547  0.3422 -0.3615  0.8913
 9433TIP3   OH249789   4.691   1.567   2.704  0.0053  0.2080 -0.8439
 9433TIP3    H149790   4.686   1.562   2.799  0.7639 -1.2142 -0.8394
 9433TIP3    H249791   4.609   1.607   2.677 -0.3395  0.3660  0.3916
 9434TIP3   OH249792   2.942   2.805  12.095  0.0044  0.4995  0.1004
 9434TIP3    H149793   2.902   2.876  12.044  0.8908  2.4768  2.0048
 9434TIP3    H249794   2.868   2.766  12.144 -0.5760 -0.3401 -1.3730
 9435TIP3   OH249795   3.018   3.153   0.728 -0.2596  0.2366  0.2419
 9435TIP3    H149796   3.104   3.174   0.691 -0.0327 -0.0648  0.5753
 9435TIP3    H249797   2.960   3.146   0.653 -0.0941  0.9039  0.0484
 9436TIP3   OH249798   4.845   3.544  13.380  0.2595 -0.1386 -0.1424
 9436TIP3    H149799   4.885   3.521  13.295 -0.6401  0.3230 -0.7008
 9436TIP3    H249800   4.754   3.516  13.372 -0.5990  2.5116 -0.4260
 9437TIP3   OH249801   3.758   3.669   5.442  0.2618  0.1429 -0.0228
 9437TIP3    H149802   3.692   3.696   5.506  0.5387  0.9369 -0.0646
 9437TIP3    H249803   3.757   3.738   5.376  1.2862  0.2748  0.0888
 9438TIP3   OH249804   2.269   3.724  14.599  0.2106 -0.4190 -0.5415
 9438TIP3    H149805   2.198   3.669  14.565  0.0061 -0.8738  0.5918
 9438TIP3    H249806   2.325   3.740  14.523 -1.1155 -0.0144 -1.4769
 9439TIP3   OH249807   1.407   4.739  13.080 -0.3663  0.3132  0.1913
 9439TIP3    H149808   1.434   4.682  13.152 -0.3767  0.2375  0.1350
 9439TIP3    H249809   1.363   4.812  13.123 -0.2057  0.3633  0.2738
 9440TIP3   OH249810   4.198   2.482  15.589 -0.3779 -0.2715 -0.4565
 9440TIP3    H149811   4.291   2.502  15.599 -0.2264 -0.0762 -2.0140
 9440TIP3    H249812   4.196   2.405  15.532 -1.1440 -1.3803  0.9868
 9441TIP3   OH249813   6.239   6.142  17.305  0.0540 -0.6040  0.9840
 9441TIP3    H149814   6.183   6.169  17.378 -0.4006 -1.5243  0.9893
 9441TIP3    H249815   6.284   6.064  17.336  2.1327  0.6707  1.3418
 9442TIP3   OH249816   6.068   5.305   2.232 -0.1862  0.5303 -0.2582
 9442TIP3    H149817   6.022   5.277   2.153 -3.1935  0.3824  1.4201
 9442TIP3    H249818   6.101   5.393   2.211  1.4690 -0.5349 -2.4983
 9443TIP3   OH249819   4.212   5.408   2.158  0.0158  0.1141 -0.4085
 9443TIP3    H149820   4.162   5.452   2.090  1.5996  0.8017 -1.1878
 9443TIP3    H249821   4.281   5.361   2.110  1.9782  1.6848  0.7294
 9444TIP3   OH249822   5.953   3.645   1.926  0.0843 -0.0480  0.4140
 9444TIP3    H149823   5.973   3.712   1.991 -2.4774  0.8916  0.3466
 9444TIP3    H249824   5.874   3.602   1.958 -0.4628 -0.4837 -1.3862
 9445TIP3   OH249825   1.656   6.600  16.512 -0.5283  0.4769  0.0683
 9445TIP3    H149826   1.712   6.672  16.538 -1.1389  1.4683 -1.2600
 9445TIP3    H249827   1.716   6.535  16.475 -0.1325  0.9641 -0.1490
 9446TIP3   OH249828   3.586   0.653  11.732 -0.7001 -0.6701 -0.3871
 9446TIP3    H149829   3.572   0.745  11.709 -2.2421 -0.3935  1.4830
 9446TIP3    H249830   3.560   0.605  11.653 -1.5345  0.4074 -0.7885
 9447TIP3   OH249831   4.481   4.409   4.447 -0.2690 -0.1302 -0.0161
 9447TIP3    H149832   4.393   4.370   4.443  0.0658 -0.9777  0.5925
 9447TIP3    H249833   4.471   4.484   4.505 -0.5170 -0.4556  0.3704
 9448TIP3   OH249834   6.390   4.359  11.088  0.5647 -0.1725 -0.3444
 9448TIP3    H149835   6.440   4.348  11.007  0.9616 -1.4233  0.0387
 9448TIP3    H249836   6.379   4.270  11.122  0.2080  0.3024  0.8577
 9449TIP3   OH249837   3.967   4.602   0.049  0.1359 -0.0833  0.2978
 9449TIP3    H149838   3.962   4.675   0.111 -0.0397  0.7946 -0.7356
 9449TIP3    H249839   3.884   4.556   0.059  0.4286 -0.4281  1.2765
 9450TIP3   OH249840   4.291   3.688  10.440  0.2017  0.1508  0.0484
 9450TIP3    H149841   4.376   3.693  10.483 -0.0882  2.0800  0.5161
 9450TIP3    H249842   4.248   3.771  10.462 -0.8353  0.2828 -2.1608
 9451TIP3   OH249843   3.916   5.993  15.836 -0.3004  0.3804  0.3963
 9451TIP3    H149844   3.955   6.062  15.890  0.4661  1.1587 -1.0958
 9451TIP3    H249845   3.840   5.963  15.887 -0.0474  1.5956  1.5551
 9452TIP3   OH249846   3.768   0.755  13.765  0.4717  0.3881 -0.3176
 9452TIP3    H149847   3.707   0.682  13.779  1.3963 -0.2065  0.7988
 9452TIP3    H249848   3.712   0.828  13.739 -0.4615 -0.7486 -1.6739
 9453TIP3   OH249849   3.112   2.752  11.111 -0.7664 -0.2992 -0.5005
 9453TIP3    H149850   3.121   2.659  11.092 -0.2793 -0.0167 -1.7501
 9453TIP3    H249851   3.022   2.762  11.141 -0.7169 -1.2212 -0.0310
 9454TIP3   OH249852   5.521   1.305  14.014 -0.4670 -0.5835  0.0262
 9454TIP3    H149853   5.441   1.264  14.047  1.4331 -2.3970  2.8422
 9454TIP3    H249854   5.548   1.250  13.941 -1.1542 -0.6826 -0.1587
 9455TIP3   OH249855   2.342   3.386   4.169 -0.7562  0.1672 -0.4757
 9455TIP3    H149856   2.435   3.399   4.150 -0.1558 -0.8138  1.5105
 9455TIP3    H249857   2.331   3.291   4.169 -1.4201  0.2228  0.6353
 9456TIP3   OH249858   3.707   4.398   5.668  0.5145  0.1560 -0.2915
 9456TIP3    H149859   3.682   4.387   5.760  0.5156  2.1800 -0.0060
 9456TIP3    H249860   3.789   4.350   5.659  0.6056  0.0855  0.8170
 9457TIP3   OH249861   5.873   4.458  15.053 -0.1166  0.3037  0.1250
 9457TIP3    H149862   5.923   4.491  14.978  1.9383 -2.6902  0.0168
 9457TIP3    H249863   5.913   4.499  15.129  0.5165  0.2223 -0.1615
 9458TIP3   OH249864   5.170   1.942   0.639 -0.0471  0.2002 -0.7886
 9458TIP3    H149865   5.116   2.021   0.645  0.6415  0.6058  0.4470
 9458TIP3    H249866   5.200   1.927   0.729  2.8281  0.6611 -1.5744
 9459TIP3   OH249867   2.388   0.168  15.063  0.2593  0.3301 -0.1118
 9459TIP3    H149868   2.419   0.248  15.020  0.4317  1.2647  1.6273
 9459TIP3    H249869   2.408   0.182  15.156  1.1634 -2.1693  0.1376
 9460TIP3   OH249870   0.138   2.164   2.875 -0.0512  0.0445  0.8926
 9460TIP3    H149871   0.134   2.069   2.863  0.1769 -0.3163  3.1988
 9460TIP3    H249872   0.229   2.186   2.857 -0.4725  0.1582 -1.3816
 9461TIP3   OH249873   3.620   4.984   0.617 -0.5004 -0.5688 -0.0585
 9461TIP3    H149874   3.708   4.958   0.588 -0.3601  0.9314 -1.1152
 9461TIP3    H249875   3.598   4.923   0.687  1.0248 -1.5260 -0.3776
 9462TIP3   OH249876   5.621   1.722   1.352 -0.4515  0.1733 -0.0171
 9462TIP3    H149877   5.542   1.771   1.326  0.3302  2.0082  0.8636
 9462TIP3    H249878   5.591   1.664   1.422 -1.5762 -1.2900 -1.6487
 9463TIP3   OH249879   3.559   2.097   1.683 -0.3286  0.5985 -0.7002
 9463TIP3    H149880   3.651   2.080   1.701  0.0131  1.9825 -1.0403
 9463TIP3    H249881   3.512   2.043   1.747  0.6938 -0.2711 -0.6499
 9464TIP3   OH249882   0.021   6.206   1.248 -0.1180  0.2938  0.2525
 9464TIP3    H149883  -0.023   6.288   1.225 -0.3844 -0.6096 -2.9104
 9464TIP3    H249884   0.090   6.197   1.182  0.5104 -1.5585  1.1073
 9465TIP3   OH249885   6.133   1.428  10.986 -0.0333  0.0301  0.3098
 9465TIP3    H149886   6.215   1.379  10.995  0.9412  1.1277 -1.7767
 9465TIP3    H249887   6.088   1.386  10.913 -0.4565  0.5828  0.2478
 9466TIP3   OH249888   1.499   4.325  16.493 -0.2995  0.0605 -0.3155
 9466TIP3    H149889   1.574   4.266  16.503 -0.0374  0.7382  2.4758
 9466TIP3    H249890   1.435   4.273  16.444  1.4761 -0.9990 -1.6214
 9467TIP3   OH249891   0.541   4.626  16.096  0.1383  0.0785  0.5752
 9467TIP3    H149892   0.514   4.718  16.101 -0.5547 -0.1307  0.7441
 9467TIP3    H249893   0.503   4.586  16.174  0.4314 -0.3553  0.4940
 9468TIP3   OH249894   5.215   2.168  12.441 -0.7946  0.2699  0.7631
 9468TIP3    H149895   5.262   2.247  12.415 -0.1262 -0.5700 -0.7053
 9468TIP3    H249896   5.202   2.178  12.535 -0.4237  1.9575  0.6719
 9469TIP3   OH249897   2.154   0.564   3.465  0.3167 -0.0350  0.2345
 9469TIP3    H149898   2.206   0.596   3.539  2.0887 -0.6379 -0.6849
 9469TIP3    H249899   2.204   0.489   3.432 -1.8608 -1.5169  0.1148
 9470TIP3   OH249900   3.124   4.005  14.644 -0.2293  0.5270  0.1220
 9470TIP3    H149901   3.155   3.946  14.712  0.7407  2.3976  1.3915
 9470TIP3    H249902   3.129   3.953  14.563  1.1733 -0.9167  1.0735
 9471TIP3   OH249903   1.855   3.284   4.727  0.3636 -0.4666  0.2994
 9471TIP3    H149904   1.840   3.350   4.795  0.3604  1.4864 -1.5043
 9471TIP3    H249905   1.945   3.255   4.741  1.0021  1.2886  0.0398
 9472TIP3   OH249906   0.711   0.431   1.878 -0.3536  0.0964  0.3075
 9472TIP3    H149907   0.799   0.395   1.882 -0.3777 -0.1235 -0.7506
 9472TIP3    H249908   0.678   0.424   1.967  1.4034  2.0228  1.1704
 9473TIP3   OH249909   5.000   0.355  15.194 -0.0212 -0.6128 -0.5595
 9473TIP3    H149910   4.991   0.387  15.104 -0.8046  0.2920 -0.1748
 9473TIP3    H249911   4.925   0.298  15.207 -0.6275  0.2664 -0.0830
 9474TIP3   OH249912   3.527   0.787  12.250  0.3588  0.6046 -0.0768
 9474TIP3    H149913   3.530   0.765  12.157  0.6238  2.1570 -0.4636
 9474TIP3    H249914   3.439   0.760  12.278  1.3060 -2.9043  0.0976
 9475TIP3   OH249915   2.220   1.190   5.724  0.7260 -0.2554  0.0657
 9475TIP3    H149916   2.224   1.101   5.758  0.1663  0.3794  1.9194
 9475TIP3    H249917   2.148   1.188   5.660 -0.5322 -0.7448  1.4410
 9476TIP3   OH249918   6.439   0.126   0.329 -0.0090  0.8550 -0.5095
 9476TIP3    H149919   6.527   0.158   0.310  0.8389 -1.7586 -1.5400
 9476TIP3    H249920   6.453   0.036   0.359 -2.3786 -0.1315 -2.0949
 9477TIP3   OH249921   2.985   5.843   4.410  0.0609 -0.2089  0.1122
 9477TIP3    H149922   3.023   5.756   4.425 -0.6637 -0.6449 -0.4984
 9477TIP3    H249923   2.950   5.839   4.321  0.2094  0.7887  0.0023
 9478TIP3   OH249924   2.666   4.600  16.550  0.2588 -0.1073  0.2291
 9478TIP3    H149925   2.697   4.691  16.552 -0.3545  0.1164 -0.2681
 9478TIP3    H249926   2.571   4.607  16.541  0.3757 -0.7812 -2.1161
 9479TIP3   OH249927   1.363   0.658  15.222  0.5164  0.8313 -0.0835
 9479TIP3    H149928   1.423   0.689  15.290 -0.7457  2.6736  0.2618
 9479TIP3    H249929   1.350   0.565  15.242  0.0984  1.3341  2.3210
 9480TIP3   OH249930   3.543   6.187  16.316 -0.6736  0.1021 -0.2761
 9480TIP3    H149931   3.490   6.165  16.392 -0.3317 -0.2238 -0.1286
 9480TIP3    H249932   3.481   6.191  16.243 -0.9193 -0.1369 -0.0793
 9481TIP3   OH249933   2.882   5.532  12.936 -0.1907 -0.0767  0.5929
 9481TIP3    H149934   2.787   5.523  12.944 -0.3636  1.2599  0.2244
 9481TIP3    H249935   2.907   5.466  12.872 -1.1580  0.8744 -0.8203
 9482TIP3   OH249936   4.985   6.759  12.872  0.4537 -0.3218 -0.3598
 9482TIP3    H149937   5.075   6.744  12.902 -0.0670 -1.1775  0.8786
 9482TIP3    H249938   4.953   6.672  12.846 -1.2338 -0.8437  2.9034
 9483TIP3   OH249939   0.412   6.380   1.537 -0.1202  0.1511 -0.3050
 9483TIP3    H149940   0.398   6.361   1.630 -0.3799  0.2719 -0.3190
 9483TIP3    H249941   0.325   6.378   1.498  0.1713 -2.1947 -1.0012
 9484TIP3   OH249942   5.886   1.052   5.049  0.1477 -0.7354  0.0195
 9484TIP3    H149943   5.904   1.090   5.135  0.0594 -0.0834 -0.2393
 9484TIP3    H249944   5.972   1.028   5.014  0.5114  1.5818 -0.8578
 9485TIP3   OH249945   5.241   3.637   1.694  0.4204 -0.0423 -0.6195
 9485TIP3    H149946   5.293   3.650   1.615 -1.8514 -2.0760 -2.6478
 9485TIP3    H249947   5.160   3.595   1.663 -1.8664  1.6162  2.4300
 9486TIP3   OH249948   1.852   3.248  15.292  0.2296 -0.2677  0.0329
 9486TIP3    H149949   1.939   3.288  15.282  1.1077 -1.3547  2.4693
 9486TIP3    H249950   1.869   3.154  15.293 -1.2060 -0.5672 -0.9861
 9487TIP3   OH249951   1.988   1.337   5.137 -0.0821 -0.0568 -0.1820
 9487TIP3    H149952   2.011   1.375   5.052 -1.0125 -0.9564 -0.8605
 9487TIP3    H249953   2.014   1.403   5.201  0.9212  0.5131 -1.1364
 9488TIP3   OH249954   6.262   2.145  16.422 -0.0525  0.0385  0.1671
 9488TIP3    H149955   6.326   2.169  16.489  1.5485 -0.6842 -1.0232
 9488TIP3    H249956   6.274   2.050  16.411 -0.9763 -0.0176 -0.4399
 9489TIP3   OH249957   1.812   6.312   5.362  0.4336  0.2774  0.1556
 9489TIP3    H149958   1.830   6.274   5.448  1.0722  1.0475  0.3719
 9489TIP3    H249959   1.770   6.396   5.381 -0.3191  0.0160 -0.3078
 9490TIP3   OH249960   1.273   6.091  15.533  0.7208 -0.0262 -0.4455
 9490TIP3    H149961   1.237   6.136  15.457  0.6642  1.0239  0.1934
 9490TIP3    H249962   1.286   6.001  15.503  0.4435  0.3057 -1.6082
 9491TIP3   OH249963   0.458   3.974   1.660  0.3743  0.0471 -0.4488
 9491TIP3    H149964   0.505   4.017   1.731  0.9205 -1.5661  0.2258
 9491TIP3    H249965   0.366   3.979   1.686  0.0969  2.9063 -1.6013
 9492TIP3   OH249966   0.702   5.661   2.658 -0.0981  0.1878 -0.5815
 9492TIP3    H149967   0.677   5.570   2.673  1.6977 -0.0033  1.8731
 9492TIP3    H249968   0.683   5.676   2.565 -1.0765 -2.4589 -0.9029
 9493TIP3   OH249969   6.286   1.868   1.345  0.1901  0.4691 -0.4859
 9493TIP3    H149970   6.276   1.950   1.296  2.0405  0.3414 -1.1721
 9493TIP3    H249971   6.325   1.808   1.282 -1.0791 -0.9470  0.0293
 9494TIP3   OH249972   6.633   3.731   0.366 -0.2790 -0.4028  0.1377
 9494TIP3    H149973   6.609   3.731   0.458  4.7895 -1.3818  1.7590
 9494TIP3    H249974   6.615   3.642   0.336 -0.7678 -0.4254  0.4779
 9495TIP3   OH249975   4.599   3.468   5.521  0.3101 -0.0463  0.1470
 9495TIP3    H149976   4.515   3.486   5.478  0.9990  0.1969 -1.1489
 9495TIP3    H249977   4.659   3.532   5.482  1.5621 -1.5481 -0.4788
 9496TIP3   OH249978   3.939   5.368  16.705 -0.0948 -0.0829 -0.4931
 9496TIP3    H149979   3.957   5.424  16.629 -0.7795  0.2323 -0.4378
 9496TIP3    H249980   3.851   5.334  16.689 -1.3754  2.0836  1.3734
 9497TIP3   OH249981   4.804   5.652   6.013 -0.0086 -0.4666 -0.3072
 9497TIP3    H149982   4.849   5.722   6.061 -1.6775 -0.0444  0.7304
 9497TIP3    H249983   4.770   5.694   5.934 -2.0381  0.2935  0.8781
 9498TIP3   OH249984   4.213   5.924   3.249  0.0070  0.1063  0.6514
 9498TIP3    H149985   4.279   5.873   3.203  0.0756  1.4329 -0.8406
 9498TIP3    H249986   4.167   5.861   3.304  0.1922 -1.5201 -0.9502
 9499TIP3   OH249987   2.830   3.929  15.246 -0.0029  0.2039 -0.1546
 9499TIP3    H149988   2.883   3.877  15.306  0.5337  0.5160 -0.3508
 9499TIP3    H249989   2.806   3.868  15.176 -0.5908 -0.1472  0.3492
 9500TIP3   OH249990   0.430   3.544  11.738 -0.2342  0.1181 -0.1813
 9500TIP3    H149991   0.402   3.607  11.805  1.1127 -0.0408  0.5717
 9500TIP3    H249992   0.491   3.487  11.784 -0.6912 -1.1485 -1.1046
 9501TIP3   OH249993   4.984   4.306  13.369  0.0664 -0.4299 -0.0554
 9501TIP3    H149994   5.023   4.261  13.295  0.3479  0.5872 -0.5270
 9501TIP3    H249995   4.980   4.239  13.438  1.5266 -0.8746 -0.3731
 9502TIP3   OH249996   5.141   4.152  13.201  0.0037 -0.0562  0.7857
 9502TIP3    H149997   5.143   4.102  13.119 -2.7796 -0.5984  0.9318
 9502TIP3    H249998   5.166   4.241  13.175  1.6150 -0.7301 -0.1285
 9503TIP3   OH249999   0.481   3.965   2.568 -0.1105  0.4818 -0.0949
 9503TIP3    H150000   0.403   3.914   2.592  0.3367 -0.3623 -0.4010
 9503TIP3    H250001   0.477   3.971   2.472  1.4186 -1.6006 -0.3366
 9504TIP3   OH250002   4.602   5.027  17.424  1.0826  0.8522 -0.1773
 9504TIP3    H150003   4.660   5.079  17.479  0.3330  0.6854  0.8011
 9504TIP3    H250004   4.514   5.050  17.454  0.7265 -1.3201  0.6472
 9505TIP3   OH250005   1.372   1.014  16.540 -0.2258 -0.5538  0.6184
 9505TIP3    H150006   1.465   0.991  16.543 -0.1601 -0.4789 -0.5875
 9505TIP3    H250007   1.327   0.932  16.562  0.1181 -0.4322  1.8649
 9506TIP3   OH250008   2.055   4.612   2.166 -0.2419 -0.1528  0.4580
 9506TIP3    H150009   2.096   4.638   2.248  1.2109  0.0342 -0.3019
 9506TIP3    H250010   1.970   4.576   2.193  0.6619 -1.1693  2.1510
 9507TIP3   OH250011   4.476   5.051  11.658  1.0802  0.3719 -0.7769
 9507TIP3    H150012   4.521   4.967  11.652  2.7928  1.2653 -0.9771
 9507TIP3    H250013   4.533   5.112  11.612  0.2739  1.8105  0.0673
 9508TIP3   OH250014   1.944   6.735  15.895  0.2968 -0.2351  0.1241
 9508TIP3    H150015   1.888   6.780  15.959  0.9819  1.2469 -0.2734
 9508TIP3    H250016   1.888   6.666  15.858 -1.2338  1.0870 -0.1301
 9509TIP3   OH250017   5.215   5.879   2.347 -0.6767 -0.4285  0.1913
 9509TIP3    H150018   5.249   5.803   2.298  0.9083  0.1758  0.2948
 9509TIP3    H250019   5.126   5.891   2.313  0.3887  0.0622 -2.7162
 9510TIP3   OH250020   6.486   2.043  13.822 -0.0367 -0.2042 -0.6659
 9510TIP3    H150021   6.444   1.994  13.892  1.4789 -0.7208 -0.0790
 9510TIP3    H250022   6.566   2.079  13.862 -0.9601  2.6234 -1.1109
 9511TIP3   OH250023   2.981   4.267   4.794 -0.2863  0.5436 -0.3743
 9511TIP3    H150024   2.987   4.229   4.882  1.3580  1.7899  0.1008
 9511TIP3    H250025   2.925   4.206   4.746 -2.2406  0.4512  1.8358
 9512TIP3   OH250026   5.461   5.605  16.363  0.3763 -0.1574  0.0998
 9512TIP3    H150027   5.406   5.655  16.304  0.8981  0.4783  0.1415
 9512TIP3    H250028   5.469   5.519  16.322  0.6675  0.2503 -0.7164
 9513TIP3   OH250029   4.846   5.918  15.655 -0.3191 -0.2868  0.0040
 9513TIP3    H150030   4.784   5.845  15.660  0.1034 -0.5886  1.0156
 9513TIP3    H250031   4.863   5.942  15.746 -0.6307  1.2510 -0.2963
 9514TIP3   OH250032   0.490   6.560   1.846 -0.4832 -0.3587  0.2367
 9514TIP3    H150033   0.404   6.577   1.809 -0.5809 -1.5968 -0.1640
 9514TIP3    H250034   0.505   6.632   1.907 -1.4227  0.3352 -0.3283
 9515TIP3   OH250035   3.521   3.144  13.099  0.0400  0.1502  0.0017
 9515TIP3    H150036   3.552   3.055  13.108  2.2388  0.8603 -0.1092
 9515TIP3    H250037   3.504   3.155  13.005  0.0621 -0.0491 -0.0258
 9516TIP3   OH250038   3.268   3.261   5.188  0.2623 -0.2939  0.2743
 9516TIP3    H150039   3.324   3.217   5.124 -1.0668  0.0262 -1.1420
 9516TIP3    H250040   3.297   3.226   5.273  1.4618 -1.3824 -0.5500
 9517TIP3   OH250041   6.638   2.237   3.432  0.4117  0.7592  0.4267
 9517TIP3    H150042   6.687   2.176   3.487 -1.5932  0.2902  1.8421
 9517TIP3    H250043   6.631   2.194   3.347 -0.7268 -0.9083  1.3213
 9518TIP3   OH250044   5.274   5.117  13.592  0.8400 -0.6808  0.2804
 9518TIP3    H150045   5.193   5.165  13.607  0.3224 -1.6982  0.8048
 9518TIP3    H250046   5.309   5.154  13.510  0.4466  0.5428  0.6446
 9519TIP3   OH250047   6.386   1.764  10.844 -0.5759  0.0690 -0.7499
 9519TIP3    H150048   6.458   1.734  10.899 -0.1837 -0.2786 -1.4452
 9519TIP3    H250049   6.358   1.847  10.884  0.4870  0.4282 -0.7165
 9520TIP3   OH250050   2.427   3.697  17.117 -0.3219 -0.5647  0.4174
 9520TIP3    H150051   2.492   3.727  17.181 -0.6053 -0.9905  0.9127
 9520TIP3    H250052   2.398   3.613  17.150 -1.1837 -0.3470  0.2411
 9521TIP3   OH250053   3.023   4.982   2.560  0.2793  0.2967  0.1304
 9521TIP3    H150054   2.976   4.929   2.495  0.4411  1.1130 -0.6829
 9521TIP3    H250055   3.067   4.918   2.616 -0.5581 -0.4478 -0.0353
 9522TIP3   OH250056   6.414   1.863  12.043  0.0864  0.0467 -0.4668
 9522TIP3    H150057   6.486   1.843  12.102  0.8730  1.2309 -0.9805
 9522TIP3    H250058   6.430   1.809  11.966  0.5148  0.4076 -0.6350
 9523TIP3   OH250059   3.350   2.529   5.418 -0.1822 -0.1475 -0.5719
 9523TIP3    H150060   3.310   2.443   5.413  1.4985 -0.8954 -2.2063
 9523TIP3    H250061   3.430   2.516   5.469  1.1756 -0.0829 -2.5645
 9524TIP3   OH250062   2.429   0.527   2.625  0.2719  0.0174 -0.2137
 9524TIP3    H150063   2.414   0.574   2.707 -0.9795  1.7065 -1.3452
 9524TIP3    H250064   2.363   0.458   2.624  0.5107 -0.2221  0.3457
 9525TIP3   OH250065   4.209   5.331  10.805 -0.7814 -0.0627 -0.7224
 9525TIP3    H150066   4.130   5.288  10.771 -0.1328 -2.4064  0.5184
 9525TIP3    H250067   4.273   5.322  10.734 -1.2882  0.9219 -1.3308
 9526TIP3   OH250068   3.479   0.427  10.882  0.7251 -0.3385  0.3915
 9526TIP3    H150069   3.536   0.492  10.922 -0.3904  2.4636 -2.1472
 9526TIP3    H250070   3.404   0.420  10.942  0.4554  1.4743  0.3158
 9527TIP3   OH250071   2.429   4.912  13.282 -0.6149  0.0533  0.3520
 9527TIP3    H150072   2.492   4.860  13.331 -0.5382  0.1154  0.3180
 9527TIP3    H250073   2.352   4.856  13.275  0.6455 -1.4887 -2.7469
 9528TIP3   OH250074   1.097   1.060   1.832 -0.2644 -0.1391 -0.0327
 9528TIP3    H150075   1.050   1.126   1.884  1.6542  1.1434  0.1713
 9528TIP3    H250076   1.059   0.977   1.859 -0.9458  0.6779  1.6906
 9529TIP3   OH250077   1.889   6.300  15.261  0.3562  0.1327 -0.2199
 9529TIP3    H150078   1.849   6.213  15.262 -2.0011  1.1347  0.7622
 9529TIP3    H250079   1.828   6.354  15.210  0.9100  1.5702  0.5780
 9530TIP3   OH250080   1.686   3.036   0.366  0.1212 -0.4152 -0.1101
 9530TIP3    H150081   1.746   2.964   0.381  1.2996  0.8933  1.8834
 9530TIP3    H250082   1.678   3.080   0.451 -0.0507  2.1679 -1.3408
 9531TIP3   OH250083   5.588   1.295   0.186  0.0811 -0.2236 -0.3242
 9531TIP3    H150084   5.675   1.313   0.223  1.1753 -0.9710 -2.3894
 9531TIP3    H250085   5.570   1.205   0.213 -0.0283 -0.0940  0.0431
 9532TIP3   OH250086   2.336   1.208  17.052 -0.4379  0.1029 -0.2453
 9532TIP3    H150087   2.334   1.123  17.097  1.1516  0.4912  0.6088
 9532TIP3    H250088   2.310   1.271  17.120  0.8362  0.5633 -0.1712
 9533TIP3   OH250089   4.522   2.494   6.383  0.1456 -0.5796 -0.2481
 9533TIP3    H150090   4.563   2.437   6.448 -0.3298 -1.1595 -0.4421
 9533TIP3    H250091   4.430   2.500   6.410  0.2546  0.3701 -0.0492
 9534TIP3   OH250092   4.211   1.411  16.541  0.0115  0.0351  0.3183
 9534TIP3    H150093   4.199   1.423  16.447  1.3529  1.1414  0.2483
 9534TIP3    H250094   4.235   1.498  16.573  2.4980 -0.8769  1.1524
 9535TIP3   OH250095   2.895   6.027  15.008 -0.0373 -0.0915  0.3969
 9535TIP3    H150096   2.937   6.072  15.081 -1.2021 -1.6703  2.1763
 9535TIP3    H250097   2.915   5.934  15.023 -0.6294 -0.4845 -1.0835
 9536TIP3   OH250098   3.231   4.597  15.917  0.1571 -0.3784 -0.3018
 9536TIP3    H150099   3.224   4.613  15.823  1.7939  2.2143 -0.0928
 9536TIP3    H250100   3.304   4.653  15.946 -0.3315 -1.0189  2.5355
 9537TIP3   OH250101   6.219   0.056   3.850  0.4699  0.1010 -0.1039
 9537TIP3    H150102   6.151   0.083   3.912 -0.7458 -0.9593 -0.9120
 9537TIP3    H250103   6.301   0.074   3.895 -0.3604 -1.1011  2.0697
 9538TIP3   OH250104   4.265   0.832   3.300 -0.1112 -0.0918 -0.1427
 9538TIP3    H150105   4.291   0.745   3.333 -0.6873 -0.5037 -0.7395
 9538TIP3    H250106   4.290   0.830   3.208  0.0741  0.4681 -0.1049
 9539TIP3   OH250107   2.427   5.230   2.337  0.1415 -0.1057  0.6454
 9539TIP3    H150108   2.410   5.262   2.249  1.9630 -0.1606  0.2365
 9539TIP3    H250109   2.446   5.137   2.326  2.1647  0.2339  0.7959
 9540TIP3   OH250110   1.033   4.060   0.427  0.1616  0.4924 -0.2725
 9540TIP3    H150111   0.967   4.019   0.372  0.3012 -0.9822  0.5925
 9540TIP3    H250112   1.115   4.019   0.400  0.5036  1.1572 -0.2603
 9541TIP3   OH250113   1.772   4.559   2.529  0.3203  0.2726 -0.0529
 9541TIP3    H150114   1.769   4.496   2.457  0.7780 -0.9062  0.9222
 9541TIP3    H250115   1.680   4.579   2.546  0.0845 -1.0315  0.3564
 9542TIP3   OH250116   6.663   6.162  11.907  0.8880  0.6168 -0.8361
 9542TIP3    H150117   6.618   6.164  11.992 -1.7008  2.2199 -2.1258
 9542TIP3    H250118   6.699   6.074  11.901 -1.0576 -0.3734  0.8742
 9543TIP3   OH250119   2.498   1.673   3.776 -0.2140  0.3521  0.4621
 9543TIP3    H150120   2.413   1.717   3.771 -0.0547  0.5367 -0.7751
 9543TIP3    H250121   2.561   1.744   3.789 -0.3308  0.1197  2.8478
 9544TIP3   OH250122   3.420   4.581   0.459 -0.2412 -0.2146 -0.4117
 9544TIP3    H150123   3.493   4.603   0.401 -2.6240  2.6362 -2.6562
 9544TIP3    H250124   3.435   4.632   0.538 -0.3074  1.3103 -1.3397
 9545TIP3   OH250125   1.918   5.013   4.567 -0.4074 -0.4543 -0.6493
 9545TIP3    H150126   1.846   4.980   4.513 -1.4647  0.9513 -0.1784
 9545TIP3    H250127   1.897   4.986   4.656 -0.7716  0.5933 -0.4019
 9546TIP3   OH250128   3.406   6.642  14.067  0.0276 -0.0064  0.2131
 9546TIP3    H150129   3.437   6.555  14.093  0.4680 -0.3868 -1.4456
 9546TIP3    H250130   3.339   6.664  14.132  0.1579 -1.4282  0.8730
 9547TIP3   OH250131   4.336   1.097   1.897 -0.7056  0.2402  0.1700
 9547TIP3    H150132   4.301   1.123   1.812  2.5558  1.5382 -0.9128
 9547TIP3    H250133   4.378   1.012   1.881  2.1391  1.6116 -0.3309
 9548TIP3   OH250134   2.924   6.202   0.577 -0.4734  0.1847  0.3469
 9548TIP3    H150135   2.921   6.291   0.612 -3.3358 -0.3404  1.6886
 9548TIP3    H250136   2.918   6.146   0.654  1.5750 -1.2428 -0.4518
 9549TIP3   OH250137   4.404   5.794  13.260  0.7482  0.1735  0.0571
 9549TIP3    H150138   4.345   5.730  13.300  2.0288 -1.3177 -0.3837
 9549TIP3    H250139   4.458   5.825  13.332 -0.0108  0.9519  0.3106
 9550TIP3   OH250140   1.451   3.556   2.004  0.2076 -0.2121  0.9899
 9550TIP3    H150141   1.457   3.474   1.956 -2.4312  0.8336 -1.3924
 9550TIP3    H250142   1.465   3.531   2.095  0.5877 -3.0894  0.2480
 9551TIP3   OH250143   4.479   5.695  11.061  0.5826  0.3789 -0.5524
 9551TIP3    H150144   4.481   5.757  11.134 -0.3148  1.3011 -1.2802
 9551TIP3    H250145   4.561   5.712  11.014  0.7479  0.3901 -0.2693
 9552TIP3   OH250146   2.152   1.945  11.541 -0.2225  0.3517 -0.0595
 9552TIP3    H150147   2.089   2.008  11.577 -0.4644 -1.0793  2.2957
 9552TIP3    H250148   2.098   1.871  11.514  0.2844 -0.0612  0.0525
 9553TIP3   OH250149   6.467   4.767  15.982 -0.1203  0.3346 -0.3363
 9553TIP3    H150150   6.394   4.787  16.041  0.4955  0.7010  0.3025
 9553TIP3    H250151   6.521   4.846  15.983  1.1658 -0.5252  0.4855
 9554TIP3   OH250152   6.427   3.025  15.639  0.4452 -0.0433 -0.1202
 9554TIP3    H150153   6.344   3.023  15.592  2.3377 -0.9925 -3.7600
 9554TIP3    H250154   6.436   2.937  15.676  0.2348 -0.2147 -0.4773
 9555TIP3   OH250155   2.574   0.913  14.426  0.1091  0.0430  0.4760
 9555TIP3    H150156   2.570   0.907  14.330  0.6730 -0.0815  0.4530
 9555TIP3    H250157   2.668   0.918  14.445 -0.0295  0.7416  0.9870
 9556TIP3   OH250158   1.624   0.848   1.285 -0.9183 -0.3339 -0.2212
 9556TIP3    H150159   1.603   0.834   1.377 -1.0084  0.7092 -0.0696
 9556TIP3    H250160   1.546   0.889   1.248 -1.6156 -2.4786 -1.2330
 9557TIP3   OH250161   2.638   6.315   4.693  0.0138 -0.2320  0.3230
 9557TIP3    H150162   2.553   6.332   4.652  0.2692 -0.1360 -0.1717
 9557TIP3    H250163   2.648   6.384   4.757  0.7930  1.2055 -1.2759
 9558TIP3   OH250164   5.399   2.596  13.203  0.5920  0.3216  0.0413
 9558TIP3    H150165   5.459   2.662  13.238  0.1026  0.0903  1.4026
 9558TIP3    H250166   5.391   2.532  13.274  0.6603 -0.9405 -1.0622
 9559TIP3   OH250167   3.431   0.812   1.780  0.0300  0.0674 -0.1461
 9559TIP3    H150168   3.464   0.889   1.827  0.0947 -0.1962  0.2452
 9559TIP3    H250169   3.498   0.745   1.795 -0.6889 -0.4877  0.6964
 9560TIP3   OH250170   3.238   0.970   4.957  0.3452  0.0817 -0.3460
 9560TIP3    H150171   3.224   0.879   4.929  1.0199  0.8753 -3.6298
 9560TIP3    H250172   3.315   0.965   5.013  0.3319 -1.3603 -0.3992
 9561TIP3   OH250173   3.675   2.507  11.601  0.5096 -0.5275  0.0871
 9561TIP3    H150174   3.674   2.494  11.506  0.2567 -0.5820  0.0958
 9561TIP3    H250175   3.742   2.447  11.633  0.1363 -0.9860  0.0125
 9562TIP3   OH250176   5.569   3.794   6.161 -0.4148 -0.1921 -0.4547
 9562TIP3    H150177   5.571   3.698   6.162  0.1467 -0.1904 -0.7054
 9562TIP3    H250178   5.659   3.820   6.180 -0.3371  0.2727 -1.3740
 9563TIP3   OH250179   6.511   0.584  11.745 -0.4480 -1.0227  0.7421
 9563TIP3    H150180   6.574   0.526  11.787 -1.2103 -1.1328  1.7834
 9563TIP3    H250181   6.564   0.642  11.690  0.5300 -1.2728  1.3911
 9564TIP3   OH250182   2.885   5.894   6.101  0.2772  0.2512 -0.4495
 9564TIP3    H150183   2.814   5.958   6.097  0.3980  0.3472 -1.0544
 9564TIP3    H250184   2.908   5.890   6.194 -1.2727 -0.6241 -0.0669
 9565TIP3   OH250185   4.487   2.203   3.918  0.0117  0.6130  0.9401
 9565TIP3    H150186   4.449   2.285   3.886 -0.1438 -0.2362 -1.1957
 9565TIP3    H250187   4.581   2.216   3.912  0.0367  1.3654  2.6278
 9566TIP3   OH250188   1.641   0.506   1.566  0.0052  0.5112  0.7666
 9566TIP3    H150189   1.581   0.432   1.559 -0.0582  0.5965  0.3105
 9566TIP3    H250190   1.587   0.578   1.599 -0.4176  0.8686 -0.6117
 9567TIP3   OH250191   0.493   5.069  10.951  0.0610  1.0844  0.1345
 9567TIP3    H150192   0.463   5.119  10.876 -0.6277  0.0581 -0.2970
 9567TIP3    H250193   0.552   5.003  10.914  0.9183  1.5313  0.6833
 9568TIP3   OH250194   2.588   4.934  12.057  0.1302  0.1421  0.0083
 9568TIP3    H150195   2.493   4.930  12.042 -0.4081 -0.8407  3.1097
 9568TIP3    H250196   2.619   4.845  12.039  0.7326  0.6930 -1.9970
 9569TIP3   OH250197   2.745   2.164   3.770 -0.0091  0.2640 -0.1385
 9569TIP3    H150198   2.740   2.220   3.692 -1.1549 -0.4915 -0.6333
 9569TIP3    H250199   2.737   2.225   3.843  1.7106  1.0563 -0.5532
 9570TIP3   OH250200   1.610   1.544   3.817  0.2639  0.4045  0.0324
 9570TIP3    H150201   1.571   1.457   3.810  1.5494 -0.2340  0.5026
 9570TIP3    H250202   1.672   1.536   3.890  0.6813  1.6112 -0.1745
 9571TIP3   OH250203   5.047   2.215  16.783  0.3121 -0.6715  0.3543
 9571TIP3    H150204   5.090   2.152  16.725  0.6474  1.5764 -2.0235
 9571TIP3    H250205   5.110   2.230  16.853  1.1203 -1.3561 -0.2075
 9572TIP3   OH250206   1.512   5.270  13.803 -0.8494 -0.4067  0.1142
 9572TIP3    H150207   1.502   5.185  13.760  1.0150 -0.4072 -0.4100
 9572TIP3    H250208   1.432   5.281  13.855 -1.7384 -1.8381 -0.8976
 9573TIP3   OH250209   5.789   4.787  12.871 -0.3103  0.7192  0.0686
 9573TIP3    H150210   5.724   4.746  12.929  0.9988 -0.5875  0.6945
 9573TIP3    H250211   5.870   4.785  12.922  1.0093 -0.9460 -1.9505
 9574TIP3   OH250212   6.102   0.926  15.054  0.1728 -0.1345 -0.1414
 9574TIP3    H150213   6.023   0.981  15.045  0.6690  1.0275  1.8049
 9574TIP3    H250214   6.071   0.848  15.101  0.3964  1.2001  2.4610
 9575TIP3   OH250215   0.037   1.357   3.310  0.0345  0.2665  0.4071
 9575TIP3    H150216   0.089   1.389   3.237  0.5580 -0.4905  0.4295
 9575TIP3    H250217   0.081   1.392   3.388  0.0429  0.2807  0.3958
 9576TIP3   OH250218   3.346   3.430   1.193  0.1269 -0.6515  1.0025
 9576TIP3    H150219   3.375   3.507   1.243  0.6676 -0.4919  0.4594
 9576TIP3    H250220   3.418   3.414   1.131 -1.2824  0.2594 -0.9711
 9577TIP3   OH250221   5.814   1.981   0.015 -0.4850  0.0646 -0.2090
 9577TIP3    H150222   5.817   1.904  -0.042  0.4976  0.2523 -0.4327
 9577TIP3    H250223   5.864   2.048  -0.033  0.7250  0.1026  1.0465
 9578TIP3   OH250224   2.855   1.441  10.675  0.2537  0.5207 -0.2823
 9578TIP3    H150225   2.896   1.371  10.727 -0.7421 -0.0727 -0.2777
 9578TIP3    H250226   2.912   1.517  10.689  0.1895  0.2896  1.4394
 9579TIP3   OH250227   3.296   3.576  13.336  0.4978  0.2452  0.0877
 9579TIP3    H150228   3.348   3.555  13.259  0.4987 -0.5166  0.2866
 9579TIP3    H250229   3.356   3.624  13.393  0.6356  0.3919 -0.1795
 9580TIP3   OH250230   3.768   5.241  14.911 -0.1944 -0.1907  0.1355
 9580TIP3    H150231   3.759   5.147  14.930 -0.8263 -0.0788  0.3970
 9580TIP3    H250232   3.827   5.244  14.836  0.5129 -0.7539  0.6607
 9581TIP3   OH250233   3.794   4.842  15.820 -0.2687 -0.1550 -0.1327
 9581TIP3    H150234   3.763   4.914  15.765 -0.4682  0.1460  0.3764
 9581TIP3    H250235   3.716   4.812  15.866  0.2022  0.6411  1.2077
 9582TIP3   OH250236   1.129   0.340   0.681 -0.1386 -0.4622 -0.0513
 9582TIP3    H150237   1.043   0.361   0.644 -1.3974 -4.3775  0.2073
 9582TIP3    H250238   1.115   0.340   0.776  0.6168  0.3621  0.0798
 9583TIP3   OH250239   4.448   6.320  14.071  0.2467  0.0949  0.3368
 9583TIP3    H150240   4.389   6.380  14.117 -0.2470 -0.5574  0.5559
 9583TIP3    H250241   4.502   6.282  14.140 -0.8095 -1.2367  0.4613
 9584TIP3   OH250242   4.091   6.434  11.157 -0.1005  0.5192  0.4849
 9584TIP3    H150243   4.068   6.427  11.064 -0.3558 -0.3796  0.6042
 9584TIP3    H250244   4.126   6.348  11.179  0.9668  1.0711  0.9640
 9585TIP3   OH250245   3.270   1.756   2.245  0.4309 -0.4436 -0.3466
 9585TIP3    H150246   3.282   1.690   2.177 -1.3552 -0.4795 -0.6907
 9585TIP3    H250247   3.192   1.805   2.217  2.5303  2.8698 -0.9382
 9586TIP3   OH250248   2.119   2.142   5.780  0.2283  0.3662 -0.1826
 9586TIP3    H150249   2.025   2.125   5.783  0.1743  0.6367 -0.3476
 9586TIP3    H250250   2.130   2.207   5.710  0.6457 -0.4517 -0.9016
 9587TIP3   OH250251   0.696   2.977  10.861  0.1827 -0.1944 -0.8093
 9587TIP3    H150252   0.606   3.007  10.855  0.2077  0.1920  0.4512
 9587TIP3    H250253   0.696   2.890  10.821 -0.5053  0.2505 -1.8189
 9588TIP3   OH250254   5.552   3.313   5.317 -0.0435 -0.3016 -0.4950
 9588TIP3    H150255   5.463   3.283   5.335  0.8099 -2.8233 -0.1394
 9588TIP3    H250256   5.607   3.238   5.338  2.4534  1.9649  1.8297
 9589TIP3   OH250257   4.937   5.857   6.160 -0.3068 -0.2133 -0.5233
 9589TIP3    H150258   5.028   5.836   6.144 -0.6969 -0.8281 -2.1019
 9589TIP3    H250259   4.937   5.951   6.182  0.5873  0.0353 -1.5350
 9590TIP3   OH250260   0.148   4.473   3.383 -0.1734 -0.6364 -0.4684
 9590TIP3    H150261   0.073   4.413   3.375 -1.0279  0.0355  1.9189
 9590TIP3    H250262   0.114   4.547   3.433  1.3695  1.0229 -1.7722
 9591TIP3   OH250263   4.868   6.245  11.308  0.1574 -0.2029  0.4449
 9591TIP3    H150264   4.776   6.260  11.289  0.5689  1.9444 -0.1554
 9591TIP3    H250265   4.914   6.269  11.227  1.3225 -0.2310  1.0664
 9592TIP3   OH250266   3.215   4.542   5.940  0.1497 -0.1431  0.0193
 9592TIP3    H150267   3.215   4.595   5.860 -2.2234 -1.5059 -0.9752
 9592TIP3    H250268   3.150   4.582   5.996 -0.2865 -0.8583  0.0402
 9593TIP3   OH250269   5.909   2.522  10.713  0.4307  0.4157 -1.1644
 9593TIP3    H150270   5.873   2.469  10.783  0.7542  1.2909 -0.3243
 9593TIP3    H250271   5.853   2.504  10.637 -0.3639  0.0354 -0.4919
 9594TIP3   OH250272   6.593   1.293  12.514  0.4928 -0.0108  0.4745
 9594TIP3    H150273   6.625   1.210  12.479 -0.5051 -0.6506  1.0124
 9594TIP3    H250274   6.659   1.319  12.578  0.6622 -0.5606  0.5324
 9595TIP3   OH250275   3.357   1.559   4.527 -0.2918  1.1581  0.3195
 9595TIP3    H150276   3.343   1.596   4.440  1.3445 -0.7640 -0.8537
 9595TIP3    H250277   3.445   1.587   4.551 -0.9788  2.2307  1.7038
 9596TIP3   OH250278   2.193   6.046  16.119  0.1367  0.5124  0.2795
 9596TIP3    H150279   2.225   6.119  16.172  0.2896 -0.1513  1.1194
 9596TIP3    H250280   2.215   5.968  16.170  0.6652 -0.1757 -0.9606
 9597TIP3   OH250281   3.554   3.795   5.552  0.2813  0.0688 -0.0924
 9597TIP3    H150282   3.476   3.809   5.605 -0.7486 -2.2431 -0.8806
 9597TIP3    H250283   3.613   3.866   5.577 -2.2584  2.2499  0.0929
 9598TIP3   OH250284   1.234   4.568  15.834 -0.0131  0.0689  0.2399
 9598TIP3    H150285   1.235   4.474  15.817  0.3494  0.2242 -0.6760
 9598TIP3    H250286   1.171   4.579  15.905  1.7021 -1.1305  2.0390
 9599TIP3   OH250287   4.665   5.399  15.171 -0.4684  0.5508  0.4211
 9599TIP3    H150288   4.633   5.482  15.206 -0.4689  0.3475  0.9148
 9599TIP3    H250289   4.760   5.403  15.183 -0.6291 -0.4821  2.6821
 9600TIP3   OH250290   6.456   2.320   3.733  0.2626  0.7334 -0.4335
 9600TIP3    H150291   6.368   2.342   3.701 -0.3279 -1.1426 -0.2409
 9600TIP3    H250292   6.483   2.246   3.679  1.2331  0.5125  0.3269
 9601TIP3   OH250293   2.608   0.838   2.537  0.2489  0.5317  0.0028
 9601TIP3    H150294   2.681   0.884   2.496  0.0976  1.2120  0.4825
 9601TIP3    H250295   2.587   0.890   2.615 -0.0838 -0.2148  0.4293
 9602TIP3   OH250296   2.848   6.572  13.010 -0.0057  0.6935 -0.0356
 9602TIP3    H150297   2.937   6.605  13.021 -0.0401  0.4800  0.8935
 9602TIP3    H250298   2.859   6.481  12.985  0.0369  0.6786  0.0372
 9603TIP3   OH250299   6.439   5.909   4.356  0.4445 -0.0656  0.3768
 9603TIP3    H150300   6.369   5.944   4.410  1.5124  2.1683  0.4096
 9603TIP3    H250301   6.398   5.893   4.271 -0.7150 -1.4996  1.1623
 9604TIP3   OH250302   1.192   2.943  13.532  0.8956 -0.0894 -0.1098
 9604TIP3    H150303   1.200   2.961  13.626 -0.3720 -1.0295  0.2000
 9604TIP3    H250304   1.099   2.954  13.514  0.8909 -1.3839 -0.9454
 9605TIP3   OH250305   5.400   4.974   0.319  0.0599 -0.3888  0.1482
 9605TIP3    H150306   5.330   4.939   0.375  0.1064  0.0702  0.4938
 9605TIP3    H250307   5.449   5.033   0.376  0.0869  0.1068 -0.3832
 9606TIP3   OH250308   1.901   0.427   3.957 -0.3227  0.0605 -0.1200
 9606TIP3    H150309   1.864   0.422   4.045 -2.6524 -1.3803 -1.1005
 9606TIP3    H250310   1.838   0.479   3.907  1.1958  1.2624 -0.9122
 9607TIP3   OH250311   4.561   4.413   6.408  0.0994 -0.5121  0.2805
 9607TIP3    H150312   4.505   4.349   6.365 -1.9993  0.5696  1.2990
 9607TIP3    H250313   4.602   4.364   6.480  0.9490 -1.4307 -0.7747
 9608TIP3   OH250314   4.058   4.245  12.408 -0.5696 -0.4845  0.0643
 9608TIP3    H150315   4.038   4.333  12.375  1.0799 -0.4791 -1.0705
 9608TIP3    H250316   4.022   4.244  12.496  1.7418  2.3846  1.2320
 9609TIP3   OH250317   0.225   0.737  17.280 -0.4554 -0.1593 -0.2401
 9609TIP3    H150318   0.156   0.716  17.342  0.2260 -0.7669  0.3243
 9609TIP3    H250319   0.179   0.774  17.205 -1.3118  0.2999  0.4955
 9610TIP3   OH250320   2.108   1.545   4.678  0.3439  0.0280 -0.1549
 9610TIP3    H150321   2.188   1.493   4.691 -0.4109 -0.4492  4.2453
 9610TIP3    H250322   2.137   1.635   4.693  0.7589  0.4509 -3.0292
 9611TIP3   OH250323   4.659   3.505  12.639  0.2452  0.2287 -0.3753
 9611TIP3    H150324   4.722   3.534  12.573  0.5812 -1.6034 -0.9043
 9611TIP3    H250325   4.652   3.410  12.626 -2.2799  0.3105 -0.0217
 9612TIP3   OH250326   6.464   5.554   4.510  0.4920 -0.0326 -0.0856
 9612TIP3    H150327   6.529   5.537   4.579  2.7281  3.0206 -1.1827
 9612TIP3    H250328   6.500   5.511   4.433  1.2183  1.5188 -0.6568
 9613TIP3   OH250329   6.374   1.217  15.887  0.1029  0.6185  0.1874
 9613TIP3    H150330   6.284   1.244  15.902 -0.5431 -1.0094 -0.5667
 9613TIP3    H250331   6.417   1.294  15.852 -0.5430  1.9244  2.1183
 9614TIP3   OH250332   2.023   0.268   5.402  0.4277 -0.2697  0.0275
 9614TIP3    H150333   1.969   0.230   5.333 -0.6577 -1.2341  1.3625
 9614TIP3    H250334   2.102   0.297   5.357 -0.6139 -0.0646 -1.7512
 9615TIP3   OH250335   2.187   1.357   0.091  0.1840 -0.3561  0.1430
 9615TIP3    H150336   2.232   1.275   0.110  1.7073 -0.0908 -1.9944
 9615TIP3    H250337   2.252   1.425   0.113 -0.1965  0.1712 -0.3304
 9616TIP3   OH250338   5.660   6.488  17.128 -0.3565 -0.5780  0.2461
 9616TIP3    H150339   5.724   6.490  17.056 -1.1892 -0.0636 -0.4904
 9616TIP3    H250340   5.713   6.465  17.205  0.7637  0.0699 -0.2991
 9617TIP3   OH250341   5.826   5.280  13.857 -0.3077  0.7540  0.1974
 9617TIP3    H150342   5.886   5.207  13.839 -0.9572  0.7036 -2.0965
 9617TIP3    H250343   5.748   5.238  13.894  0.4056  0.6585  1.6978
 9618TIP3   OH250344   0.977   4.732  13.053 -0.2711  0.0424 -0.0652
 9618TIP3    H150345   1.005   4.823  13.037 -0.1102  0.2730  1.4196
 9618TIP3    H250346   1.042   4.697  13.113 -1.6260 -0.2663  1.3073
 9619TIP3   OH250347   0.970   5.051   6.000 -0.0119 -0.3663 -0.3547
 9619TIP3    H150348   1.011   4.971   6.033  0.5084  0.8763  2.3026
 9619TIP3    H250349   0.876   5.032   6.001  0.1087 -0.9567  0.2788
 9620TIP3   OH250350   4.056   1.205  13.969  0.2295 -0.2027 -0.4318
 9620TIP3    H150351   3.988   1.178  13.907  0.8835  1.1487 -1.8145
 9620TIP3    H250352   4.040   1.298  13.982  1.5562  0.0523 -0.4760
 9621TIP3   OH250353   4.161   2.358  16.687 -0.6328 -0.2548 -0.0882
 9621TIP3    H150354   4.225   2.349  16.616 -1.0919 -2.1832 -0.3249
 9621TIP3    H250355   4.163   2.450  16.710 -2.4623  1.1790 -4.5519
 9622TIP3   OH250356   0.977   5.160   2.090  0.3932  0.2056  0.0142
 9622TIP3    H150357   1.045   5.094   2.094  0.4479  0.1622 -1.2318
 9622TIP3    H250358   0.978   5.191   1.999 -1.8483 -0.4735 -0.3230
 9623TIP3   OH250359   2.100   4.646   1.657  0.5748 -0.0251 -0.6286
 9623TIP3    H150360   2.100   4.686   1.744  3.4210  0.1749 -0.6414
 9623TIP3    H250361   2.008   4.623   1.641 -0.5372  2.7876  1.0658
 9624TIP3   OH250362   1.571   2.392  14.626  0.5221 -0.8425 -0.1033
 9624TIP3    H150363   1.631   2.321  14.601  1.5609 -0.4358  1.0984
 9624TIP3    H250364   1.548   2.372  14.717 -0.4419 -0.4782 -0.2530
 9625TIP3   OH250365   5.694   4.988  17.291 -0.2945  0.1385 -0.5921
 9625TIP3    H150366   5.601   5.007  17.298 -0.1082  1.0029 -0.2784
 9625TIP3    H250367   5.699   4.902  17.249 -1.2027  0.5819 -1.6502
 9626TIP3   OH250368   0.838   6.451   5.297  0.4041 -0.5267 -0.0390
 9626TIP3    H150369   0.846   6.443   5.202 -1.9154 -0.4966 -0.3014
 9626TIP3    H250370   0.826   6.545   5.311  1.8856 -0.3851  0.4366
 9627TIP3   OH250371   4.741   5.746  12.355 -0.4474 -0.0329 -0.2024
 9627TIP3    H150372   4.706   5.800  12.426 -1.1461 -0.1104 -0.4792
 9627TIP3    H250373   4.738   5.657  12.390  0.8679  0.1082  0.3195
 9628TIP3   OH250374   5.421   3.072  16.276  0.3168  0.2336 -0.3897
 9628TIP3    H150375   5.415   3.119  16.359 -0.1301  1.6719 -1.1998
 9628TIP3    H250376   5.337   3.027  16.268  0.4811 -0.1657  0.0696
 9629TIP3   OH250377   3.645   6.277  14.509  0.0717  0.3087 -0.4294
 9629TIP3    H150378   3.633   6.189  14.545 -1.9821  0.0864 -1.5069
 9629TIP3    H250379   3.633   6.335  14.583 -0.0371 -0.2656  0.0089
 9630TIP3   OH250380   2.301   0.101  14.672  0.1031 -0.4603 -0.6005
 9630TIP3    H150381   2.301   0.062  14.585  0.9987  0.8311 -1.2113
 9630TIP3    H250382   2.318   0.028  14.731 -1.6142 -1.5478 -1.3725
 9631TIP3   OH250383   6.616   6.271  15.125 -0.2460  0.1325  0.5901
 9631TIP3    H150384   6.574   6.270  15.210 -1.2078  0.7487  0.1303
 9631TIP3    H250385   6.632   6.179  15.105 -1.7523 -0.1541  0.6037
 9632TIP3   OH250386   2.723   6.670   1.220  0.0907  0.1236 -0.3068
 9632TIP3    H150387   2.687   6.689   1.133  0.7552  0.6810 -0.4629
 9632TIP3    H250388   2.807   6.628   1.203  0.2154  0.2202  0.0617
 9633TIP3   OH250389   2.781   3.216   0.119 -0.1498 -0.1760  0.1440
 9633TIP3    H150390   2.693   3.248   0.139  0.3458  0.6564  1.0829
 9633TIP3    H250391   2.775   3.121   0.130 -1.0424 -0.1802 -0.2747
 9634TIP3   OH250392   5.814   0.646   0.068  0.2239  0.1236  0.1899
 9634TIP3    H150393   5.833   0.737   0.090  1.0996  0.5194 -1.9658
 9634TIP3    H250394   5.720   0.643   0.052  0.3523  0.9353 -0.8173
 9635TIP3   OH250395   3.522   4.704   0.005 -0.1160 -0.3499  0.0433
 9635TIP3    H150396   3.526   4.755  -0.076  3.2790 -0.2711  0.1219
 9635TIP3    H250397   3.527   4.612  -0.024 -1.0435 -0.4280  0.1061
 9636TIP3   OH250398   1.213   0.046   5.460  0.7096  0.0897 -0.3649
 9636TIP3    H150399   1.141  -0.009   5.492  1.1286  0.3078  1.0313
 9636TIP3    H250400   1.172   0.106   5.398  0.2482 -1.8310 -2.0493
 9637TIP3   OH250401   5.173   6.193   0.191  0.1871  0.4109  0.2214
 9637TIP3    H150402   5.225   6.125   0.234 -0.5733 -0.6012 -0.3937
 9637TIP3    H250403   5.085   6.183   0.229  0.3276  1.8602  0.9929
 9638TIP3   OH250404   4.847   6.032   1.654 -0.0943 -0.1275 -0.4423
 9638TIP3    H150405   4.927   6.003   1.611  0.0942 -0.7871  0.3136
 9638TIP3    H250406   4.830   5.965   1.720 -1.4271 -0.1451 -0.7748
 9639TIP3   OH250407   0.636   5.721  14.717  0.1208 -0.0652  0.3291
 9639TIP3    H150408   0.607   5.645  14.666 -0.6475 -0.3903  1.2191
 9639TIP3    H250409   0.555   5.762  14.746  0.5296 -0.0753  1.5457
 9640TIP3   OH250410   2.731   0.028   5.811  0.1081  0.2016  0.2258
 9640TIP3    H150411   2.690   0.113   5.825 -0.4148 -0.1903  1.1586
 9640TIP3    H250412   2.788   0.017   5.887 -0.7537 -0.8088  0.7439
 9641TIP3   OH250413   6.718   2.107   2.712  0.3579 -0.0229 -0.4782
 9641TIP3    H150414   6.768   2.165   2.770 -0.4680  0.7956 -0.5519
 9641TIP3    H250415   6.628   2.110   2.747 -0.1113  0.3449 -1.6794
 9642TIP3   OH250416   4.681   0.107  11.929  0.8039 -0.0074 -0.3629
 9642TIP3    H150417   4.645   0.097  12.017  1.5183  1.6921  0.1586
 9642TIP3    H250418   4.676   0.019  11.891  1.8726 -1.1307  1.9100
 9643TIP3   OH250419   0.236   5.701   4.688 -0.1714 -0.1395 -0.5578
 9643TIP3    H150420   0.224   5.618   4.641 -0.3462  0.4010 -1.5045
 9643TIP3    H250421   0.303   5.747   4.638 -1.1443  0.9115 -0.9506
 9644TIP3   OH250422   2.717   5.968  11.027  0.1956 -0.3705  0.1032
 9644TIP3    H150423   2.782   5.982  10.958 -0.5710 -0.6562 -0.6995
 9644TIP3    H250424   2.643   5.926  10.982 -1.2160  1.4169  0.6531
 9645TIP3   OH250425   1.054   4.969  11.735 -0.0157  0.3636  0.1390
 9645TIP3    H150426   1.008   5.016  11.805 -0.7693 -1.0236  0.6086
 9645TIP3    H250427   1.005   4.992  11.656  1.2791  2.5366 -0.1240
 9646TIP3   OH250428   2.020   5.506  15.147 -0.3467 -0.2834 -0.2409
 9646TIP3    H150429   2.045   5.596  15.127 -0.4528  0.0021  0.8374
 9646TIP3    H250430   2.059   5.454  15.077  1.7916  0.3350  0.4211
 9647TIP3   OH250431   5.667   0.706   5.954 -0.8696 -0.2975  0.4253
 9647TIP3    H150432   5.699   0.712   5.863 -0.0058  0.1402  0.7451
 9647TIP3    H250433   5.739   0.665   6.002 -0.9685  0.2698  1.0754
 9648TIP3   OH250434   2.230   0.555   2.921 -0.1609 -0.1314 -0.0276
 9648TIP3    H150435   2.160   0.489   2.912 -0.4274  0.1506 -0.0212
 9648TIP3    H250436   2.291   0.515   2.984 -0.5854 -0.1524  0.3793
 9649TIP3   OH250437   2.447   4.648   3.761  0.2346  0.1427 -0.5925
 9649TIP3    H150438   2.428   4.602   3.679  0.5152  0.9175 -1.1045
 9649TIP3    H250439   2.383   4.719   3.764 -0.5531 -0.5770  0.4604
 9650TIP3   OH250440   6.300   6.250   1.095 -0.1776 -0.4934 -0.1109
 9650TIP3    H150441   6.385   6.206   1.100 -0.3610 -0.7229  1.3213
 9650TIP3    H250442   6.263   6.240   1.182 -1.6797 -0.3878 -0.7194
 9651TIP3   OH250443   6.511   0.989  15.484  0.3246 -0.2404 -0.5378
 9651TIP3    H150444   6.525   1.048  15.410 -0.2911 -0.5370 -0.9031
 9651TIP3    H250445   6.427   1.017  15.521  0.4698 -0.3074 -0.1539
 9652TIP3   OH250446   1.479   0.507   0.067 -0.0659 -0.0647 -0.5089
 9652TIP3    H150447   1.562   0.504   0.114 -1.1851 -0.2653  1.5336
 9652TIP3    H250448   1.452   0.598   0.073 -0.1026 -0.0362 -1.0281
 9653TIP3   OH250449   2.670   2.548   3.902 -0.3886  0.1770 -0.3557
 9653TIP3    H150450   2.736   2.570   3.836  0.3900 -1.1159 -0.0425
 9653TIP3    H250451   2.720   2.528   3.981 -1.2423  0.4866  0.2767
 9654TIP3   OH250452   0.684   0.703   5.789 -0.0074  0.0132  0.3910
 9654TIP3    H150453   0.723   0.718   5.703  1.5441  1.9295  1.3430
 9654TIP3    H250454   0.624   0.777   5.801 -1.2304 -0.9623  0.4376
 9655TIP3   OH250455   0.095   4.273  15.377 -0.2255  0.1330  0.3757
 9655TIP3    H150456   0.159   4.342  15.393  0.6794 -0.8515  1.2537
 9655TIP3    H250457   0.147   4.197  15.350 -1.1576 -0.2864 -0.3048
 9656TIP3   OH250458   2.907   4.509   1.594  0.5843 -0.4309  0.1461
 9656TIP3    H150459   2.875   4.424   1.624  0.6324 -0.9347 -1.1481
 9656TIP3    H250460   2.859   4.525   1.512  1.3888  0.2658 -0.2030
 9657TIP3   OH250461   1.203   3.918   4.677  0.2977 -0.5291  0.0899
 9657TIP3    H150462   1.289   3.884   4.655 -0.6467 -2.4123 -0.8466
 9657TIP3    H250463   1.194   3.900   4.771  0.7092 -0.7904  0.0817
 9658TIP3   OH250464   2.326   5.829   0.140 -0.3050 -0.0885 -0.1640
 9658TIP3    H150465   2.396   5.808   0.078  0.1081 -0.5144  0.4421
 9658TIP3    H250466   2.292   5.744   0.167  0.4951  0.0254  1.3099
 9659TIP3   OH250467   6.261   6.667  12.610 -0.0708  0.0180 -0.5383
 9659TIP3    H150468   6.206   6.636  12.539 -0.4643 -0.3296 -0.0809
 9659TIP3    H250469   6.203   6.719  12.666 -0.0485 -0.7168  0.1840
 9660TIP3   OH250470   1.587   0.478   5.890 -0.3631  0.1598 -0.2623
 9660TIP3    H150471   1.577   0.399   5.943 -0.1254 -0.4673 -1.1343
 9660TIP3    H250472   1.672   0.467   5.847  0.4212  1.6294  0.8025
 9661TIP3   OH250473   2.150   4.551   6.093 -0.0528  0.2537 -0.8074
 9661TIP3    H150474   2.221   4.541   6.156  0.2440  1.7647 -0.8586
 9661TIP3    H250475   2.091   4.615   6.134 -0.9268 -0.3017 -1.1621
 9662TIP3   OH250476   5.227   0.301   4.675 -0.2345  0.0187  0.3444
 9662TIP3    H150477   5.170   0.306   4.752  0.4913 -0.2895  0.9175
 9662TIP3    H250478   5.288   0.229   4.695 -0.7747 -0.8698 -1.0273
 9663TIP3   OH250479   1.443   4.570  14.506 -0.0731  0.0068  0.6424
 9663TIP3    H150480   1.475   4.577  14.596 -0.4520  0.2234  0.7622
 9663TIP3    H250481   1.464   4.480  14.480 -0.4378 -0.2283  1.1358
 9664TIP3   OH250482   0.619   0.009  14.937  0.0481 -0.0634 -0.0476
 9664TIP3    H150483   0.598  -0.072  14.983  1.6757  0.4080  1.6159
 9664TIP3    H250484   0.713   0.021  14.949  0.1738  1.1603 -1.8001
 9665TIP3   OH250485   6.131   4.165  17.176  0.8233  0.8026 -0.3349
 9665TIP3    H150486   6.113   4.177  17.269 -0.6359 -0.8284 -0.3464
 9665TIP3    H250487   6.206   4.104  17.174 -0.6993 -1.1919 -0.1306
 9666TIP3   OH250488   1.125   3.411  11.757 -0.3197 -0.0779 -0.3389
 9666TIP3    H150489   1.192   3.363  11.805  0.2822  2.2079  1.2413
 9666TIP3    H250490   1.046   3.357  11.765  0.6329 -1.4296  0.1998
 9667TIP3   OH250491   5.146   4.306   4.665  0.6043  0.1144  0.1416
 9667TIP3    H150492   5.109   4.263   4.742  1.0798  0.5409  0.6180
 9667TIP3    H250493   5.114   4.254   4.590 -2.5742  1.5519  0.3310
 9668TIP3   OH250494   2.545   0.569   5.568 -0.3744 -0.3181 -0.4867
 9668TIP3    H150495   2.505   0.639   5.619  0.0608 -0.6134  0.2782
 9668TIP3    H250496   2.478   0.501   5.564  0.3047 -1.1993  1.5872
 9669TIP3   OH250497   0.615   2.629  15.762 -0.4208 -0.8230 -0.1101
 9669TIP3    H150498   0.529   2.661  15.790  0.7777  3.8165 -0.9464
 9669TIP3    H250499   0.663   2.614  15.844 -0.8435  0.3208  0.3613
 9670TIP3   OH250500   5.266   3.736   3.393 -0.1453 -0.0143  0.2322
 9670TIP3    H150501   5.198   3.767   3.453 -0.7826 -0.0048 -0.4782
 9670TIP3    H250502   5.325   3.685   3.449 -0.8682 -0.2369  0.8262
 9671TIP3   OH250503   6.279   2.625  14.111  0.5131  0.2248  0.3098
 9671TIP3    H150504   6.369   2.607  14.082  0.7594  1.3666  0.3171
 9671TIP3    H250505   6.228   2.551  14.078  0.9400  0.9900 -2.2992
 9672TIP3   OH250506   5.704   0.122   5.899 -0.2733  0.2093  0.4390
 9672TIP3    H150507   5.641   0.187   5.929 -1.7545  0.4445 -2.7188
 9672TIP3    H250508   5.650   0.050   5.867  1.0093  0.2203 -1.9767
 9673TIP3   OH250509   1.433   6.311   2.161 -0.1199 -0.6989  0.3397
 9673TIP3    H150510   1.441   6.218   2.184 -0.9152 -0.4040  1.9555
 9673TIP3    H250511   1.517   6.333   2.120  0.3158 -1.9774  0.4955
 9674TIP3   OH250512   5.427   0.071   3.397  0.1747 -0.0099 -0.2117
 9674TIP3    H150513   5.515   0.109   3.394 -0.6200  2.0192  0.4001
 9674TIP3    H250514   5.436  -0.004   3.457  1.5681 -0.1586 -0.5660
 9675TIP3   OH250515   3.869   6.738   6.162 -0.3247 -0.3378  0.1707
 9675TIP3    H150516   3.779   6.755   6.190 -0.1108  0.1292  0.5840
 9675TIP3    H250517   3.917   6.719   6.243  0.1350  0.2775  0.0470
 9676TIP3   OH250518   3.918   0.135  13.708  0.0699 -0.0607 -0.6137
 9676TIP3    H150519   3.875   0.052  13.729  2.0398 -0.6011  1.7039
 9676TIP3    H250520   3.901   0.191  13.783 -0.3810  1.3378 -1.7102
 9677TIP3   OH250521   4.813   1.253   3.378 -0.0732  0.5449 -0.4439
 9677TIP3    H150522   4.900   1.234   3.344  0.5370  0.7297  0.9508
 9677TIP3    H250523   4.823   1.334   3.427 -1.0757  0.6525 -0.3904
 9678TIP3   OH250524   0.104   3.620  13.192 -0.3933  0.6122 -0.1274
 9678TIP3    H150525   0.129   3.601  13.282 -1.6146  0.3235  0.1627
 9678TIP3    H250526   0.046   3.696  13.199 -1.0696  0.1469 -0.5914
 9679TIP3   OH250527   2.263   5.432  12.938 -0.0779  0.6384 -0.5134
 9679TIP3    H150528   2.313   5.352  12.923 -0.2638  0.2239  0.9437
 9679TIP3    H250529   2.271   5.481  12.855  1.2319 -0.2176 -0.9303
 9680TIP3   OH250530   6.724   2.210  12.262  0.5440  0.4112 -0.1072
 9680TIP3    H150531   6.704   2.287  12.209 -0.0832  0.1182 -0.3153
 9680TIP3    H250532   6.649   2.151  12.248 -0.0787  0.6726  1.7579
 9681TIP3   OH250533   5.790   0.888  12.138  0.0677 -0.0136 -0.4531
 9681TIP3    H150534   5.785   0.907  12.232 -0.2981  0.8790 -0.6484
 9681TIP3    H250535   5.859   0.821  12.131 -1.8487 -2.2756  0.7801
 9682TIP3   OH250536   2.230   0.265   5.778 -0.5760 -0.1732  0.0227
 9682TIP3    H150537   2.139   0.255   5.751 -0.1766 -1.1621 -1.0414
 9682TIP3    H250538   2.226   0.321   5.855 -1.9418  1.2117 -0.9941
 9683TIP3   OH250539   3.356   6.056  12.590 -0.6784  0.6320 -0.1189
 9683TIP3    H150540   3.281   6.000  12.572  1.6395 -2.2131 -1.9227
 9683TIP3    H250541   3.359   6.116  12.515 -0.6307  0.1258 -0.5263
 9684TIP3   OH250542   3.339   2.826   3.082  0.2226 -1.1789  0.6862
 9684TIP3    H150543   3.400   2.846   3.152  0.3942  0.5967  0.0873
 9684TIP3    H250544   3.388   2.842   3.002 -1.1886  1.1371  0.1850
 9685TIP3   OH250545   3.393   6.400  10.452 -0.4186 -0.1327  0.2203
 9685TIP3    H150546   3.384   6.344  10.375 -0.1951  0.6910 -0.4238
 9685TIP3    H250547   3.377   6.342  10.526 -1.0238 -0.8557 -0.4617
 9686TIP3   OH250548   0.379   4.741  16.407 -0.3307  0.2372 -0.0081
 9686TIP3    H150549   0.469   4.772  16.421  0.6065 -2.1350 -0.3384
 9686TIP3    H250550   0.343   4.802  16.342  1.0810  1.1460  0.0117
 9687TIP3   OH250551   3.437   1.270   6.390  0.2400  0.3407 -0.1352
 9687TIP3    H150552   3.355   1.248   6.434 -0.6449  1.4047 -1.1946
 9687TIP3    H250553   3.476   1.340   6.443 -0.6226  1.3342 -0.7727
 9688TIP3   OH250554   4.791   1.502   1.010 -0.2490  0.0112 -0.3721
 9688TIP3    H150555   4.797   1.488   0.915  0.1202 -1.3214 -0.1730
 9688TIP3    H250556   4.878   1.482   1.043 -0.7101 -0.8141  0.3876
 9689TIP3   OH250557   4.164   2.916  16.124 -0.5402 -0.2789 -0.5031
 9689TIP3    H150558   4.115   2.900  16.044 -0.2387 -1.0121 -0.5480
 9689TIP3    H250559   4.212   2.835  16.140  3.2533  1.3647 -2.2222
 9690TIP3   OH250560   2.621   5.217  17.276  0.1023 -0.1883  0.3151
 9690TIP3    H150561   2.644   5.124  17.284 -0.7673 -0.4766 -0.3772
 9690TIP3    H250562   2.539   5.217  17.227 -0.1983  0.9277  0.8031
 9691TIP3   OH250563   1.123   2.888  11.245 -0.0380  0.2619  0.1801
 9691TIP3    H150564   1.136   2.964  11.189  0.3585  0.3845  0.4370
 9691TIP3    H250565   1.036   2.856  11.221 -1.0663  1.9417  1.4286
 9692TIP3   OH250566   3.672   0.551   6.620 -0.2841  0.0892  0.2935
 9692TIP3    H150567   3.767   0.552   6.614 -0.2677  2.6431 -0.3490
 9692TIP3    H250568   3.650   0.630   6.670 -2.1133  0.8536 -1.5594
 9693TIP3   OH250569   1.258   1.980  15.852 -0.5047  0.5285 -0.0679
 9693TIP3    H150570   1.196   1.998  15.781  0.0964 -0.4842 -0.8805
 9693TIP3    H250571   1.239   1.889  15.877  0.9428  0.0315 -0.6608
 9694TIP3   OH250572   0.720   2.403   3.612  0.0985  0.0365  0.0548
 9694TIP3    H150573   0.794   2.350   3.640 -1.2558 -1.6124  0.6601
 9694TIP3    H250574   0.671   2.421   3.692  0.1167  1.6071 -0.2485
 9695TIP3   OH250575   2.980   3.024   2.367 -0.0190  0.5096 -0.4966
 9695TIP3    H150576   3.015   3.113   2.370  0.4852  0.3124  2.3267
 9695TIP3    H250577   2.919   3.020   2.441  0.1454 -1.5654 -0.4160
 9696TIP3   OH250578   0.898   5.880  10.279  0.1139  0.1793  0.2383
 9696TIP3    H150579   0.971   5.823  10.305 -0.4769 -0.9762 -0.5438
 9696TIP3    H250580   0.843   5.824  10.224 -0.5410  1.5058 -0.4825
 9697TIP3   OH250581   2.119   4.533   5.376 -0.2344 -0.3093  0.3800
 9697TIP3    H150582   2.039   4.484   5.357 -0.0296 -0.7641  0.6723
 9697TIP3    H250583   2.126   4.531   5.471  0.8375 -1.4327  0.2918
 9698TIP3   OH250584   3.973   0.799  14.344  0.2214  0.7515  0.0216
 9698TIP3    H150585   3.974   0.794  14.439 -0.6586  0.5465  0.0214
 9698TIP3    H250586   3.888   0.835  14.322 -0.1161 -0.4428 -0.7378
 9699TIP3   OH250587   3.518   4.239  15.281 -0.3660 -0.1810 -0.3055
 9699TIP3    H150588   3.605   4.278  15.282 -0.5897  0.4567 -1.8154
 9699TIP3    H250589   3.531   4.152  15.242 -0.6037  0.6096 -2.2691
 9700TIP3   OH250590   5.859   6.154  14.761  0.1976  0.4031  0.1774
 9700TIP3    H150591   5.929   6.190  14.708  0.1490  0.8221  0.3940
 9700TIP3    H250592   5.858   6.061  14.740  1.4180  0.2233  0.8371
 9701TIP3   OH250593   1.301   0.366  13.859 -0.4168 -1.0389  0.9344
 9701TIP3    H150594   1.295   0.425  13.784 -0.2985  0.0318  1.7381
 9701TIP3    H250595   1.280   0.280  13.824 -0.2631 -0.5754 -0.3429
 9702TIP3   OH250596   2.349   0.760   5.701 -0.3274  0.5937  0.2179
 9702TIP3    H150597   2.289   0.694   5.733  1.6690 -0.8021  1.2981
 9702TIP3    H250598   2.342   0.832   5.764 -0.8233  0.4298  0.3524
 9703TIP3   OH250599   5.166   4.556   2.348  0.5303  0.1003 -0.0455
 9703TIP3    H150600   5.222   4.521   2.417 -0.0295  0.9092  0.8337
 9703TIP3    H250601   5.108   4.483   2.326 -0.4822  0.3551  1.6285
 9704TIP3   OH250602   6.024   6.628   3.308 -0.2690  0.3263 -0.0992
 9704TIP3    H150603   6.019   6.562   3.239  1.0222  1.4585 -1.3449
 9704TIP3    H250604   5.974   6.702   3.275  1.3893  1.3553 -0.4534
 9705TIP3   OH250605   5.169   6.275  10.859 -0.0912  0.2805 -0.7400
 9705TIP3    H150606   5.116   6.332  10.803  0.0050  0.3825 -0.7294
 9705TIP3    H250607   5.232   6.235  10.799 -0.7009 -0.4715 -0.8883
 9706TIP3   OH250608   3.185   6.272  16.633 -0.1130 -0.4363  0.3002
 9706TIP3    H150609   3.202   6.262  16.726 -1.5253  0.2190  0.6636
 9706TIP3    H250610   3.110   6.333  16.629  2.0005  2.3152 -1.3660
 9707TIP3   OH250611   6.599   6.530   4.366 -0.6018  0.4619  0.5159
 9707TIP3    H150612   6.654   6.593   4.412 -2.6344  2.3025  0.5656
 9707TIP3    H250613   6.547   6.488   4.435 -0.2947 -0.2416  0.3317
 9708TIP3   OH250614   2.300   0.209  13.827 -0.9139 -0.1095 -0.0046
 9708TIP3    H150615   2.277   0.275  13.762  1.1999  2.5962  1.7602
 9708TIP3    H250616   2.266   0.243  13.909 -1.6842 -2.3863  0.6860
 9709TIP3   OH250617   5.528   1.930  15.647 -0.2404  0.0602 -0.3595
 9709TIP3    H150618   5.623   1.914  15.640 -0.5031 -1.2229 -1.4958
 9709TIP3    H250619   5.509   1.920  15.740  0.9197  1.4980  0.0624
 9710TIP3   OH250620   3.410   3.577   6.127  0.0859  0.0312  0.7073
 9710TIP3    H150621   3.392   3.569   6.221 -0.3023  0.0065  0.6327
 9710TIP3    H250622   3.373   3.499   6.088  1.7779 -0.8289  0.7294
 9711TIP3   OH250623   5.251   3.966  10.432 -0.1443  0.0646 -0.0818
 9711TIP3    H150624   5.213   3.917  10.504  0.4402 -1.1175 -0.5549
 9711TIP3    H250625   5.263   3.902  10.362  1.8290  0.5597 -0.2679
 9712TIP3   OH250626   6.191   0.846   2.565  0.2417  0.0388 -0.1493
 9712TIP3    H150627   6.152   0.910   2.505  0.2994  1.4545  1.2691
 9712TIP3    H250628   6.162   0.874   2.652 -0.1641 -2.1912  0.4994
 9713TIP3   OH250629   3.408   4.928   0.443  0.0648 -0.7798 -0.3130
 9713TIP3    H150630   3.471   4.956   0.510 -0.2478 -0.8014 -0.0054
 9713TIP3    H250631   3.324   4.958   0.476 -0.0661 -0.5863 -0.8160
 9714TIP3   OH250632   1.614   1.932   2.146  0.0468  0.0624 -0.2430
 9714TIP3    H150633   1.561   1.882   2.208  0.3200  1.4197  1.1258
 9714TIP3    H250634   1.552   1.962   2.080 -0.5963  0.1973  0.4071
 9715TIP3   OH250635   3.186   3.312  15.557  0.1187 -0.0371 -0.1431
 9715TIP3    H150636   3.245   3.381  15.588  0.6457  0.7761 -2.7023
 9715TIP3    H250637   3.144   3.279  15.636  0.8989  2.2612  1.3286
 9716TIP3   OH250638   2.778   0.585   2.379 -0.2965  0.1659 -0.8257
 9716TIP3    H150639   2.827   0.530   2.318 -0.9672 -0.9882 -0.3542
 9716TIP3    H250640   2.703   0.531   2.405 -0.2284  0.7803  0.7174
 9717TIP3   OH250641   4.812   0.536   0.331 -0.5255  0.2606  0.3762
 9717TIP3    H150642   4.744   0.572   0.388  1.2927  1.1236  2.1342
 9717TIP3    H250643   4.895   0.557   0.376  0.8186 -4.6275  0.7349
 9718TIP3   OH250644   5.206   5.759   0.505 -0.5613 -0.3533 -0.0674
 9718TIP3    H150645   5.193   5.829   0.569  1.5162  0.0838 -0.0699
 9718TIP3    H250646   5.185   5.799   0.421  2.6031  1.0426 -0.3418
 9719TIP3   OH250647   1.882   4.513  13.527 -0.2169  0.0552  0.0324
 9719TIP3    H150648   1.826   4.520  13.604  0.3692  1.3678  0.3705
 9719TIP3    H250649   1.971   4.512  13.561  0.0233 -2.7874 -0.4528
 9720TIP3   OH250650   3.678   2.307   0.426 -0.3149 -0.3450  0.7944
 9720TIP3    H150651   3.654   2.394   0.457 -1.2841 -0.6623  0.9975
 9720TIP3    H250652   3.743   2.322   0.358 -0.0452  0.5018  1.2262
 9721TIP3   OH250653   1.948   3.925  13.624 -0.6087  0.4626 -0.4842
 9721TIP3    H150654   2.032   3.934  13.577 -0.1538 -0.1195  0.1903
 9721TIP3    H250655   1.889   3.885  13.560 -0.2329  0.4493 -0.8281
 9722TIP3   OH250656   5.762   2.620   1.498  0.5884  0.3332  0.3199
 9722TIP3    H150657   5.742   2.678   1.571 -0.1445 -0.5375  0.8275
 9722TIP3    H250658   5.811   2.547   1.537  3.4323  1.5757 -0.6234
 9723TIP3   OH250659   0.752   6.367   3.505 -0.2918 -0.6093 -0.3006
 9723TIP3    H150660   0.680   6.379   3.567 -1.7522  0.3007 -2.0709
 9723TIP3    H250661   0.710   6.333   3.426  1.0931  0.6501 -1.6485
 9724TIP3   OH250662   3.848   1.029  16.947  0.6130  0.2454  0.5876
 9724TIP3    H150663   3.837   1.108  16.999 -0.2907  0.8983 -0.5408
 9724TIP3    H250664   3.841   1.058  16.856 -0.3741 -1.1984  0.1498
 9725TIP3   OH250665   3.490   0.257  15.830  0.1468 -0.2019 -0.0147
 9725TIP3    H150666   3.463   0.179  15.878  0.7883 -1.4558 -1.6338
 9725TIP3    H250667   3.423   0.269  15.763  0.0041  0.7256  0.2673
 9726TIP3   OH250668   2.023   0.917  16.758 -0.4882 -0.4253  0.4007
 9726TIP3    H150669   2.069   0.982  16.812 -0.7655  0.9597 -0.9416
 9726TIP3    H250670   2.026   0.837  16.810  1.5029  0.1649  1.3396
 9727TIP3   OH250671   5.713   3.550   5.519  0.5458  0.4545 -0.7861
 9727TIP3    H150672   5.744   3.459   5.515 -0.3005  0.1728 -1.1214
 9727TIP3    H250673   5.728   3.576   5.610  0.0300 -0.3039 -0.4724
 9728TIP3   OH250674   2.587   0.638  15.897  0.4267  0.0872  0.0103
 9728TIP3    H150675   2.647   0.668  15.829  2.3590 -3.6726 -0.1805
 9728TIP3    H250676   2.517   0.592  15.850 -0.1022  0.4052  0.4644
 9729TIP3   OH250677   0.676   2.179  13.491 -0.1868 -0.3494  0.0935
 9729TIP3    H150678   0.628   2.252  13.531 -0.1512 -0.1619 -0.2026
 9729TIP3    H250679   0.645   2.102  13.538 -0.9185 -0.2518 -0.2010
 9730TIP3   OH250680   0.821   1.757  16.477 -0.1641 -0.3231  0.2685
 9730TIP3    H150681   0.811   1.852  16.483 -0.5921 -0.4521  2.1311
 9730TIP3    H250682   0.916   1.742  16.478 -0.0729  0.0925 -0.7350
 9731TIP3   OH250683   3.671   0.534  16.644  0.3174  0.5130 -0.6127
 9731TIP3    H150684   3.722   0.595  16.698  0.6559 -0.2473 -0.0403
 9731TIP3    H250685   3.634   0.588  16.575  0.7754  1.3289 -0.2409
 9732TIP3   OH250686   2.143   0.839  17.028 -0.4936  0.8108 -0.3523
 9732TIP3    H150687   2.062   0.789  17.027 -1.1525  1.7521 -3.1335
 9732TIP3    H250688   2.117   0.927  17.055  0.2168  0.4063  1.8802
 9733TIP3   OH250689   0.788   6.609  11.282 -0.2127 -0.0809  0.6498
 9733TIP3    H150690   0.766   6.643  11.195 -0.2838 -0.9261  0.3276
 9733TIP3    H250691   0.714   6.551  11.305  1.6448 -3.1720 -0.5553
 9734TIP3   OH250692   4.333   4.715   4.971  0.4614 -0.0242 -0.6493
 9734TIP3    H150693   4.292   4.659   4.905  0.5826 -2.7349  1.3784
 9734TIP3    H250694   4.259   4.761   5.011 -0.1513 -1.4850 -0.0125
 9735TIP3   OH250695   4.848   6.250   4.145  0.3856 -0.0732 -0.3491
 9735TIP3    H150696   4.911   6.199   4.093  0.0581 -1.6462  0.7063
 9735TIP3    H250697   4.767   6.247   4.095 -0.0460 -1.9416  0.3680
 9736TIP3   OH250698   2.066   5.474  13.703  0.5596 -1.1037 -0.7004
 9736TIP3    H150699   2.067   5.438  13.792 -1.3772 -1.2932 -0.6974
 9736TIP3    H250700   2.072   5.398  13.646 -0.9895 -1.2593 -0.6969
 9737TIP3   OH250701   2.735   6.769   0.179 -0.1720  0.3252 -0.2929
 9737TIP3    H150702   2.643   6.767   0.205  0.3464  2.2351  2.0755
 9737TIP3    H250703   2.775   6.699   0.231  0.0043  0.7644  0.1747
 9738TIP3   OH250704   1.051   5.933  14.219  0.3580 -0.2755  0.6620
 9738TIP3    H150705   1.029   5.852  14.265  0.9682 -0.5175  0.5323
 9738TIP3    H250706   1.130   5.966  14.263  0.1214  0.2468  0.7098
 9739TIP3   OH250707   1.378   3.528  13.742 -0.4057  0.0357 -0.0722
 9739TIP3    H150708   1.411   3.513  13.653  0.5719  0.3596  0.2164
 9739TIP3    H250709   1.363   3.623  13.745  0.2085  0.1281  0.3051
 9740TIP3   OH250710   6.690   3.585   6.459 -0.2445  0.1813 -0.1558
 9740TIP3    H150711   6.768   3.619   6.502 -0.4489  0.8536 -0.3108
 9740TIP3    H250712   6.637   3.549   6.531 -0.0740  0.2844  0.0226
 9741TIP3   OH250713   5.549   4.739  12.575 -0.3156  0.1630 -0.2567
 9741TIP3    H150714   5.484   4.739  12.505  0.5931 -0.3108 -1.1228
 9741TIP3    H250715   5.565   4.832  12.592 -1.2800  0.2883  0.0429
 9742TIP3   OH250716   4.613   6.128  15.543 -0.3283 -0.2209  0.1711
 9742TIP3    H150717   4.659   6.209  15.521 -0.7780 -0.0549 -0.1589
 9742TIP3    H250718   4.550   6.155  15.611  0.9420 -0.6940  1.5966
 9743TIP3   OH250719   6.423   1.867  12.719  0.1485 -0.1920  0.8456
 9743TIP3    H150720   6.481   1.901  12.651 -1.8277  1.8095  0.0546
 9743TIP3    H250721   6.462   1.898  12.801  1.1595 -0.4366  0.4721
 9744TIP3   OH250722   1.906   5.185  12.068  0.2027 -0.0276  0.3514
 9744TIP3    H150723   1.850   5.230  12.132 -0.7230 -0.6357 -0.0211
 9744TIP3    H250724   1.924   5.100  12.108  0.1154 -0.1788  0.0699
 9745TIP3   OH250725   6.533   4.018  13.380 -0.4957 -0.0984  0.7308
 9745TIP3    H150726   6.498   4.032  13.292  0.1882 -0.1914  0.4369
 9745TIP3    H250727   6.462   3.977  13.428 -0.4436 -1.2643 -0.1572
 9746TIP3   OH250728   4.473   0.658   1.965 -0.1005  0.0072  0.1317
 9746TIP3    H150729   4.438   0.714   1.895 -0.0403  0.7246  0.6574
 9746TIP3    H250730   4.441   0.571   1.945 -0.9019  0.3795 -0.2556
 9747TIP3   OH250731   6.358   5.521  15.203 -0.3667 -1.0106 -0.9499
 9747TIP3    H150732   6.306   5.496  15.127 -2.5700 -2.1848  0.8288
 9747TIP3    H250733   6.362   5.442  15.257 -1.9963  0.6317  1.8406
 9748TIP3   OH250734   2.913   3.661   0.470  0.3088  0.2691  0.1937
 9748TIP3    H150735   2.879   3.623   0.389 -0.0268  0.2910  0.3228
 9748TIP3    H250736   2.943   3.586   0.521  2.0760  0.3500 -0.6312
 9749TIP3   OH250737   0.060   3.552  14.550 -0.2648 -0.3686 -0.5870
 9749TIP3    H150738  -0.019   3.604  14.536  0.6355  1.2473  0.0935
 9749TIP3    H250739   0.119   3.580  14.480  0.8408  0.8364  0.7604
 9750TIP3   OH250740   5.650   0.963   2.793  0.6181  0.7668  0.0231
 9750TIP3    H150741   5.696   1.020   2.855  0.8209 -0.7922  1.3604
 9750TIP3    H250742   5.719   0.927   2.738  0.8151 -0.1613  0.8541
 9751TIP3   OH250743   0.237   4.654   5.932  0.4823 -0.4383  0.0738
 9751TIP3    H150744   0.194   4.580   5.892  3.2875 -1.2510 -1.7000
 9751TIP3    H250745   0.195   4.731   5.893 -1.8207 -0.9814  1.2600
 9752TIP3   OH250746   5.616   0.957  16.100  0.2927  0.3191  0.0359
 9752TIP3    H150747   5.594   1.041  16.061 -0.0037  0.6821  0.9775
 9752TIP3    H250748   5.700   0.934  16.060 -0.2628  0.4006 -1.2434
 9753TIP3   OH250749   4.905   4.016   6.114 -0.2867 -0.4189  0.1701
 9753TIP3    H150750   4.942   4.077   6.178 -2.7080  0.8618  0.4551
 9753TIP3    H250751   4.847   3.960   6.166 -3.1887  1.3748 -0.9131
 9754TIP3   OH250752   0.953   4.128   3.969 -0.4700  0.2671 -0.1513
 9754TIP3    H150753   0.942   4.204   3.913  0.4707  0.4083 -0.1575
 9754TIP3    H250754   0.944   4.162   4.058 -0.2222  0.3507 -0.1592
 9755TIP3   OH250755   1.698   3.135   2.102 -0.0408 -0.0310 -0.5282
 9755TIP3    H150756   1.613   3.090   2.103  0.2129 -0.5275 -0.7694
 9755TIP3    H250757   1.759   3.072   2.139  0.2921  0.1829 -0.7084
 9756TIP3   OH250758   6.650   2.276  13.697 -0.3942 -0.3247  0.0478
 9756TIP3    H150759   6.674   2.266  13.789 -1.3463  0.0382  0.3484
 9756TIP3    H250760   6.599   2.197  13.677  2.0554 -1.7599 -0.9654
 9757TIP3   OH250761   5.383   3.306  13.248 -0.3842  0.8222 -0.2005
 9757TIP3    H150762   5.310   3.368  13.254 -1.2438 -0.0350 -1.3456
 9757TIP3    H250763   5.443   3.346  13.185 -1.1539  0.2989 -1.2838
 9758TIP3   OH250764   2.422   1.427   0.526 -0.1680 -0.5407 -0.1538
 9758TIP3    H150765   2.429   1.480   0.605 -3.1437  2.3110 -1.5157
 9758TIP3    H250766   2.378   1.347   0.554  1.5100 -0.9467  1.4768
 9759TIP3   OH250767   3.109   4.502  15.342  0.0294 -0.3000  0.0800
 9759TIP3    H150768   3.015   4.507  15.323  0.0644 -0.7878 -0.2258
 9759TIP3    H250769   3.150   4.497  15.256  0.3280 -0.2590  0.2204
 9760TIP3   OH250770   5.340   2.741   4.308 -0.4112  0.0565  0.1729
 9760TIP3    H150771   5.319   2.677   4.377  0.7872 -1.4248 -0.7633
 9760TIP3    H250772   5.321   2.694   4.227 -0.3321  1.2287 -0.5340
 9761TIP3   OH250773   1.267   0.810   3.136 -0.4103  0.2537 -0.1286
 9761TIP3    H150774   1.211   0.877   3.174 -1.8305 -1.3279  0.7365
 9761TIP3    H250775   1.226   0.727   3.162  2.7505 -1.0606  1.2513
 9762TIP3   OH250776   3.218   0.086   0.552 -0.3684 -0.2135  0.5500
 9762TIP3    H150777   3.263   0.170   0.557 -0.3686 -0.3007  2.6689
 9762TIP3    H250778   3.205   0.059   0.643  1.9227 -3.6998  0.0666
 9763TIP3   OH250779   0.104   5.606   4.348  0.8503  0.8787 -1.0181
 9763TIP3    H150780   0.029   5.647   4.392  0.5487  0.0941 -0.7611
 9763TIP3    H250781   0.133   5.670   4.283  0.2863  1.4085 -0.7575
 9764TIP3   OH250782   3.857   3.481  15.352 -0.3842 -0.1257 -0.2439
 9764TIP3    H150783   3.915   3.430  15.295  0.0658 -0.6000  0.6273
 9764TIP3    H250784   3.772   3.479  15.307 -0.4218 -1.7957 -0.1702
 9765TIP3   OH250785   5.648   5.578   4.615 -0.3586  0.3662  0.5113
 9765TIP3    H150786   5.617   5.554   4.702 -0.1448  0.4928  0.6243
 9765TIP3    H250787   5.743   5.566   4.619 -0.5127 -1.3971 -0.2614
 9766TIP3   OH250788   5.998   6.554   1.197 -0.1997 -0.7039 -0.3711
 9766TIP3    H150789   5.929   6.589   1.252 -0.8681 -2.8090  0.2434
 9766TIP3    H250790   5.973   6.577   1.108  0.0028  1.2658  0.0511
 9767TIP3   OH250791   2.053   5.538   4.458 -0.2385  0.0930 -0.0922
 9767TIP3    H150792   2.041   5.458   4.509  0.3699  0.4006  0.5484
 9767TIP3    H250793   2.128   5.520   4.402  0.2732  0.4109  0.4763
 9768TIP3   OH250794   5.269   3.151   6.059  1.0701 -0.1910 -0.8087
 9768TIP3    H150795   5.195   3.168   6.001 -0.3570 -2.7004  0.1458
 9768TIP3    H250796   5.342   3.132   5.999  0.7476  1.3441 -1.7495
 9769TIP3   OH250797   3.577   1.213  15.972  0.0157  0.8133  0.0858
 9769TIP3    H150798   3.519   1.169  15.910 -0.2835  0.7603  0.4001
 9769TIP3    H250799   3.519   1.267  16.026  0.4818  2.4530 -0.9883
 9770TIP3   OH250800   4.828   3.338   5.269 -0.3581 -0.0581  0.4687
 9770TIP3    H150801   4.921   3.327   5.288 -0.4136 -1.1982  0.1894
 9770TIP3    H250802   4.785   3.272   5.324 -0.8697 -0.5373 -0.4789
 9771TIP3   OH250803   1.376   6.613  16.944 -0.5327 -0.0211 -0.6390
 9771TIP3    H150804   1.350   6.551  16.875  0.5555 -0.8940 -0.2812
 9771TIP3    H250805   1.431   6.562  17.003 -0.0400  1.1581 -0.0495
 9772TIP3   OH250806   4.884   5.024   1.373 -0.0926 -0.1817 -0.7377
 9772TIP3    H150807   4.873   5.105   1.423  1.3783 -0.7295  0.5667
 9772TIP3    H250808   4.949   5.046   1.306 -1.4017  0.3076 -1.8889
 9773TIP3   OH250809   3.261   5.692   2.497 -0.0229  0.7231 -0.7201
 9773TIP3    H150810   3.168   5.673   2.491  0.2586 -0.5357 -1.6048
 9773TIP3    H250811   3.285   5.719   2.408  0.8185 -0.8744 -1.0128
 9774TIP3   OH250812   1.814   4.040  11.891 -0.1514 -0.0334  0.3023
 9774TIP3    H150813   1.753   3.969  11.871 -0.0607 -0.4930  1.5587
 9774TIP3    H250814   1.767   4.119  11.866 -0.7772 -0.4556  0.0944
 9775TIP3   OH250815   1.818   1.331   2.883  0.3240 -0.0641 -0.2797
 9775TIP3    H150816   1.896   1.288   2.848  0.3666  1.2998 -1.9964
 9775TIP3    H250817   1.767   1.260   2.922  1.8538 -1.1545 -0.1729
 9776TIP3   OH250818   6.081   3.800   3.407 -0.0030  0.2166 -0.1617
 9776TIP3    H150819   5.992   3.812   3.373  0.2806  2.2937 -0.3333
 9776TIP3    H250820   6.091   3.706   3.417 -2.2963 -0.0560  0.0512
 9777TIP3   OH250821   3.496   2.966  17.098 -0.1325  0.0111  0.4393
 9777TIP3    H150822   3.518   2.893  17.040 -0.2267  0.2682  0.0682
 9777TIP3    H250823   3.567   3.029  17.085  0.6812 -0.5905  1.7997
 9778TIP3   OH250824   6.651   3.790  10.936 -0.1794 -0.3193  0.4639
 9778TIP3    H150825   6.640   3.703  10.895 -1.7503 -0.2795  0.7457
 9778TIP3    H250826   6.742   3.790  10.967  0.4336 -1.1357 -1.1941
 9779TIP3   OH250827   1.074   6.101  12.396  0.0166  0.1028  0.0580
 9779TIP3    H150828   1.085   6.158  12.320  1.1818 -2.6392 -1.9610
 9779TIP3    H250829   1.141   6.131  12.458  0.8434  0.6948 -1.0830
 9780TIP3   OH250830   2.587   4.519   2.107 -0.2243 -0.1217 -0.0726
 9780TIP3    H150831   2.529   4.488   2.177 -0.3084  0.9419  0.3601
 9780TIP3    H250832   2.660   4.560   2.154 -0.8768  1.7132 -0.5476
 9781TIP3   OH250833   6.251   1.729   3.931  0.1960  0.1288  0.1307
 9781TIP3    H150834   6.211   1.804   3.888 -0.0250  0.5250  1.0245
 9781TIP3    H250835   6.305   1.766   4.000  0.7281 -0.4957  0.0576
 9782TIP3   OH250836   4.456   2.686  11.212 -0.7503 -0.1550  0.3137
 9782TIP3    H150837   4.525   2.750  11.223  0.8473 -1.8410  0.5953
 9782TIP3    H250838   4.377   2.730  11.244  0.0829  1.9385 -0.3638
 9783TIP3   OH250839   0.402   2.874  15.141 -0.6624 -0.4146  0.8783
 9783TIP3    H150840   0.433   2.859  15.052  1.4257  0.7714  1.3407
 9783TIP3    H250841   0.309   2.894  15.131 -0.1049  1.5150 -1.2626
 9784TIP3   OH250842   5.513   3.599   3.524  0.2722 -0.2837  0.0486
 9784TIP3    H150843   5.609   3.601   3.528  0.2939 -1.5869  0.9517
 9784TIP3    H250844   5.489   3.523   3.577 -1.4227  2.2968  3.4116
 9785TIP3   OH250845   3.117   3.857  14.408 -0.6009 -0.6704  0.2201
 9785TIP3    H150846   3.087   3.891  14.324 -0.5514 -2.5809 -0.6178
 9785TIP3    H250847   3.200   3.814  14.388  0.3290  0.3624  1.6071
 9786TIP3   OH250848   0.593   4.576   1.230  0.2271  0.0268  0.1449
 9786TIP3    H150849   0.571   4.486   1.255 -0.6765 -0.0002 -0.6661
 9786TIP3    H250850   0.533   4.596   1.158 -0.1186  1.5581  0.8218
 9787TIP3   OH250851   5.295   5.595  16.948 -0.1460 -0.8516 -0.4437
 9787TIP3    H150852   5.387   5.578  16.933 -0.1545  0.5992 -2.7698
 9787TIP3    H250853   5.260   5.616  16.861 -3.1903 -3.4935 -0.0419
 9788TIP3   OH250854   1.894   1.628   1.360  0.0231 -0.1413 -0.3075
 9788TIP3    H150855   1.961   1.561   1.358 -2.1513 -2.4866 -2.5510
 9788TIP3    H250856   1.869   1.640   1.268 -4.1177 -1.1665  0.4620
 9789TIP3   OH250857   3.548   5.535  14.320  0.0747  0.2217  1.2325
 9789TIP3    H150858   3.569   5.513  14.229  1.4585 -0.4610  1.6929
 9789TIP3    H250859   3.615   5.598  14.345  0.6524 -0.7497  2.2346
 9790TIP3   OH250860   5.183   0.951  12.875  0.6138 -0.2130 -0.6574
 9790TIP3    H150861   5.129   0.888  12.828 -0.0928  0.2934 -0.5550
 9790TIP3    H250862   5.180   0.922  12.966  0.3178 -0.0555 -0.6155
 9791TIP3   OH250863   1.825   6.464  13.230 -0.1506  0.0170 -0.4113
 9791TIP3    H150864   1.810   6.432  13.319 -0.8924  0.8031 -0.2380
 9791TIP3    H250865   1.888   6.403  13.192  0.0832 -0.3901  0.6152
 9792TIP3   OH250866   2.419   2.697  11.862 -0.3369 -0.0019  0.2188
 9792TIP3    H150867   2.478   2.679  11.936 -0.8648 -1.7524  0.2490
 9792TIP3    H250868   2.476   2.738  11.796  0.6363 -0.4318  0.7596
 9793TIP3   OH250869   3.886   6.263   5.652  0.1489 -0.1271  0.3818
 9793TIP3    H150870   3.794   6.239   5.666 -0.1861  0.6789 -0.2987
 9793TIP3    H250871   3.936   6.203   5.707 -0.7588 -0.9273  0.3592
 9794TIP3   OH250872   0.817   2.595  13.486 -0.0419 -0.5507  0.7031
 9794TIP3    H150873   0.778   2.646  13.558  1.5902  0.4037  0.9619
 9794TIP3    H250874   0.857   2.661  13.430 -0.6534 -1.3452 -0.7204
 9795TIP3   OH250875   0.842   3.875  12.960  0.0832  0.1748  0.5334
 9795TIP3    H150876   0.928   3.833  12.964  0.4338  0.9349  1.6483
 9795TIP3    H250877   0.854   3.951  12.903 -0.2442 -0.5434 -0.5133
 9796TIP3   OH250878   3.695   2.239  16.551  0.7060  0.1156 -0.1181
 9796TIP3    H150879   3.784   2.228  16.585  0.7473 -0.2239 -0.3276
 9796TIP3    H250880   3.638   2.213  16.623  0.7927 -0.5816 -0.2917
 9797TIP3   OH250881   1.047   2.597  15.824  0.0776  0.2602 -0.0386
 9797TIP3    H150882   1.042   2.564  15.735 -0.8107  1.0218 -0.2812
 9797TIP3    H250883   0.996   2.534  15.876  0.4691 -0.1002 -0.0924
 9798TIP3   OH250884   3.018   0.901   5.667  0.2295  0.1117 -0.2806
 9798TIP3    H150885   3.023   0.944   5.752  0.4875 -1.8530  0.7716
 9798TIP3    H250886   2.966   0.960   5.613 -1.8350  0.4446  1.8850
 9799TIP3   OH250887   3.984   4.931   3.487 -0.4754 -0.1962 -0.1772
 9799TIP3    H150888   4.076   4.956   3.475  0.2945 -2.8790 -0.5120
 9799TIP3    H250889   3.987   4.836   3.498 -3.1802 -0.2634  0.4448
 9800TIP3   OH250890   6.124   5.376   4.808 -0.7237 -0.1088 -0.3008
 9800TIP3    H150891   6.094   5.466   4.800  0.1436  0.2776  0.6528
 9800TIP3    H250892   6.059   5.325   4.759 -2.0554  0.8611  0.3893
 9801TIP3   OH250893   5.567   2.251  12.171  0.1904 -0.8842  0.5591
 9801TIP3    H150894   5.540   2.287  12.086  3.0756  1.1466  0.3417
 9801TIP3    H250895   5.602   2.165  12.151  1.6190 -0.1011 -0.5517
 9802TIP3   OH250896   6.327   0.940  10.846  0.2233 -0.0814  0.5412
 9802TIP3    H150897   6.377   1.005  10.797 -1.4005  1.8955  1.3426
 9802TIP3    H250898   6.235   0.966  10.833 -0.3505 -0.3749  3.3329
 9803TIP3   OH250899   3.804   6.093  16.350 -0.3661 -0.6763  0.0523
 9803TIP3    H150900   3.784   6.114  16.441 -0.2089  0.9222 -0.2597
 9803TIP3    H250901   3.724   6.115  16.303  0.3663  0.9421 -0.5126
 9804TIP3   OH250902   3.424   6.452   4.407 -0.2412 -0.5569  0.2349
 9804TIP3    H150903   3.378   6.490   4.482 -0.1913 -2.0073  1.0547
 9804TIP3    H250904   3.497   6.403   4.447  0.6015 -0.2487 -0.8749
 9805TIP3   OH250905   0.668   6.414  14.522 -0.0723  0.1104 -0.7049
 9805TIP3    H150906   0.657   6.379  14.610  0.2707 -0.9620 -1.0706
 9805TIP3    H250907   0.756   6.452  14.522  0.4173 -0.9644 -0.9095
 9806TIP3   OH250908   4.841   4.053   4.291 -0.0824  0.0219  0.1059
 9806TIP3    H150909   4.887   4.107   4.355  1.2791  1.1260 -1.6781
 9806TIP3    H250910   4.910   4.005   4.245 -0.8415  0.2711 -1.3880
 9807TIP3   OH250911   3.780   4.212   4.339 -0.0649  0.4104 -0.4121
 9807TIP3    H150912   3.836   4.287   4.357  0.4340  0.1126 -0.7195
 9807TIP3    H250913   3.763   4.217   4.245 -0.4488  0.4222 -0.3456
 9808TIP3   OH250914   2.388   0.994   3.515 -0.4328 -0.4325 -0.1069
 9808TIP3    H150915   2.475   0.974   3.550 -1.2802 -0.8302  1.8953
 9808TIP3    H250916   2.386   0.948   3.431  0.6600 -1.9216  0.6187
 9809TIP3   OH250917   4.944   1.506   0.558 -0.1574 -0.1115  0.5191
 9809TIP3    H150918   4.912   1.574   0.498  1.0314 -0.5650 -0.6652
 9809TIP3    H250919   4.980   1.555   0.632 -1.5803  0.4555  0.8715
 9810TIP3   OH250920   0.161   1.603  12.176  0.3352 -0.0008 -0.4074
 9810TIP3    H150921   0.121   1.665  12.237 -1.2909 -1.5556  0.1933
 9810TIP3    H250922   0.142   1.638  12.089  0.4948  0.9329 -0.0803
 9811TIP3   OH250923   4.466   5.340  13.383 -0.7045 -0.0596  0.3634
 9811TIP3    H150924   4.384   5.368  13.342 -0.9024 -0.4922  0.4590
 9811TIP3    H250925   4.532   5.347  13.314 -0.8219  0.2869  0.2861
 9812TIP3   OH250926   2.980   3.883   3.371 -0.1789  0.7588 -0.0422
 9812TIP3    H150927   3.068   3.919   3.363  0.4202 -0.5187  0.4401
 9812TIP3    H250928   2.923   3.959   3.375  1.0576  1.6597  1.4549
 9813TIP3   OH250929   2.819   4.995  17.157 -0.7237 -0.0270  0.0143
 9813TIP3    H150930   2.874   5.054  17.208 -1.9828  1.2481 -0.0196
 9813TIP3    H250931   2.878   4.927  17.127  0.6377  0.7911  0.7163
 9814TIP3   OH250932   0.569   6.319   1.176 -0.3816 -0.3242  0.1578
 9814TIP3    H150933   0.603   6.308   1.265 -2.5334  0.8312  1.1881
 9814TIP3    H250934   0.511   6.244   1.163 -1.1763  0.2609  0.2941
 9815TIP3   OH250935   3.738   6.386  11.972 -0.0385  0.3288 -0.5062
 9815TIP3    H150936   3.806   6.432  11.922 -1.1555  1.3119 -1.1715
 9815TIP3    H250937   3.674   6.453  11.993 -0.8434 -0.5881  0.0517
 9816TIP3   OH250938   6.685   3.489  12.775 -0.1558 -0.7659 -0.6434
 9816TIP3    H150939   6.688   3.490  12.871  2.5423 -0.0748 -0.6601
 9816TIP3    H250940   6.681   3.581  12.750  1.7147 -0.7920 -1.1652
 9817TIP3   OH250941   5.636   1.714  11.835 -0.5205  0.3511  0.1287
 9817TIP3    H150942   5.556   1.682  11.795  0.1562 -1.2172 -0.0540
 9817TIP3    H250943   5.612   1.732  11.926 -1.1829  0.3627 -0.0456
 9818TIP3   OH250944   6.682   4.331   5.300  0.3302  0.8031 -0.4505
 9818TIP3    H150945   6.638   4.407   5.263  0.5176  0.9175 -0.4398
 9818TIP3    H250946   6.738   4.298   5.230  0.0837  0.5400 -0.5277
 9819TIP3   OH250947   5.450   2.472  11.981  0.0971  0.4470 -0.2793
 9819TIP3    H150948   5.494   2.467  11.896 -2.6466  0.6693 -1.8583
 9819TIP3    H250949   5.508   2.524  12.036  3.0225 -1.5224 -1.2519
 9820TIP3   OH250950   0.980   1.396   1.629  0.3919 -0.0524 -0.5114
 9820TIP3    H150951   0.926   1.473   1.611  1.9418  0.6015 -2.8276
 9820TIP3    H250952   0.934   1.323   1.587 -0.4913 -0.2238  0.6968
 9821TIP3   OH250953   3.742   1.648  14.787 -0.8602  0.1786  0.0062
 9821TIP3    H150954   3.672   1.688  14.839 -0.9039  0.3240 -0.1613
 9821TIP3    H250955   3.744   1.700  14.707 -0.2749  0.4460  0.1852
 9822TIP3   OH250956   0.075   1.811  15.193  0.4590 -0.6425  0.4023
 9822TIP3    H150957  -0.011   1.853  15.183  1.2644  1.2455  0.9335
 9822TIP3    H250958   0.095   1.821  15.286  1.3256 -0.9397  0.2528
 9823TIP3   OH250959   2.694   3.975  15.617 -0.4725  0.3188 -0.1669
 9823TIP3    H150960   2.665   4.015  15.534 -0.6476 -0.5302 -0.5188
 9823TIP3    H250961   2.696   4.048  15.679  0.1544  1.0670 -1.0452
 9824TIP3   OH250962   6.601   2.053   5.296  0.5627  0.1134 -0.5617
 9824TIP3    H150963   6.550   2.061   5.377 -1.4227  0.6693 -1.8017
 9824TIP3    H250964   6.550   1.994   5.241 -0.0178  2.4421 -2.7163
 9825TIP3   OH250965   5.855   1.448  12.266 -0.2517 -0.1261  0.1693
 9825TIP3    H150966   5.939   1.485  12.294 -0.3357  0.6450 -0.5421
 9825TIP3    H250967   5.794   1.470  12.336  0.0568 -0.3468  0.5082
 9826TIP3   OH250968   6.549   2.083  15.359  0.1407  0.1951 -0.2976
 9826TIP3    H150969   6.561   1.999  15.403  0.5900  0.2121 -0.3821
 9826TIP3    H250970   6.490   2.065  15.287 -0.5227  0.1442  0.2496
 9827TIP3   OH250971   3.112   0.883  14.306  0.3083  0.4207 -0.2714
 9827TIP3    H150972   3.154   0.949  14.360 -0.1217  0.5375 -0.0784
 9827TIP3    H250973   3.090   0.929  14.224 -0.9537  0.8188  0.2602
 9828TIP3   OH250974   6.653   0.427  13.842 -0.0371 -0.4836  0.0531
 9828TIP3    H150975   6.610   0.512  13.851  1.8058  0.2478  4.2335
 9828TIP3    H250976   6.736   0.446  13.800 -0.9157 -0.8512 -1.9698
 9829TIP3   OH250977   4.716   5.832   3.138  0.5751  0.4146 -0.1296
 9829TIP3    H150978   4.669   5.909   3.170  0.8432  0.1085  1.0657
 9829TIP3    H250979   4.696   5.828   3.045 -1.9513  0.1770  0.3503
 9830TIP3   OH250980   0.541   0.255  15.661  0.3428  0.2845 -0.3550
 9830TIP3    H150981   0.463   0.201  15.674 -0.3209  1.7121  2.3129
 9830TIP3    H250982   0.599   0.201  15.607 -0.1287 -3.2776  2.3178
 9831TIP3   OH250983   0.909   4.375   5.917 -0.6361  0.1452 -0.3556
 9831TIP3    H150984   0.910   4.464   5.882 -1.7296  0.6412  0.8053
 9831TIP3    H250985   0.994   4.365   5.959 -1.0062  1.1587  0.6829
 9832TIP3   OH250986   3.400   5.607   0.686 -0.1461 -0.8009  0.5756
 9832TIP3    H150987   3.411   5.515   0.666  3.4750 -0.0841 -1.7636
 9832TIP3    H250988   3.423   5.614   0.779  1.3386 -2.1034  0.3498
 9833TIP3   OH250989   1.283   5.987   5.622  0.0139  0.0282 -0.3283
 9833TIP3    H150990   1.344   6.047   5.579 -0.1836 -1.0398 -2.1893
 9833TIP3    H250991   1.197   6.026   5.608 -0.1112 -0.5980 -1.5135
 9834TIP3   OH250992   6.715   1.033  17.303 -0.0196 -0.3057  0.1825
 9834TIP3    H150993   6.793   1.040  17.358 -0.5755 -0.1760  0.9783
 9834TIP3    H250994   6.717   1.110  17.247 -2.1916  2.6576  3.7092
 9835TIP3   OH250995   5.682   1.063   4.647 -0.1095  0.3952 -0.1767
 9835TIP3    H150996   5.646   1.080   4.734  0.3961  0.9651 -0.0736
 9835TIP3    H250997   5.705   1.149   4.613 -0.7679  0.2332 -1.0893
 9836TIP3   OH250998   6.479   4.346   1.530 -0.1549 -0.1134  0.5185
 9836TIP3    H150999   6.523   4.337   1.615 -0.5877  1.4530  0.9307
 9836TIP3    H251000   6.540   4.395   1.476 -0.3374 -0.1676  0.2594
 9837TIP3   OH251001   6.334   1.813  13.600  0.2781 -0.4423  0.0988
 9837TIP3    H151002   6.273   1.744  13.624 -1.6527  0.0387 -2.8997
 9837TIP3    H251003   6.412   1.767  13.570 -0.6343 -1.3430 -0.9756
 9838TIP3   OH251004   2.520   3.492  15.240 -0.0420 -0.4985 -0.2722
 9838TIP3    H151005   2.430   3.487  15.273 -0.9412 -0.2878 -2.5434
 9838TIP3    H251006   2.568   3.427  15.292 -1.1665  0.2808  1.8727
 9839TIP3   OH251007   5.631   4.612  14.833 -0.1295  0.4330  0.3870
 9839TIP3    H151008   5.586   4.688  14.795  0.2391  0.5214  0.1229
 9839TIP3    H251009   5.690   4.649  14.899  0.4476  0.4267 -0.1215
 9840TIP3   OH251010   3.060   2.856  12.506  0.0847  0.2552  0.2072
 9840TIP3    H151011   3.062   2.916  12.431  2.4889 -0.7527 -0.6319
 9840TIP3    H251012   3.087   2.772  12.470  1.5181 -0.2226  2.2261
 9841TIP3   OH251013   1.306   2.392  13.694  0.1873 -0.0480  0.0765
 9841TIP3    H151014   1.311   2.299  13.671 -0.0620  0.0130 -0.2258
 9841TIP3    H251015   1.374   2.404  13.761  1.9736  0.0603 -1.6667
 9842TIP3   OH251016   3.140   6.355  11.843 -0.4601 -0.0564 -0.0742
 9842TIP3    H151017   3.080   6.314  11.906 -0.7976 -1.3920 -1.2233
 9842TIP3    H251018   3.193   6.283  11.810  3.2766  1.3016  2.3158
 9843TIP3   OH251019   4.304   1.869   5.455  0.0853  0.0812 -0.5357
 9843TIP3    H151020   4.282   1.961   5.444  0.9219  0.4261  0.5145
 9843TIP3    H251021   4.396   1.863   5.426  0.5438 -0.0852  0.8589
 9844TIP3   OH251022   6.337   0.876  14.345  0.8071 -0.3318 -0.6299
 9844TIP3    H151023   6.384   0.811  14.292  1.1673  0.0936 -0.8356
 9844TIP3    H251024   6.328   0.952  14.287  0.2661 -0.2464 -0.4362
 9845TIP3   OH251025   2.276   3.963   0.797 -0.3099 -0.3446 -0.3137
 9845TIP3    H151026   2.269   4.006   0.882  0.9468 -0.5386 -0.0884
 9845TIP3    H251027   2.284   3.870   0.817  2.3853 -0.2257 -0.4422
 9846TIP3   OH251028   4.966   5.368  13.113 -0.2131  0.0331 -0.2422
 9846TIP3    H151029   4.965   5.464  13.110 -1.5437  0.0536  0.3333
 9846TIP3    H251030   5.016   5.343  13.035  1.5667  1.2018  0.4692
 9847TIP3   OH251031   2.628   5.617   0.833 -0.1618  0.1652 -0.4631
 9847TIP3    H151032   2.698   5.645   0.891 -0.9032 -1.0376  1.0905
 9847TIP3    H251033   2.548   5.653   0.871 -0.6748 -0.7242 -0.6442
 9848TIP3   OH251034   1.907   2.212   1.315 -0.2591 -0.0530 -0.2997
 9848TIP3    H151035   1.978   2.217   1.250 -1.5994 -0.1219 -1.8174
 9848TIP3    H251036   1.862   2.296   1.307 -3.1032 -1.6351 -2.6925
 9849TIP3   OH251037   4.638   5.966   3.452  0.0487 -0.0805  0.4779
 9849TIP3    H151038   4.546   5.938   3.456 -0.4729  0.1805 -4.2771
 9849TIP3    H251039   4.636   6.057   3.482 -1.0562 -0.3549  1.3212
 9850TIP3   OH251040   3.280   5.190  10.513 -0.1065  0.1872  0.5908
 9850TIP3    H151041   3.353   5.224  10.565  0.2279  0.1208  0.1644
 9850TIP3    H251042   3.307   5.202  10.422  0.3310 -1.8574  0.4153
 9851TIP3   OH251043   0.696   1.864   3.790 -0.6494 -0.5302 -0.2248
 9851TIP3    H151044   0.738   1.854   3.875 -0.2212 -0.2944 -0.4072
 9851TIP3    H251045   0.604   1.881   3.810 -0.8598 -1.9774  0.1667
 9852TIP3   OH251046   1.410   2.680  14.078 -0.0700 -0.2358 -0.4076
 9852TIP3    H151047   1.425   2.728  14.159  3.0978 -0.3161 -0.8533
 9852TIP3    H251048   1.425   2.744  14.008 -0.2464 -0.7847 -0.9590
 9853TIP3   OH251049   2.219   4.088  16.030 -0.2251 -0.6993 -0.1418
 9853TIP3    H151050   2.172   4.172  16.031 -0.7168 -0.9776  0.5951
 9853TIP3    H251051   2.156   4.025  15.995 -0.7224 -1.2406  1.6347
 9854TIP3   OH251052   4.259   4.302  17.369 -0.3248 -0.4121 -0.3940
 9854TIP3    H151053   4.195   4.339  17.308 -1.2272 -1.0602  0.1219
 9854TIP3    H251054   4.210   4.234  17.416 -0.2928  1.4032  2.4941
 9855TIP3   OH251055   5.699   5.621  17.425 -0.2287 -0.2639 -0.2352
 9855TIP3    H151056   5.772   5.677  17.451 -0.6217  1.1038 -1.8837
 9855TIP3    H251057   5.638   5.680  17.380 -1.0536 -1.8448 -1.2972
 9856TIP3   OH251058   6.299   0.987  13.600 -0.2787 -0.7857 -0.2735
 9856TIP3    H151059   6.342   0.989  13.686 -2.2606 -3.1080  0.8897
 9856TIP3    H251060   6.250   1.070  13.597  0.1313 -0.4861  0.6684
 9857TIP3   OH251061   4.758   5.540   3.074 -0.0857 -0.7339  0.6530
 9857TIP3    H151062   4.838   5.590   3.094 -0.5061  1.4695 -2.4371
 9857TIP3    H251063   4.789   5.464   3.024  0.1242  0.2833 -0.8181
 9858TIP3   OH251064   5.402   5.737  14.027 -0.1914 -0.4255  0.4389
 9858TIP3    H151065   5.346   5.813  14.012  0.3190 -0.4050 -1.7034
 9858TIP3    H251066   5.456   5.732  13.949  1.9392 -1.2037  1.8740
 9859TIP3   OH251067   1.708   0.131  16.521  0.5323 -0.1214 -0.3342
 9859TIP3    H151068   1.654   0.131  16.442  1.0906  1.8198 -0.7783
 9859TIP3    H251069   1.792   0.169  16.493  0.3668  1.6946  1.3855
 9860TIP3   OH251070   5.929   4.685  11.556  0.1504  0.0440  0.3557
 9860TIP3    H151071   5.887   4.705  11.472 -0.5074 -1.6594  0.2490
 9860TIP3    H251072   6.019   4.662  11.533 -0.3672 -1.7177 -0.0885
 9861TIP3   OH251073   2.676   6.578  11.795 -0.3541 -0.5606 -0.0910
 9861TIP3    H151074   2.702   6.611  11.709 -0.8046 -0.5560 -0.2303
 9861TIP3    H251075   2.727   6.498  11.807  1.0344  0.3479  0.4142
 9862TIP3   OH251076   3.349   2.004   4.962 -0.9280  0.2710  0.3987
 9862TIP3    H151077   3.424   1.958   5.000 -1.3618 -0.8336 -0.0600
 9862TIP3    H251078   3.351   2.091   5.004  0.4706  0.1882  0.5545
 9863TIP3   OH251079   5.499   5.233  12.937  0.2054 -0.7794 -0.2264
 9863TIP3    H151080   5.575   5.259  12.884  1.3969 -2.2537  0.6804
 9863TIP3    H251081   5.425   5.241  12.878  1.2748 -0.7783 -1.6220
 9864TIP3   OH251082   1.094   4.352   1.078 -0.2446  0.0086 -0.1003
 9864TIP3    H151083   1.178   4.326   1.116 -0.0476  1.5814  0.6326
 9864TIP3    H251084   1.034   4.356   1.153 -0.0482  2.3817 -0.0065
 9865TIP3   OH251085   2.425   2.741   0.469 -0.2740 -0.5497  0.5066
 9865TIP3    H151086   2.329   2.743   0.463 -0.4375  0.9279  2.7347
 9865TIP3    H251087   2.446   2.650   0.486 -1.2162 -0.9973 -0.5859
 9866TIP3   OH251088   4.494   2.177  13.205 -0.0809  0.1511  0.2305
 9866TIP3    H151089   4.401   2.187  13.226 -0.2959  0.6726 -0.8737
 9866TIP3    H251090   4.503   2.084  13.184 -0.4683  0.1935 -0.1423
 9867TIP3   OH251091   4.483   2.445  12.502  0.0312 -1.0126  0.2312
 9867TIP3    H151092   4.416   2.456  12.569  0.3526  1.2021  0.2562
 9867TIP3    H251093   4.435   2.446  12.419 -0.0844 -0.5908  0.3007
 9868TIP3   OH251094   0.191   1.524   5.511  0.6933 -0.3583  0.7206
 9868TIP3    H151095   0.220   1.615   5.498 -0.4934  0.4095  2.8549
 9868TIP3    H251096   0.156   1.498   5.426 -1.8694  2.3765  0.7669
 9869TIP3   OH251097   3.224   3.285   1.722 -0.1672 -0.4723  0.1690
 9869TIP3    H151098   3.284   3.360   1.726  0.7516 -1.2393  3.3028
 9869TIP3    H251099   3.141   3.323   1.693  0.5622  1.5592  0.5785
 9870TIP3   OH251100   3.239   1.483  16.401 -0.1521 -0.1469 -0.0561
 9870TIP3    H151101   3.239   1.399  16.446  1.2988  0.9297  2.1365
 9870TIP3    H251102   3.331   1.510  16.400 -0.2281  0.3921 -2.8814
 9871TIP3   OH251103   1.602   0.821  15.419  0.1542  0.2203  0.0728
 9871TIP3    H151104   1.632   0.757  15.355  1.1761 -0.7100  1.4319
 9871TIP3    H251105   1.657   0.897  15.405  0.0570  0.2008 -0.4467
 9872TIP3   OH251106   6.500   3.860  15.884 -0.0880  0.5682  0.0939
 9872TIP3    H151107   6.444   3.926  15.843  0.0452  0.5270 -0.1581
 9872TIP3    H251108   6.543   3.816  15.811  0.3324  0.6525  0.2865
 9873TIP3   OH251109   5.405   1.452   3.429 -0.0302 -0.3170  0.2010
 9873TIP3    H151110   5.460   1.403   3.368  0.0987 -0.0434  0.0972
 9873TIP3    H251111   5.411   1.543   3.400 -0.0014 -0.1899  0.5979
 9874TIP3   OH251112   4.762   0.866  15.542 -0.8585 -0.6726  0.1044
 9874TIP3    H151113   4.761   0.863  15.637  0.7009 -0.8006  0.1461
 9874TIP3    H251114   4.721   0.784  15.515 -0.6302 -0.9846  0.6868
 9875TIP3   OH251115   6.642   3.032  14.847 -0.2585  0.0355 -0.8782
 9875TIP3    H151116   6.722   3.043  14.899 -0.5488  0.5239 -0.5241
 9875TIP3    H251117   6.672   2.996  14.763  0.0540 -2.2146  0.1387
 9876TIP3   OH251118   0.913   6.540   3.302  0.0513  0.9582  0.0837
 9876TIP3    H151119   0.946   6.509   3.218 -0.4757  1.4160 -0.3028
 9876TIP3    H251120   0.929   6.467   3.362  0.9892  0.8560 -0.2676
 9877TIP3   OH251121   1.056   2.460  14.535  0.1590 -0.2957  0.3271
 9877TIP3    H151122   1.089   2.550  14.523  4.6825 -1.7128  0.2669
 9877TIP3    H251123   1.067   2.419  14.449 -1.3464 -1.0809  0.4921
 9878TIP3   OH251124   5.359   6.397   0.118 -0.0446 -0.3180 -0.0629
 9878TIP3    H151125   5.319   6.409   0.032 -0.4958 -0.2184  0.1603
 9878TIP3    H251126   5.345   6.305   0.139  0.5811 -0.4890 -0.3468
 9879TIP3   OH251127   2.912   0.436  10.917  0.0162  0.1401  0.6082
 9879TIP3    H151128   2.925   0.490  10.838 -0.8282 -0.7997 -0.2051
 9879TIP3    H251129   2.846   0.485  10.968  0.4845  0.6990  0.6887
 9880TIP3   OH251130   4.143   5.744   2.756  0.1021 -0.1704 -0.3704
 9880TIP3    H151131   4.171   5.653   2.762 -0.5650 -0.3879 -0.4957
 9880TIP3    H251132   4.083   5.756   2.829 -0.8858 -0.2305 -1.1447
 9881TIP3   OH251133   2.365   5.247   1.182  0.3417  0.0358  0.0035
 9881TIP3    H151134   2.420   5.169   1.172  0.1759 -0.1250  0.3172
 9881TIP3    H251135   2.338   5.270   1.093 -1.7504 -1.8096  0.0781
 9882TIP3   OH251136   0.547   0.115  10.900 -0.1879  0.2129 -0.4669
 9882TIP3    H151137   0.467   0.168  10.904  1.4345  2.7937  0.8691
 9882TIP3    H251138   0.554   0.076  10.987 -0.4729 -0.8279 -0.9009
 9883TIP3   OH251139   6.133   0.332   1.416 -0.4167  0.0041 -0.0730
 9883TIP3    H151140   6.123   0.319   1.322  0.6978  0.0788 -0.2146
 9883TIP3    H251141   6.198   0.267   1.442 -0.0770  0.5617  0.4960
 9884TIP3   OH251142   4.981   5.404   2.478 -0.0744 -0.2626  0.3386
 9884TIP3    H151143   4.958   5.324   2.430  2.7028 -1.2753  0.5156
 9884TIP3    H251144   4.945   5.475   2.425 -1.4679 -1.5533 -0.5203
 9885TIP3   OH251145   4.811   0.347  11.468 -0.2159 -0.8788 -0.2665
 9885TIP3    H151146   4.868   0.386  11.402  0.9599 -1.4126  0.3992
 9885TIP3    H251147   4.822   0.252  11.456 -1.1882 -0.9947 -0.3110
 9886TIP3   OH251148   1.272   0.387   3.330 -0.2454  0.1512  0.0669
 9886TIP3    H151149   1.368   0.389   3.326 -0.2396  0.7990  0.4480
 9886TIP3    H251150   1.246   0.329   3.258  0.4476 -0.3612  0.2225
 9887TIP3   OH251151   0.917   4.802   0.583  0.5120  0.7850  0.4204
 9887TIP3    H151152   1.010   4.791   0.605  0.8464 -1.4090 -1.6215
 9887TIP3    H251153   0.870   4.765   0.658  1.4654 -1.9968 -0.2163
 9888TIP3   OH251154   6.515   4.031   5.821 -0.1165  0.1899  0.5666
 9888TIP3    H151155   6.430   4.069   5.800 -0.7645 -0.1059  2.4956
 9888TIP3    H251156   6.494   3.948   5.864  1.2241 -1.4200 -1.6635
 9889TIP3   OH251157   5.911   2.307  14.959 -0.3782  0.2279 -0.2570
 9889TIP3    H151158   5.872   2.243  15.019 -1.6225  3.4429  2.7636
 9889TIP3    H251159   5.856   2.303  14.881 -0.0220 -2.7099 -0.4505
 9890TIP3   OH251160   1.924   4.570  13.243  0.4841 -0.2714  0.3087
 9890TIP3    H151161   1.830   4.552  13.237  0.0495  1.9226 -0.0224
 9890TIP3    H251162   1.948   4.542  13.331 -0.6521 -0.1364  0.6803
 9891TIP3   OH251163   5.449   0.078   2.345 -0.1543 -0.0058  0.3294
 9891TIP3    H151164   5.360   0.105   2.319 -0.3677 -0.5274  0.5071
 9891TIP3    H251165   5.440  -0.015   2.367  0.7835 -0.5257 -1.3106
 9892TIP3   OH251166   1.933   3.162  11.628 -0.1350 -0.4906  0.6018
 9892TIP3    H151167   1.899   3.073  11.638 -0.0862 -0.6745 -0.7175
 9892TIP3    H251168   1.900   3.191  11.543 -0.5437  0.9372  1.2171
 9893TIP3   OH251169   3.507   1.284   4.742 -0.2688 -0.1283 -0.3443
 9893TIP3    H151170   3.520   1.312   4.832 -0.3758  1.7287 -0.8620
 9893TIP3    H251171   3.590   1.302   4.698 -0.5395 -0.0435 -0.8376
 9894TIP3   OH251172   4.026   1.210  16.596  0.4614  0.1121  0.0909
 9894TIP3    H151173   4.105   1.263  16.595  1.6164 -1.5491 -1.1856
 9894TIP3    H251174   3.982   1.230  16.513  0.4226 -0.2335  0.0262
 9895TIP3   OH251175   2.094   4.336   2.484  0.1292  0.0376 -0.6145
 9895TIP3    H151176   2.005   4.302   2.471  0.4099 -1.7975  1.6954
 9895TIP3    H251177   2.151   4.267   2.450  0.6787 -0.1287  0.5956
 9896TIP3   OH251178   3.703   5.665   2.683  0.6924  0.8891  0.0372
 9896TIP3    H151179   3.636   5.704   2.740  0.7086 -1.8781  2.1368
 9896TIP3    H251180   3.658   5.651   2.600 -0.7857  0.8445  0.8075
 9897TIP3   OH251181   3.689   5.692  17.428 -0.1867 -0.3130  0.6242
 9897TIP3    H151182   3.745   5.739  17.366  0.3719  1.0813  2.1216
 9897TIP3    H251183   3.735   5.697  17.511 -1.7217 -0.6316  1.5311
 9898TIP3   OH251184   3.188   4.996  16.460  0.7795  0.4470 -0.3362
 9898TIP3    H151185   3.186   5.072  16.401 -0.2098 -0.0546 -0.9784
 9898TIP3    H251186   3.119   5.013  16.524  0.4325  0.0266 -0.5885
 9899TIP3   OH251187   3.974   6.557  13.163 -0.0898 -0.7333  0.1588
 9899TIP3    H151188   3.964   6.633  13.105  1.6108 -0.3823  0.2696
 9899TIP3    H251189   3.996   6.485  13.104  2.2907 -0.2400  0.3283
 9900TIP3   OH251190   2.405   2.856   5.452  0.1585 -0.0315 -0.4398
 9900TIP3    H151191   2.455   2.898   5.382 -0.3003 -1.3614 -1.6271
 9900TIP3    H251192   2.469   2.837   5.520  0.3867  2.4705  0.1338
 9901TIP3   OH251193   3.921   4.247  13.591  0.4228 -0.3135 -0.1820
 9901TIP3    H151194   3.901   4.201  13.672  0.6233  0.8793  0.5800
 9901TIP3    H251195   3.965   4.182  13.536  2.6927 -0.5103  1.6878
 9902TIP3   OH251196   5.022   0.750   3.269  0.2739 -0.2497 -0.3826
 9902TIP3    H151197   5.112   0.729   3.294  0.3829  1.4552  0.8175
 9902TIP3    H251198   5.015   0.844   3.283 -1.5882 -0.2892 -0.8553
 9903TIP3   OH251199   5.228   0.084  14.028 -0.1295 -0.0479  0.1155
 9903TIP3    H151200   5.249   0.157  13.970  1.5243 -0.8479 -0.3535
 9903TIP3    H251201   5.158   0.036  13.983 -1.4809  1.3783  0.5893
 9904TIP3   OH251202   0.498   5.255   3.781 -0.0292 -0.4852 -0.6359
 9904TIP3    H151203   0.465   5.340   3.810  1.2587  0.3814 -1.6165
 9904TIP3    H251204   0.572   5.237   3.838 -0.9955 -1.5475  0.3406
 9905TIP3   OH251205   3.586   6.706   5.970 -0.6496 -0.4989 -0.2755
 9905TIP3    H151206   3.680   6.688   5.970 -0.2189  1.4533  0.5488
 9905TIP3    H251207   3.559   6.699   5.878  0.5679  0.1369 -0.6961
 9906TIP3   OH251208   3.042   5.653  13.397  0.5451 -0.3959 -0.3210
 9906TIP3    H151209   3.041   5.749  13.407  2.0047 -0.2825 -0.9418
 9906TIP3    H251210   3.115   5.624  13.452  0.7208 -1.0376 -0.8799
 9907TIP3   OH251211   3.156   3.810   0.601  0.2644  0.1140  0.7254
 9907TIP3    H151212   3.108   3.892   0.593 -1.3979 -0.7955  0.8840
 9907TIP3    H251213   3.247   3.833   0.580 -0.2774  1.8406  0.0915
 9908TIP3   OH251214   5.461   1.973  16.728  0.3560  0.5084 -0.1923
 9908TIP3    H151215   5.552   1.962  16.756  0.2830  1.2753  0.3769
 9908TIP3    H251216   5.427   2.044  16.783 -1.3600 -1.4466  1.4344
 9909TIP3   OH251217   6.604   0.886   0.150  0.4395 -0.2052  0.3316
 9909TIP3    H151218   6.588   0.911   0.241 -1.6570  0.4905 -0.1683
 9909TIP3    H251219   6.563   0.955   0.098  0.5965 -1.1567 -1.1286
 9910TIP3   OH251220   5.319   0.412  12.522  0.0310 -0.3604  0.3048
 9910TIP3    H151221   5.232   0.397  12.560 -0.7444  1.4640 -0.6376
 9910TIP3    H251222   5.311   0.496  12.477  1.8990 -0.8072 -0.9528
 9911TIP3   OH251223   5.687   2.996  16.517 -0.7181 -0.0239  0.3934
 9911TIP3    H151224   5.625   3.068  16.530 -0.2551  0.7575 -1.3387
 9911TIP3    H251225   5.665   2.933  16.584 -1.7529  1.3350  1.3925
 9912TIP3   OH251226   2.673   2.403   5.913  0.3913 -0.0250  0.1369
 9912TIP3    H151227   2.718   2.402   5.997 -0.3603  2.1199  0.6311
 9912TIP3    H251228   2.608   2.333   5.919 -0.2465  0.6519  1.7277
 9913TIP3   OH251229   3.704   2.081  12.123  0.0398 -0.2670 -0.0622
 9913TIP3    H151230   3.624   2.098  12.072  0.6462 -2.3220 -1.8365
 9913TIP3    H251231   3.686   1.999  12.168  0.2141  0.6045  1.6614
 9914TIP3   OH251232   6.168   1.224   2.902 -0.2181 -0.0645  0.7637
 9914TIP3    H151233   6.240   1.256   2.848  0.4081 -0.8176  1.1389
 9914TIP3    H251234   6.182   1.263   2.988 -1.1659  1.0624  0.4383
 9915TIP3   OH251235   0.775   1.359   0.957  0.1087  0.3268  0.2853
 9915TIP3    H151236   0.815   1.301   0.892 -0.7220 -0.7546  0.7005
 9915TIP3    H251237   0.784   1.446   0.919  1.1063 -0.0907 -0.5132
 9916TIP3   OH251238   0.672   5.772   5.915 -0.0448 -0.2343  0.2181
 9916TIP3    H151239   0.738   5.831   5.952  0.1152 -1.2321  1.6343
 9916TIP3    H251240   0.717   5.729   5.842  0.5497 -0.1639  0.5349
 9917TIP3   OH251241   1.745   1.841  15.831  0.0322  0.0891  0.3548
 9917TIP3    H151242   1.773   1.798  15.912 -0.2542  1.0957  1.0101
 9917TIP3    H251243   1.682   1.908  15.860  1.2441  1.6667 -0.4888
 9918TIP3   OH251244   5.286   4.869   3.584 -0.2681  0.1071 -0.0165
 9918TIP3    H151245   5.221   4.930   3.621 -1.8340 -1.1229 -0.5963
 9918TIP3    H251246   5.256   4.856   3.493  1.9574  1.0221 -0.9530
 9919TIP3   OH251247   0.996   3.354   0.724  0.4851  0.6373  0.1636
 9919TIP3    H151248   1.005   3.408   0.802  1.1910 -0.9358  1.2325
 9919TIP3    H251249   0.966   3.269   0.756  1.1937 -0.1855 -1.2124
 9920TIP3   OH251250   0.877   0.934  13.557  0.2587  0.3488  0.1597
 9920TIP3    H151251   0.902   0.976  13.639 -1.3978 -0.5267  1.1919
 9920TIP3    H251252   0.796   0.978  13.531  0.7598  0.6047 -1.0065
 9921TIP3   OH251253   2.325   0.081  16.825  0.3343 -0.5431  0.5258
 9921TIP3    H151254   2.349   0.145  16.892  3.4126 -1.4206  0.4173
 9921TIP3    H251255   2.286   0.134  16.755  1.4125  1.0433  1.0572
 9922TIP3   OH251256   0.536   5.768   4.005 -0.1632  0.2892  0.2641
 9922TIP3    H151257   0.590   5.729   4.074  1.3918  2.8634  0.6041
 9922TIP3    H251258   0.448   5.771   4.042  0.1297 -0.7302  1.0922
 9923TIP3   OH251259   4.941   5.797   0.760 -0.0818  0.2411  0.0035
 9923TIP3    H151260   4.903   5.758   0.681  0.0967  0.6767 -0.2983
 9923TIP3    H251261   5.021   5.840   0.730  0.3301 -0.1301  0.5280
 9924TIP3   OH251262   0.417   3.631  15.009 -0.5092 -0.1819 -0.3849
 9924TIP3    H151263   0.349   3.564  15.013 -0.8044  0.1508  0.3324
 9924TIP3    H251264   0.459   3.627  15.095 -0.0821  0.0911 -0.5801
 9925TIP3   OH251265   1.905   4.107   1.374 -0.1905 -0.4055 -0.0415
 9925TIP3    H151266   1.940   4.032   1.325 -2.0204 -1.1996 -0.2328
 9925TIP3    H251267   1.982   4.150   1.411  0.8673 -4.2012  2.7444
 9926TIP3   OH251268   5.861   1.946   4.538  0.2275  0.0245 -0.0552
 9926TIP3    H151269   5.903   2.017   4.490  0.2859 -0.9126 -1.4281
 9926TIP3    H251270   5.929   1.879   4.547 -0.0697 -0.2163  0.4929
 9927TIP3   OH251271   1.119   0.250   4.995 -0.3095 -0.7735  0.0118
 9927TIP3    H151272   1.200   0.238   4.945 -0.0575 -1.6010  0.6008
 9927TIP3    H251273   1.066   0.174   4.973 -1.2253  0.0982 -0.8894
 9928TIP3   OH251274   0.229   1.394  12.491 -0.3413 -0.2486  0.1720
 9928TIP3    H151275   0.317   1.427  12.472 -0.3049 -1.8525 -2.9677
 9928TIP3    H251276   0.173   1.472  12.487  0.7578  0.6610  1.4354
 9929TIP3   OH251277   1.272   6.091   2.811 -0.0906 -0.2236 -0.4226
 9929TIP3    H151278   1.275   6.163   2.749 -0.7638  0.5158  0.3611
 9929TIP3    H251279   1.217   6.124   2.882  0.6598 -1.0339  0.5642
 9930TIP3   OH251280   4.332   1.373  15.734  0.1891  0.3050 -0.2583
 9930TIP3    H151281   4.272   1.301  15.717 -0.2188  0.2120  1.3476
 9930TIP3    H251282   4.314   1.437  15.665 -1.2392 -0.0436 -0.2384
 9931TIP3   OH251283   2.670   6.157   3.599 -0.5941 -0.5139  0.1646
 9931TIP3    H151284   2.657   6.217   3.526  1.9006 -0.4544 -0.3331
 9931TIP3    H251285   2.586   6.154   3.644 -1.0114  2.7926 -0.1999
 9932TIP3   OH251286   0.736   2.261  16.024 -0.2340 -0.0529  0.5706
 9932TIP3    H151287   0.781   2.264  16.108 -1.5149 -0.3892  1.2934
 9932TIP3    H251288   0.687   2.179  16.026 -0.1383 -0.1609 -0.5901
 9933TIP3   OH251289   1.249   6.718   4.011 -0.2518 -0.3769  0.1771
 9933TIP3    H151290   1.245   6.735   3.917  1.0940 -0.6211  0.0542
 9933TIP3    H251291   1.159   6.729   4.041 -0.5180  0.8036 -0.9433
 9934TIP3   OH251292   0.198   0.250   5.431  0.1488 -0.7187 -0.3608
 9934TIP3    H151293   0.175   0.161   5.405 -0.1445 -1.1963  1.3800
 9934TIP3    H251294   0.138   0.306   5.381 -0.3121 -1.5585 -0.7638
 9935TIP3   OH251295   4.975   6.158  13.417 -0.4066  0.1995  0.4728
 9935TIP3    H151296   5.053   6.180  13.365 -0.6958  0.6621  0.2311
 9935TIP3    H251297   4.912   6.125  13.353 -0.0717 -1.1414  0.7935
 9936TIP3   OH251298   5.814   2.133   4.925  0.3462  0.4087  0.0033
 9936TIP3    H151299   5.806   2.218   4.969  0.0235  0.7070 -0.6061
 9936TIP3    H251300   5.907   2.113   4.929  0.2562  0.1991  1.2269
 9937TIP3   OH251301   4.746   1.461  15.274  0.2033  0.6555 -0.3839
 9937TIP3    H151302   4.778   1.434  15.360  1.5172  0.9678 -0.7504
 9937TIP3    H251303   4.688   1.390  15.246  2.0143 -0.8718 -0.4701
 9938TIP3   OH251304   0.644   3.156  15.357  0.2796  0.0063 -0.5820
 9938TIP3    H151305   0.664   3.090  15.291 -1.3612 -1.3683  0.2294
 9938TIP3    H251306   0.615   3.106  15.434 -0.9023  1.6404  0.0977
 9939TIP3   OH251307   1.218   0.815   2.822  0.5763 -0.6565  0.0167
 9939TIP3    H151308   1.281   0.838   2.891  1.0626 -0.9272 -0.3244
 9939TIP3    H251309   1.194   0.899   2.783  0.7859 -0.5545  0.1016
 9940TIP3   OH251310   4.683   3.993  12.569  0.0480 -0.0673  0.2250
 9940TIP3    H151311   4.656   3.961  12.656 -0.2328 -3.2505 -0.8998
 9940TIP3    H251312   4.602   3.994  12.518  0.6838 -1.7186 -0.9134
 9941TIP3   OH251313   1.810   1.939   3.609 -0.0893  0.4522  0.0993
 9941TIP3    H151314   1.820   1.877   3.536  2.0667  1.3315 -0.4392
 9941TIP3    H251315   1.735   1.905   3.659  0.0373 -1.6902 -1.0153
 9942TIP3   OH251316   4.181   3.980   1.164  0.0007 -0.0513  0.3068
 9942TIP3    H151317   4.154   3.894   1.131  0.3409 -0.3979  0.9023
 9942TIP3    H251318   4.109   4.038   1.141  0.0881 -0.3380 -0.7528
 9943TIP3   OH251319   5.326   1.023  13.687 -0.2787  0.3522  0.1192
 9943TIP3    H151320   5.299   0.974  13.765  2.6541  0.3495  1.2555
 9943TIP3    H251321   5.313   1.115  13.711 -1.6989  0.2961 -0.3670
 9944TIP3   OH251322   1.028   4.378   0.624 -0.1042  0.1538  0.0275
 9944TIP3    H151323   1.100   4.328   0.586  0.5673  1.1047  0.0327
 9944TIP3    H251324   0.956   4.367   0.562  0.4925  0.3869 -0.7183
 9945TIP3   OH251325   3.690   0.958  15.520  0.2717 -0.6412 -0.2013
 9945TIP3    H151326   3.712   0.979  15.610  0.4718 -0.4451 -0.2954
 9945TIP3    H251327   3.722   0.869  15.506  3.0641  0.3721 -1.0075
 9946TIP3   OH251328   0.372   2.149   6.028  0.5407 -0.0226 -0.2098
 9946TIP3    H151329   0.295   2.184   6.073 -0.2058 -1.6277 -0.1683
 9946TIP3    H251330   0.337   2.109   5.948  1.6234  1.1502 -1.3053
 9947TIP3   OH251331   3.786   6.206  12.438 -0.2271 -0.0169 -0.5446
 9947TIP3    H151332   3.787   6.111  12.452  0.8206  0.1846  1.1163
 9947TIP3    H251333   3.755   6.241  12.522 -0.6966  1.1089 -1.1770
 9948TIP3   OH251334   2.275   1.471   0.839  0.2508 -0.1197 -0.1993
 9948TIP3    H151335   2.311   1.428   0.917  0.8397  2.0272  0.7886
 9948TIP3    H251336   2.195   1.512   0.870 -0.0688 -0.1264 -1.0041
 9949TIP3   OH251337   3.342   5.439  12.459  0.3386 -0.1354 -0.4624
 9949TIP3    H151338   3.280   5.423  12.388 -0.9149  0.5295  0.4402
 9949TIP3    H251339   3.287   5.459  12.535  1.6625  0.1835  0.4509
 9950TIP3   OH251340   2.570   1.463  14.503 -0.3587  0.0683 -0.1484
 9950TIP3    H151341   2.663   1.467  14.482 -0.5780  1.5497 -0.9577
 9950TIP3    H251342   2.565   1.488  14.595  0.2272 -2.4654  0.6602
 9951TIP3   OH251343   5.759   3.099   6.110 -0.1703  0.5452  0.6071
 9951TIP3    H151344   5.687   3.072   6.054  0.4805 -0.7103  0.3415
 9951TIP3    H251345   5.718   3.137   6.187 -1.1092 -0.0978  0.4319
 9952TIP3   OH251346   1.460   6.772   0.710  0.6670  0.6672  0.3014
 9952TIP3    H151347   1.538   6.741   0.663 -1.1072 -1.4792 -1.4507
 9952TIP3    H251348   1.428   6.845   0.657  0.6871  0.6303  0.2385
 9953TIP3   OH251349   2.651   4.981  11.476 -0.0521 -0.1955 -0.3093
 9953TIP3    H151350   2.606   4.919  11.534 -1.0270 -0.2951 -1.1198
 9953TIP3    H251351   2.612   4.964  11.390  1.4908 -0.2004 -1.0359
 9954TIP3   OH251352   4.492   4.468  11.765  0.2667  0.2271 -0.4418
 9954TIP3    H151353   4.434   4.523  11.713  0.5184 -0.0968 -1.0837
 9954TIP3    H251354   4.459   4.379  11.752  0.4940  0.1142 -0.2604
 9955TIP3   OH251355   2.926   3.984   1.801  0.3276  0.5596  0.0229
 9955TIP3    H151356   2.940   4.055   1.863  0.2892  0.7132 -0.1465
 9955TIP3    H251357   3.014   3.958   1.774  0.2891  2.1608 -1.7723
 9956TIP3   OH251358   3.451   2.121  14.727 -0.7371  0.1560 -0.5623
 9956TIP3    H151359   3.498   2.204  14.732  1.0639 -0.7374 -1.8244
 9956TIP3    H251360   3.456   2.096  14.635  0.2188 -2.1591  0.0604
 9957TIP3   OH251361   1.494   2.144   1.477  0.0465 -0.1938 -0.1400
 9957TIP3    H151362   1.400   2.160   1.485 -0.0520 -0.3370 -0.8808
 9957TIP3    H251363   1.528   2.222   1.434 -0.0180 -0.8441 -1.4110
 9958TIP3   OH251364   0.470   3.587  12.363 -0.2692 -1.2254 -0.4964
 9958TIP3    H151365   0.535   3.546  12.306  2.3679  0.1586  1.3321
 9958TIP3    H251366   0.450   3.520  12.429 -0.6017 -1.6013 -0.9753
 9959TIP3   OH251367   3.577   3.557  16.118 -0.3223  0.5587 -0.2127
 9959TIP3    H151368   3.562   3.647  16.148 -0.7147  1.0021 -1.6491
 9959TIP3    H251369   3.593   3.566  16.024  1.3123 -0.7159 -0.0965
 9960TIP3   OH251370   4.180   5.187  13.394 -0.6345  0.4236 -0.3891
 9960TIP3    H151371   4.244   5.128  13.434 -0.6713 -0.1010 -1.0843
 9960TIP3    H251372   4.198   5.181  13.301  0.7153  3.0961 -0.3742
 9961TIP3   OH251373   4.950   5.530   6.333 -0.5828  0.2024  0.4296
 9961TIP3    H151374   4.933   5.475   6.409  2.2362 -2.5856 -0.7158
 9961TIP3    H251375   4.901   5.490   6.262  0.2095  0.1006 -0.0790
 9962TIP3   OH251376   2.426   4.694  14.073 -0.1448 -0.1744  0.0092
 9962TIP3    H151377   2.462   4.724  14.157  1.8352  2.8644 -1.7207
 9962TIP3    H251378   2.334   4.719  14.075  0.0338  0.4446  1.0490
 9963TIP3   OH251379   4.552   6.045  11.265 -0.1629 -0.1593 -0.2070
 9963TIP3    H151380   4.577   6.131  11.233  0.0275 -0.5182 -1.0338
 9963TIP3    H251381   4.481   6.017  11.208  1.2631 -1.5046 -1.4161
 9964TIP3   OH251382   1.712   4.494   5.030 -0.0217  0.4775  0.4605
 9964TIP3    H151383   1.700   4.519   4.938 -0.5634 -1.7335 -0.1219
 9964TIP3    H251384   1.627   4.511   5.071  0.0800  1.0253  0.4492
 9965TIP3   OH251385   5.206   2.483   2.028  0.0989 -0.0300 -0.0010
 9965TIP3    H151386   5.202   2.458   1.936  1.5604 -1.1651  0.2119
 9965TIP3    H251387   5.118   2.464   2.062 -0.5451  0.6772 -1.1992
 9966TIP3   OH251388   3.819   4.993  15.254  0.1730 -0.7788  0.0433
 9966TIP3    H151389   3.865   5.042  15.323  1.0214 -2.3470  0.6443
 9966TIP3    H251390   3.785   5.061  15.196  0.0291  0.5702  1.6167
 9967TIP3   OH251391   2.057   3.577   5.625  0.8462  0.2000  0.3592
 9967TIP3    H151392   2.132   3.524   5.653  1.0502  0.2575 -0.0671
 9967TIP3    H251393   2.036   3.544   5.538 -0.2852 -0.5106  0.8813
 9968TIP3   OH251394   3.627   2.091  14.213 -0.2388 -0.4562 -0.4031
 9968TIP3    H151395   3.616   2.184  14.231 -2.7023 -0.9034  0.7664
 9968TIP3    H251396   3.609   2.047  14.296  0.6787 -2.0113 -0.9678
 9969TIP3   OH251397   6.619   1.683  11.410  0.3996  0.7298 -0.2300
 9969TIP3    H151398   6.590   1.646  11.494 -0.1829  1.9087  0.1256
 9969TIP3    H251399   6.668   1.613  11.368  4.3354  1.2844  2.8705
 9970TIP3   OH251400   3.146   0.552   4.969 -0.3731  0.3641  0.2107
 9970TIP3    H151401   3.197   0.550   4.888  0.1554  1.0213  0.5175
 9970TIP3    H251402   3.145   0.461   5.000  0.8140  0.3784  0.3226
 9971TIP3   OH251403   6.171   5.858   0.393 -0.4181 -0.0152  0.2879
 9971TIP3    H151404   6.169   5.835   0.486 -1.8411  0.7025  0.4598
 9971TIP3    H251405   6.081   5.844   0.363 -0.0458  0.0810 -0.8981
 9972TIP3   OH251406   0.594   2.542   5.275 -0.6317 -0.0976  0.0288
 9972TIP3    H151407   0.543   2.473   5.232  0.3203  0.1113 -1.5061
 9972TIP3    H251408   0.682   2.532   5.239 -0.2593  1.3247  0.5063
 9973TIP3   OH251409   3.000   5.651   2.447 -0.7069  0.0724  0.0889
 9973TIP3    H151410   2.927   5.711   2.459 -1.2382 -0.5971  0.2983
 9973TIP3    H251411   2.960   5.564   2.453  0.1552 -0.3050  0.5054
 9974TIP3   OH251412   1.219   0.647   3.481  0.7254  0.7106 -0.4968
 9974TIP3    H151413   1.132   0.634   3.518  0.7724 -0.2567 -0.6957
 9974TIP3    H251414   1.231   0.574   3.420  1.0289  1.7374 -1.7139
 9975TIP3   OH251415   6.139   0.728  15.466 -0.0932 -0.3103  0.4455
 9975TIP3    H151416   6.185   0.743  15.383 -2.5378  2.2848 -0.6092
 9975TIP3    H251417   6.064   0.674  15.443 -0.0065 -0.7984  1.2764
 9976TIP3   OH251418   0.833   0.233   0.823  0.6280 -0.1863  1.0602
 9976TIP3    H151419   0.844   0.245   0.729  1.0319 -0.0329  1.1261
 9976TIP3    H251420   0.831   0.139   0.835  1.1615 -0.2123  0.9628
 9977TIP3   OH251421   3.536   6.216  11.905 -0.0369 -0.1902  0.0614
 9977TIP3    H151422   3.604   6.283  11.915  0.6240 -0.7449 -0.6418
 9977TIP3    H251423   3.566   6.143  11.959 -1.0929  0.2978  1.3747
 9978TIP3   OH251424   0.815   3.605  13.966  0.0479 -0.0219  0.0400
 9978TIP3    H151425   0.901   3.647  13.967 -0.5298  1.2017  0.1988
 9978TIP3    H251426   0.800   3.579  14.057 -0.1501  0.6155  0.1910
 9979TIP3   OH251427   4.206   4.000   6.662  0.2405  0.1999 -0.3487
 9979TIP3    H151428   4.214   4.068   6.729  0.1745 -1.7614  1.7659
 9979TIP3    H251429   4.137   4.033   6.603 -0.1678  1.7186  0.9067
 9980TIP3   OH251430   3.102   3.784  11.876 -0.5615 -0.1073  0.9507
 9980TIP3    H151431   3.043   3.808  11.805  0.6994  1.1729  0.2931
 9980TIP3    H251432   3.055   3.807  11.956 -0.7447  1.3877  0.4272
 9981TIP3   OH251433   4.749   2.938   4.377 -0.1485  0.4862  0.0214
 9981TIP3    H151434   4.658   2.913   4.360 -0.1377  0.4158  0.0640
 9981TIP3    H251435   4.793   2.854   4.391 -0.1064  0.5293  0.1409
 9982TIP3   OH251436   0.291   6.724  16.729 -0.2675 -0.5912  0.0070
 9982TIP3    H151437   0.367   6.667  16.723 -0.6920 -1.1990  0.2636
 9982TIP3    H251438   0.287   6.749  16.822 -1.1136 -1.6177  0.2743
 9983TIP3   OH251439   4.111   1.870  16.735 -0.2475 -0.3023  0.0660
 9983TIP3    H151440   4.179   1.807  16.710 -0.6439 -0.3295 -1.0294
 9983TIP3    H251441   4.155   1.955  16.731  0.2161 -0.4667  1.2737
 9984TIP3   OH251442   1.576   3.784   5.117  0.0273 -0.0539 -0.5137
 9984TIP3    H151443   1.485   3.753   5.122 -0.8076  2.0640 -1.1374
 9984TIP3    H251444   1.568   3.876   5.091  2.3179  0.5274  0.5488
 9985TIP3   OH251445   0.989   1.040   3.000 -0.0086 -0.6929 -0.1618
 9985TIP3    H151446   0.951   0.953   2.996  3.0261 -2.1075 -0.8627
 9985TIP3    H251447   1.030   1.053   2.915  1.8519  0.2735  0.8156
 9986TIP3   OH251448   1.438   1.835   3.103  0.0010  0.2403 -0.1999
 9986TIP3    H151449   1.351   1.799   3.082 -0.3112  1.5458 -1.2830
 9986TIP3    H251450   1.499   1.773   3.063 -0.4545 -0.2300 -0.1896
 9987TIP3   OH251451   2.720   5.511  15.557 -0.4082  0.1723 -0.2235
 9987TIP3    H151452   2.686   5.422  15.545 -1.3798  0.5695 -0.5290
 9987TIP3    H251453   2.653   5.554  15.611 -1.1724  1.4103 -2.0682
 9988TIP3   OH251454   1.088   6.187   2.994 -0.3521  0.1559 -0.4054
 9988TIP3    H151455   1.067   6.273   3.031  1.1757  0.0192  0.9136
 9988TIP3    H251456   1.018   6.129   3.025  0.4389  0.2319  1.6385
 9989TIP3   OH251457   0.092   1.340   1.141  0.0407 -0.2263 -0.7052
 9989TIP3    H151458   0.066   1.346   1.049 -0.4936  2.1573 -0.4681
 9989TIP3    H251459   0.021   1.381   1.189  0.8085 -0.4535  0.6760
 9990TIP3   OH251460   1.155   5.028  17.120 -0.3916  0.3439  0.1487
 9990TIP3    H151461   1.104   4.971  17.061 -1.9320  1.5316  0.2522
 9990TIP3    H251462   1.194   4.968  17.183 -0.9809 -0.7081 -0.4418
 9991TIP3   OH251463   3.054   6.629  16.864  0.2840  0.1799  0.2275
 9991TIP3    H151464   3.011   6.700  16.912  1.0508  1.7577 -1.2904
 9991TIP3    H251465   3.061   6.662  16.774  1.0999 -1.6451 -0.4216
 9992TIP3   OH251466   0.829   5.035   6.678  0.5776  0.5669 -0.2695
 9992TIP3    H151467   0.799   5.111   6.628 -1.6551  0.3410  0.5814
 9992TIP3    H251468   0.785   5.044   6.763  0.0604 -1.7581 -0.2247
 9993TIP3   OH251469   1.371   6.105   4.097  0.0539 -0.2209 -0.4002
 9993TIP3    H151470   1.444   6.159   4.128 -0.7089  2.3392 -2.6188
 9993TIP3    H251471   1.412   6.024   4.069  1.4714 -0.3730  1.8351
 9994TIP3   OH251472   1.780   6.332  12.923  0.2933  0.5151  0.2304
 9994TIP3    H151473   1.709   6.358  12.983 -0.9999  2.7042 -2.0740
 9994TIP3    H251474   1.742   6.262  12.871 -0.1792  1.5530 -0.8696
 9995TIP3   OH251475   4.078   6.067  12.375  0.3720 -0.0577 -0.4514
 9995TIP3    H151476   4.167   6.041  12.397  0.5791  0.5350 -0.6022
 9995TIP3    H251477   4.029   5.984  12.376  0.0053 -0.0255  3.7402
 9996TIP3   OH251478   2.701   6.350   2.782  0.3712 -0.4009 -0.1134
 9996TIP3    H151479   2.781   6.358   2.834 -0.2542 -1.6558  1.1024
 9996TIP3    H251480   2.717   6.277   2.723  0.7362  0.4451 -1.0996
 9997TIP3   OH251481   5.133   3.440   1.273 -0.0524  0.2150  0.1000
 9997TIP3    H151482   5.099   3.504   1.335  0.3755  0.1205  0.4323
 9997TIP3    H251483   5.178   3.375   1.327 -1.7238 -1.1652 -0.0912
 9998TIP3   OH251484   1.353   0.727   1.373  0.1511 -0.4691  0.1089
 9998TIP3    H151485   1.263   0.705   1.396  0.2203 -0.5659  0.2845
 9998TIP3    H251486   1.403   0.714   1.454  0.2858 -0.2080  0.0711
 9999TIP3   OH251487   3.694   4.352  13.432 -0.4541 -0.1419 -0.6764
 9999TIP3    H151488   3.767   4.346  13.494 -1.4295 -0.8872  0.4551
 9999TIP3    H251489   3.642   4.426  13.464 -1.3325 -0.9610 -0.1614
10000TIP3   OH251490   2.766   3.664   2.224  0.1861 -0.1620  0.2594
10000TIP3    H151491   2.729   3.649   2.311  0.8854  1.1782  0.8163
10000TIP3    H251492   2.707   3.729   2.184  0.6274  0.2544  0.2734
10001TIP3   OH251493   1.416   4.652   1.242 -0.3396  0.0051  0.4121
10001TIP3    H151494   1.410   4.596   1.165 -2.4357 -2.7800  2.4189
10001TIP3    H251495   1.458   4.598   1.308 -2.2847  0.7738  2.4005
10002TIP3   OH251496   0.992   2.578   4.422 -0.3969 -0.1982  0.5321
10002TIP3    H151497   1.084   2.560   4.440 -0.8750 -3.2714  0.4893
10002TIP3    H251498   0.993   2.638   4.347  1.5665 -0.8525 -0.0182
10003TIP3   OH251499   2.583   6.693  12.153  0.1270 -0.1672  0.2230
10003TIP3    H151500   2.674   6.684  12.123  0.1003  0.3388 -0.0189
10003TIP3    H251501   2.591   6.733  12.239  0.1021  0.6549 -0.1500
10004TIP3   OH251502   3.353   6.565   1.745 -0.0496  0.2020  0.2531
10004TIP3    H151503   3.347   6.511   1.666  3.1301 -0.7801  0.5355
10004TIP3    H251504   3.345   6.655   1.712 -0.6886 -0.2379 -0.8841
10005TIP3   OH251505   6.126   4.843   0.193 -0.0860  0.0114 -0.3426
10005TIP3    H151506   6.157   4.890   0.115  2.1694 -0.0034  0.4638
10005TIP3    H251507   6.183   4.874   0.263 -1.1707 -0.9999  1.0384
10006TIP3   OH251508   3.606   0.404   4.936  0.1363 -0.0139  0.3384
10006TIP3    H151509   3.608   0.378   5.028  1.0774 -0.2098  0.2723
10006TIP3    H251510   3.594   0.499   4.938  2.0410  0.2513  0.7312
10007TIP3   OH251511   5.881   3.206  14.773 -0.1478 -0.3760 -0.5497
10007TIP3    H151512   5.825   3.177  14.701  0.6866 -1.0077 -0.9521
10007TIP3    H251513   5.897   3.127  14.825 -2.6148  0.4256  1.7104
10008TIP3   OH251514   2.001   2.600   3.844  0.1098 -0.0706  0.6609
10008TIP3    H151515   2.095   2.596   3.829  0.3890  0.2663  2.1519
10008TIP3    H251516   1.964   2.535   3.784  0.9406  1.9410 -2.2114
10009TIP3   OH251517   3.825   6.406  13.336  0.0874  0.1342 -0.3129
10009TIP3    H151518   3.863   6.437  13.254  0.1811 -0.6364 -0.5594
10009TIP3    H251519   3.894   6.354  13.377  0.1063  0.6608  0.3491
10010TIP3   OH251520   4.708   3.114   2.377  0.1438  0.1447 -0.2066
10010TIP3    H151521   4.782   3.117   2.315 -0.3588  0.7214 -0.7979
10010TIP3    H251522   4.631   3.122   2.321 -0.2993  1.3209  0.5445
10011TIP3   OH251523   4.840   1.950   4.532  0.1602  0.4272 -0.2058
10011TIP3    H151524   4.887   1.917   4.456  0.0021 -0.3877  0.0475
10011TIP3    H251525   4.747   1.945   4.508  0.1189  0.3707 -0.0382
10012TIP3   OH251526   5.422   6.522  17.344  0.1636  0.0088 -0.4018
10012TIP3    H151527   5.382   6.608  17.352  1.1819  0.4188  0.4998
10012TIP3    H251528   5.487   6.519  17.414  0.3479 -1.3821 -0.6048
10013TIP3   OH251529   3.489   0.005  10.804  0.2341 -0.2097 -0.1595
10013TIP3    H151530   3.412   0.034  10.854 -0.3623 -0.0174 -1.1730
10013TIP3    H251531   3.454  -0.050  10.735  1.2464 -2.3939  0.9534
10014TIP3   OH251532   6.449   1.767   5.682 -0.5831 -0.4141  0.0314
10014TIP3    H151533   6.544   1.778   5.687 -0.6415  0.3009 -0.2038
10014TIP3    H251534   6.414   1.849   5.718 -1.0669  0.8815 -3.0130
10015TIP3   OH251535   5.758   3.091   2.263  0.0542 -0.5777  0.0923
10015TIP3    H151536   5.780   3.154   2.331 -2.2599  0.9219 -0.4412
10015TIP3    H251537   5.823   3.021   2.273  1.4744  0.9125  2.0009
10016TIP3   OH251538   2.831   0.107  11.344  0.3737 -0.5259 -0.8099
10016TIP3    H151539   2.779   0.122  11.265  1.7149 -3.7952 -2.5182
10016TIP3    H251540   2.918   0.085  11.311  1.2784 -0.8878  1.6442
10017TIP3   OH251541   5.661   5.364   3.527  0.1483 -0.5013 -0.3151
10017TIP3    H151542   5.580   5.313   3.534 -0.4514  0.6372  1.7329
10017TIP3    H251543   5.685   5.384   3.617  1.3661  1.2649 -0.9771
10018TIP3   OH251544   2.310   2.627   0.162 -0.3191 -0.4292  0.1024
10018TIP3    H151545   2.387   2.648   0.109  1.3026 -0.0102  2.4603
10018TIP3    H251546   2.327   2.539   0.196 -1.5283 -0.8591 -0.3399
10019TIP3   OH251547   0.578   2.077   4.088  0.2905  0.0837 -0.4137
10019TIP3    H151548   0.646   2.116   4.143 -0.7100  0.2721  0.7381
10019TIP3    H251549   0.598   1.983   4.087  0.0754  0.0137  0.6648
10020TIP3   OH251550   3.577   3.316  14.583  0.2453 -0.0092  0.2947
10020TIP3    H151551   3.628   3.245  14.544  1.2000  0.6253  0.3674
10020TIP3    H251552   3.592   3.390  14.525  1.3951  0.8597  1.6353
10021TIP3   OH251553   4.258   5.727  14.859 -0.5321  0.1760  0.2028
10021TIP3    H151554   4.213   5.810  14.871  1.9240  1.6969 -0.3507
10021TIP3    H251555   4.310   5.715  14.939 -0.2924 -0.4351 -0.0315
10022TIP3   OH251556   4.043   6.136   2.852 -0.1208  0.4617 -0.2672
10022TIP3    H151557   4.025   6.103   2.940 -1.0095  0.7956 -0.3075
10022TIP3    H251558   4.113   6.199   2.864  0.2248  0.0159  0.1007
10023TIP3   OH251559   6.042   3.427  14.703 -1.1367  0.5091  0.2701
10023TIP3    H151560   5.987   3.356  14.738 -1.6484 -0.2643 -1.9502
10023TIP3    H251561   6.057   3.403  14.611 -0.5754  2.8452 -0.3149
10024TIP3   OH251562   5.869   6.678   0.971  0.0453  0.2150 -0.1706
10024TIP3    H151563   5.828   6.690   0.886 -0.3998 -1.1367 -0.1746
10024TIP3    H251564   5.923   6.756   0.984 -1.0587  1.1412 -1.0083
10025TIP3   OH251565   6.616   4.939  14.734  0.2212  0.6573  0.1101
10025TIP3    H151566   6.662   5.004  14.681  2.1836 -1.5772 -1.0848
10025TIP3    H251567   6.524   4.951  14.712  0.6836  1.9805 -1.2714
10026TIP3   OH251568   2.121   3.870  12.386  0.1649  0.0593 -0.4425
10026TIP3    H151569   2.202   3.908  12.350 -0.0208 -1.2300 -2.4004
10026TIP3    H251570   2.067   3.853  12.309 -2.0160  0.8578  0.8130
10027TIP3   OH251571   2.827   2.845  13.914 -0.4925  0.7945 -0.1704
10027TIP3    H151572   2.922   2.829  13.918 -0.8640 -1.5688  0.7517
10027TIP3    H251573   2.795   2.782  13.849 -1.5958  0.4691  0.6614
10028TIP3   OH251574   0.090   1.882  16.273 -1.0806 -0.0844  0.1007
10028TIP3    H151575   0.163   1.933  16.308  1.0200 -1.8223 -1.3910
10028TIP3    H251576   0.127   1.795  16.259 -3.2249 -0.8332 -1.5138
10029TIP3   OH251577   3.035   4.851  15.755 -0.2441  0.2702  0.1205
10029TIP3    H151578   3.000   4.842  15.843  1.2320  1.1687  0.8393
10029TIP3    H251579   3.020   4.766  15.714 -1.2214 -0.0622  1.1214
10030TIP3   OH251580   6.611   5.449   6.648  0.4512 -0.3750 -0.2213
10030TIP3    H151581   6.578   5.359   6.639 -0.1860 -0.2071  0.3372
10030TIP3    H251582   6.556   5.488   6.715  0.4501  0.5713 -0.7528
10031TIP3   OH251583   4.186   6.239  16.437 -0.3841 -0.2053  0.2514
10031TIP3    H151584   4.166   6.202  16.351  0.4651  0.8837 -0.4410
10031TIP3    H251585   4.119   6.305  16.451  0.7839  1.2263 -0.6432
10032TIP3   OH251586   6.627   6.421  13.450 -0.2826  0.1792 -0.0963
10032TIP3    H151587   6.658   6.331  13.458 -1.1862 -0.1161  0.2633
10032TIP3    H251588   6.539   6.412  13.412 -1.5289  0.6729  2.4354
10033TIP3   OH251589   2.406   0.803   3.816  0.1527 -0.0496  0.6207
10033TIP3    H151590   2.474   0.745   3.852  1.6845  0.9244 -0.5795
10033TIP3    H251591   2.440   0.891   3.831 -0.5758  0.4460 -0.5250
10034TIP3   OH251592   5.723   6.374  13.478  0.7886  0.6242 -0.1858
10034TIP3    H151593   5.730   6.299  13.418  3.0524  0.2538  0.4591
10034TIP3    H251594   5.709   6.449  13.420  2.0772  0.1625 -1.1560
10035TIP3   OH251595   0.380   3.078  12.800  0.3869  0.0924  0.3018
10035TIP3    H151596   0.329   3.072  12.881  0.4315 -0.8921  0.2701
10035TIP3    H251597   0.471   3.067  12.827  0.2941 -1.7052 -0.0230
10036TIP3   OH251598   0.487   6.769  17.170  0.1728  0.0433 -0.1993
10036TIP3    H151599   0.493   6.826  17.247 -1.8407  1.8133 -1.2343
10036TIP3    H251600   0.570   6.722  17.169  0.2680 -0.1163  3.0569
10037TIP3   OH251601   2.705   0.675  16.635  0.0751 -0.6127 -0.1142
10037TIP3    H151602   2.661   0.592  16.622 -0.8865 -0.2488  0.7230
10037TIP3    H251603   2.715   0.711  16.547  1.4298 -2.0453 -0.6049
10038TIP3   OH251604   1.515   3.630  13.334 -0.4589 -0.5028 -0.2748
10038TIP3    H151605   1.582   3.597  13.393 -0.3179 -3.4430 -1.8743
10038TIP3    H251606   1.451   3.558  13.327 -0.6975 -0.1446 -3.2479
10039TIP3   OH251607   6.738   3.139  16.932  0.3891  0.0696 -0.1937
10039TIP3    H151608   6.659   3.134  16.879  0.9084 -0.3102 -0.9482
10039TIP3    H251609   6.768   3.049  16.940  1.2747  0.3059 -0.7417
10040TIP3   OH251610   3.940   3.478  15.601 -0.3887 -0.4305 -0.0978
10040TIP3    H151611   3.913   3.393  15.634 -2.9835 -0.3451 -1.7379
10040TIP3    H251612   3.904   3.483  15.513  0.1583  2.1414 -0.2660
10041TIP3   OH251613   4.459   4.370  12.409  0.0119  0.1835  0.1204
10041TIP3    H151614   4.468   4.376  12.504 -1.1965  0.0393  0.2618
10041TIP3    H251615   4.518   4.298  12.385  0.9597  0.7670  0.6429
10042TIP3   OH251616   1.433   4.218   0.342 -0.2549  0.9031  0.1336
10042TIP3    H151617   1.423   4.255   0.254 -0.1983 -0.6895 -0.5863
10042TIP3    H251618   1.528   4.215   0.356 -0.1629 -0.5374 -0.5631
10043TIP3   OH251619   2.876   3.754   4.292 -0.0348 -0.2142  0.4050
10043TIP3    H151620   2.922   3.676   4.322 -1.9229 -0.7727  2.0589
10043TIP3    H251621   2.783   3.733   4.302 -0.6729  1.3453 -1.5167
10044TIP3   OH251622   2.822   3.272   6.320  0.2733 -0.3202  0.5139
10044TIP3    H151623   2.777   3.356   6.326  0.1276 -0.1866 -1.6214
10044TIP3    H251624   2.908   3.288   6.358  0.2117  0.7821  0.2161
10045TIP3   OH251625   6.679   1.498   1.279 -0.6603  0.3629  0.4944
10045TIP3    H151626   6.584   1.488   1.285 -0.6169 -0.5400 -0.0914
10045TIP3    H251627   6.707   1.519   1.368 -1.2694 -0.7205  0.9552
10046TIP3   OH251628   2.614   2.995  13.903  0.1697 -0.8089 -0.1457
10046TIP3    H151629   2.555   2.944  13.958 -0.9789  1.5960  0.9921
10046TIP3    H251630   2.701   2.964  13.927 -0.1442  0.8864  4.0721
10047TIP3   OH251631   1.552   5.260   4.108 -0.1843 -0.3343  0.3976
10047TIP3    H151632   1.638   5.303   4.113  0.7479 -2.0343 -0.1509
10047TIP3    H251633   1.555   5.194   4.178 -2.7536  2.2930  3.3280
10048TIP3   OH251634   6.750   1.000   2.456 -0.3313  0.1939  1.0595
10048TIP3    H151635   6.719   1.016   2.546 -1.3156 -3.3976  1.5358
10048TIP3    H251636   6.675   0.958   2.413  1.2566 -1.3924 -0.3040
10049TIP3   OH251637   1.368   2.668   4.345 -0.7227 -0.2452 -0.6613
10049TIP3    H151638   1.302   2.732   4.373  0.0735 -0.6318  2.5222
10049TIP3    H251639   1.450   2.717   4.344 -0.6779 -0.3239 -2.1994
10050TIP3   OH251640   1.190   4.039   6.236  0.1180 -0.2736  0.0998
10050TIP3    H151641   1.214   3.994   6.317  0.1611  0.5933  0.5703
10050TIP3    H251642   1.234   4.123   6.241 -0.3233  0.0002 -0.5763
10051TIP3   OH251643   3.061   2.452   0.456  0.0938 -0.6624 -0.1669
10051TIP3    H151644   3.042   2.529   0.402 -0.7213 -0.4638  0.3842
10051TIP3    H251645   2.985   2.444   0.513  0.9681 -0.8251  1.0065
10052TIP3   OH251646   1.507   5.667   2.015 -0.2780  0.1785 -0.4413
10052TIP3    H151647   1.439   5.651   2.080  1.6102  0.1060  1.6338
10052TIP3    H251648   1.587   5.680   2.066  0.8581  2.7778 -2.6244
10053TIP3   OH251649   1.225   5.196   5.168 -0.1682 -0.4169  0.3185
10053TIP3    H151650   1.271   5.215   5.086  0.8591 -1.3436  0.6589
10053TIP3    H251651   1.192   5.107   5.156  0.1667 -0.6367  0.9752
10054TIP3   OH251652   4.629   1.558   1.271  0.6064  0.3585 -0.2004
10054TIP3    H151653   4.537   1.575   1.250 -0.0123  0.2066  2.1751
10054TIP3    H251654   4.669   1.539   1.186 -1.9233 -1.2813 -1.1502
10055TIP3   OH251655   3.146   3.067  11.451  0.1830 -0.5506 -0.1319
10055TIP3    H151656   3.158   3.127  11.377 -0.9744 -1.2461 -0.9152
10055TIP3    H251657   3.233   3.033  11.468  0.6724  0.5153 -0.3934
10056TIP3   OH251658   6.524   3.514   6.663  0.1611  0.4071  0.2693
10056TIP3    H151659   6.539   3.457   6.738 -0.6378 -2.3349 -1.5082
10056TIP3    H251660   6.490   3.596   6.701 -3.0955 -1.8436  2.8303
10057TIP3   OH251661   1.043   6.566  12.955 -0.2552 -0.1628  0.3742
10057TIP3    H151662   1.056   6.539  12.864  0.3984  1.9614 -0.2351
10057TIP3    H251663   1.038   6.485  13.005 -2.8284 -1.4725 -1.7959
10058TIP3   OH251664   3.695   4.708  11.059 -0.5185 -0.2325  0.3954
10058TIP3    H151665   3.760   4.700  10.990  1.0159  2.2951  1.4185
10058TIP3    H251666   3.625   4.761  11.020  0.6294  1.7230  0.8614
10059TIP3   OH251667   0.192   3.103  15.318  0.7162  0.1803 -0.7663
10059TIP3    H151668   0.171   3.010  15.318  1.0666  0.0971 -1.3597
10059TIP3    H251669   0.148   3.138  15.396  0.0152 -0.3514 -0.9136
10060TIP3   OH251670   1.489   1.504  13.656 -0.0012 -0.1020 -0.4329
10060TIP3    H151671   1.419   1.515  13.720 -1.5422 -2.2697 -1.6107
10060TIP3    H251672   1.531   1.421  13.681 -0.2850 -0.7024 -1.8799
10061TIP3   OH251673   5.331   4.554   5.822 -0.2942  0.6608  0.3827
10061TIP3    H151674   5.300   4.476   5.776 -1.7270  0.5737  1.4367
10061TIP3    H251675   5.421   4.566   5.791 -0.1245 -1.2670  0.0183
10062TIP3   OH251676   1.586   3.490  12.520 -0.2809 -0.0931  0.1804
10062TIP3    H151677   1.663   3.489  12.577 -0.8713 -1.5667  1.0093
10062TIP3    H251678   1.573   3.398  12.496 -1.4713  0.2019 -0.3720
10063TIP3   OH251679   6.631   1.853   0.219 -0.4785 -0.6632 -0.2550
10063TIP3    H151680   6.572   1.832   0.291 -1.2034  2.5426  0.2705
10063TIP3    H251681   6.710   1.886   0.261 -1.6540  3.2015 -0.6649
10064TIP3   OH251682   0.896   3.935   6.235  0.1554 -0.1645  0.0892
10064TIP3    H151683   0.989   3.930   6.214  0.0553  0.1382 -0.4378
10064TIP3    H251684   0.893   3.936   6.331  0.8570  2.6621  0.1515
10065TIP3   OH251685   4.736   2.512  15.307  0.2049  0.3828 -0.4370
10065TIP3    H151686   4.742   2.575  15.379  0.1748 -0.1796  0.0686
10065TIP3    H251687   4.735   2.565  15.228  1.4540  0.9827 -0.0815
10066TIP3   OH251688   3.437   3.686  14.749 -0.1757  0.7664 -0.2060
10066TIP3    H151689   3.519   3.734  14.761 -0.0220  0.4220  0.1414
10066TIP3    H251690   3.408   3.710  14.661  1.3544 -0.6647 -1.1813
10067TIP3   OH251691   6.220   0.638  17.334  0.3692  0.2754  0.2349
10067TIP3    H151692   6.251   0.548  17.333 -0.3313 -0.0562 -3.4211
10067TIP3    H251693   6.126   0.631  17.314  0.1674  1.7860  0.5445
10068TIP3   OH251694   2.557   4.246  13.249 -0.1176 -0.5622 -0.5210
10068TIP3    H151695   2.580   4.161  13.287 -0.7430 -1.5133 -2.1605
10068TIP3    H251696   2.608   4.250  13.168  0.4986  0.9978 -0.0799
10069TIP3   OH251697   3.943   5.246   5.081  0.2394 -0.5261 -0.5482
10069TIP3    H151698   3.946   5.293   5.165 -2.1639  0.4113 -0.9054
10069TIP3    H251699   3.900   5.163   5.103 -3.5161  1.0366 -1.2481
10070TIP3   OH251700   5.704   0.380   0.826  0.5716 -0.3753  0.0146
10070TIP3    H151701   5.644   0.454   0.819  0.5906 -0.2826  0.7503
10070TIP3    H251702   5.713   0.365   0.920 -0.9931 -2.5781 -0.1115
10071TIP3   OH251703   0.241   0.329   2.397  0.1201 -0.7474  0.4644
10071TIP3    H151704   0.153   0.328   2.434  0.1859 -3.0801  0.7098
10071TIP3    H251705   0.240   0.399   2.332 -2.3803 -1.6874 -0.5966
10072TIP3   OH251706   5.426   4.842  14.844 -0.4935  0.5536 -0.4093
10072TIP3    H151707   5.469   4.898  14.779  0.0529  0.2739 -0.2975
10072TIP3    H251708   5.354   4.801  14.796  1.1499 -1.2918 -1.4783
10073TIP3   OH251709   2.127   3.968   5.553  0.1955 -0.3425 -0.2821
10073TIP3    H151710   2.086   3.897   5.603 -1.4580  0.7566  0.0098
10073TIP3    H251711   2.139   4.039   5.616 -1.3849  0.8622 -1.2424
10074TIP3   OH251712   3.072   3.931   2.304 -0.5211  0.7170 -0.0024
10074TIP3    H151713   2.993   3.952   2.255 -0.3149  1.4175 -0.0453
10074TIP3    H251714   3.131   3.891   2.240  0.1330  2.5301 -0.6050
10075TIP3   OH251715   4.539   0.692   3.349 -0.2261  0.2084  0.3031
10075TIP3    H151716   4.503   0.622   3.405  0.3482 -0.4130 -0.0864
10075TIP3    H251717   4.631   0.698   3.375  0.0390 -0.0640 -0.5386
10076TIP3   OH251718   5.283   2.696   2.609  0.0752 -0.5271 -1.0652
10076TIP3    H151719   5.354   2.734   2.556 -0.3528  0.4935 -0.9402
10076TIP3    H251720   5.204   2.742   2.579 -0.1322  0.3219  0.6727
10077TIP3   OH251721   2.499   5.961  17.295  0.7466 -0.0704  0.1117
10077TIP3    H151722   2.410   5.996  17.302  1.4848  1.6410  1.7109
10077TIP3    H251723   2.492   5.873  17.330 -0.3694 -0.0911 -0.1022
10078TIP3   OH251724   1.776   2.990   5.211  0.0240 -0.1609  0.2052
10078TIP3    H151725   1.721   2.998   5.289  1.0579  0.6304  0.8869
10078TIP3    H251726   1.722   3.026   5.140  0.9591  4.4968  1.5181
10079TIP3   OH251727   0.312   6.212   2.996 -0.1020  0.1917 -0.1638
10079TIP3    H151728   0.378   6.163   2.948 -2.3415 -0.5051 -2.8473
10079TIP3    H251729   0.260   6.145   3.040 -0.2118  0.5508  0.2538
10080TIP3   OH251730   5.967   0.385  13.460  0.1398 -0.0729 -0.5217
10080TIP3    H151731   5.906   0.313  13.476 -0.5668  0.0465 -2.3823
10080TIP3    H251732   6.042   0.367  13.516 -1.1540 -0.8028  1.0264
10081TIP3   OH251733   5.681   1.681   2.692  0.1018  0.0242 -0.0631
10081TIP3    H151734   5.635   1.704   2.772  0.2446  0.6311 -0.1542
10081TIP3    H251735   5.620   1.626   2.644  0.6342 -1.8080  1.2302
10082TIP3   OH251736   6.298   4.403  12.916  0.1138  0.0957 -0.4996
10082TIP3    H151737   6.257   4.486  12.889  0.5328  0.4484 -0.0747
10082TIP3    H251738   6.334   4.422  13.003 -2.2011 -1.3223  0.8622
10083TIP3   OH251739   4.268   0.145   0.702 -0.5224  0.2713 -0.0284
10083TIP3    H151740   4.302   0.112   0.785 -0.7856 -0.9398 -0.3728
10083TIP3    H251741   4.345   0.175   0.655  0.0735 -1.8558 -0.5477
10084TIP3   OH251742   3.949   1.239   1.549 -0.0593  0.1226  0.1625
10084TIP3    H151743   4.020   1.271   1.494 -1.8695  0.6000 -2.0376
10084TIP3    H251744   3.929   1.312   1.608 -0.5548  1.0630 -1.1312
10085TIP3   OH251745   0.321   2.599   4.489 -0.2548 -0.3583  0.9752
10085TIP3    H151746   0.260   2.542   4.536  0.1398 -0.0415  1.8899
10085TIP3    H251747   0.296   2.591   4.397 -1.3062 -0.6708  1.2821
10086TIP3   OH251748   2.424   3.506   0.523  0.0131 -0.6876  0.3798
10086TIP3    H151749   2.489   3.572   0.496 -1.3268  0.6176  0.1982
10086TIP3    H251750   2.458   3.471   0.605  0.0535  1.3580  1.2911
10087TIP3   OH251751   0.959   0.312  17.018 -0.0791 -0.2054 -0.7522
10087TIP3    H151752   0.932   0.384  16.961  0.2459 -0.9279 -1.8725
10087TIP3    H251753   1.037   0.344  17.062  0.7017 -0.2389 -2.0653
10088TIP3   OH251754   4.781   6.648  13.239 -0.1178 -0.0536  0.0094
10088TIP3    H151755   4.874   6.666  13.251 -0.7787  3.6560  1.0954
10088TIP3    H251756   4.763   6.673  13.148 -0.0225 -0.9909 -0.2702
10089TIP3   OH251757   1.775   1.607  15.055 -0.5191 -0.6664 -0.3983
10089TIP3    H151758   1.719   1.662  15.000  0.4801  0.3428 -0.4473
10089TIP3    H251759   1.726   1.526  15.066 -1.4885 -0.2323 -1.3590
10090TIP3   OH251760   0.613   6.667  12.278  0.0842  0.1079 -0.4088
10090TIP3    H151761   0.619   6.608  12.203  0.6494 -1.3063  0.7236
10090TIP3    H251762   0.540   6.633  12.329 -1.5301  2.1564 -1.1804
10091TIP3   OH251763   2.816   2.939   4.464  0.5648  0.0165 -0.3644
10091TIP3    H151764   2.783   2.937   4.374  0.9561 -0.5182 -0.4990
10091TIP3    H251765   2.823   2.847   4.489  1.0673  0.1486 -0.0075
10092TIP3   OH251766   5.985   1.129   4.073  0.4805 -0.2290  0.4783
10092TIP3    H151767   6.026   1.201   4.121 -0.8942  0.5388  0.5605
10092TIP3    H251768   5.994   1.053   4.131  0.5785  0.2422  1.0941
10093TIP3   OH251769   2.399   2.274  15.739 -0.2576  0.2280 -0.3908
10093TIP3    H151770   2.390   2.344  15.804  0.4504  0.8369 -0.9203
10093TIP3    H251771   2.396   2.319  15.655  0.4109 -0.3434 -0.7371
10094TIP3   OH251772   5.910   6.392  12.829  0.0309 -0.1616  0.0249
10094TIP3    H151773   5.999   6.357  12.833 -0.2306 -0.7204  1.5528
10094TIP3    H251774   5.918   6.471  12.776  1.5066 -0.0060  0.4310
10095TIP3   OH251775   3.255   1.429   1.733  0.2404  0.1099 -0.4624
10095TIP3    H151776   3.254   1.516   1.772  0.9598  0.3232 -0.8991
10095TIP3    H251777   3.346   1.400   1.739  0.2550 -0.0921 -1.4357
10096TIP3   OH251778   1.735   2.907   1.322  0.0947 -0.0991 -0.5617
10096TIP3    H151779   1.792   2.972   1.280 -0.2690 -1.1735 -2.8569
10096TIP3    H251780   1.653   2.954   1.337  0.1113  0.2188 -1.4159
10097TIP3   OH251781   6.749   6.310  15.451  1.2116  0.4404  0.4811
10097TIP3    H151782   6.678   6.277  15.506  0.2916  0.6665 -0.5335
10097TIP3    H251783   6.708   6.378  15.398  1.6316 -0.8741 -1.6628
10098TIP3   OH251784   0.756   0.703  17.256 -0.4200  0.1554 -0.9740
10098TIP3    H151785   0.682   0.658  17.215 -2.3074  0.7438  1.5872
10098TIP3    H251786   0.720   0.786  17.287  1.9506  1.5949 -1.7872
10099TIP3   OH251787   3.262   6.003  17.273  0.1768 -0.8922  0.1875
10099TIP3    H151788   3.180   6.001  17.320  0.5716  0.0525  0.9424
10099TIP3    H251789   3.247   6.064  17.201  0.4495 -0.1009  0.7915
10100TIP3   OH251790   1.702   2.520  14.080  0.4009  0.2176 -0.0343
10100TIP3    H151791   1.629   2.504  14.020 -1.3473 -0.1198  2.0640
10100TIP3    H251792   1.744   2.435  14.090  0.0241  0.0413  0.0673
10101TIP3   OH251793   1.892   5.367   5.444  0.0153 -0.1518 -0.0432
10101TIP3    H151794   1.913   5.459   5.428 -1.9070  0.5310  0.9759
10101TIP3    H251795   1.900   5.357   5.539 -0.6504 -0.7875 -0.0445
10102TIP3   OH251796   0.008   1.437   3.631 -0.1877  0.2039 -0.5456
10102TIP3    H151797   0.012   1.384   3.710 -3.9081 -0.1073 -0.3563
10102TIP3    H251798   0.097   1.439   3.598  0.6519 -3.8650  0.9253
10103TIP3   OH251799   0.963   3.222  15.665  0.6598  0.1309  0.0773
10103TIP3    H151800   1.027   3.256  15.728  0.8951  1.5131 -0.8570
10103TIP3    H251801   0.910   3.299  15.641 -0.7414 -0.7959  0.1104
10104TIP3   OH251802   4.406   6.437  11.623  0.2432 -0.2767  0.0244
10104TIP3    H151803   4.446   6.421  11.538  0.0308  0.1024 -0.1528
10104TIP3    H251804   4.352   6.360  11.639  1.4260 -1.0236  0.5023
10105TIP3   OH251805   6.606   4.544   1.372  0.2016 -0.0960 -0.5610
10105TIP3    H151806   6.685   4.501   1.339 -0.2337 -0.6877 -0.8543
10105TIP3    H251807   6.581   4.605   1.303 -0.6108 -1.2103 -1.2943
10106TIP3   OH251808   6.706   1.262   2.676  0.2063  0.0378 -0.1399
10106TIP3    H151809   6.660   1.194   2.725  2.2377  0.0575  2.0026
10106TIP3    H251810   6.787   1.276   2.726  0.7977  2.5881 -1.6436
10107TIP3   OH251811   3.643   1.921   0.886 -0.4687 -0.0046 -0.4624
10107TIP3    H151812   3.559   1.967   0.893  0.7995  2.4383 -0.1249
10107TIP3    H251813   3.698   1.961   0.953  0.9693 -1.5758 -0.6408
10108TIP3   OH251814   0.329   3.718  15.894 -0.3902  0.0779 -0.3383
10108TIP3    H151815   0.399   3.722  15.829  0.0610 -0.4035  0.1050
10108TIP3    H251816   0.373   3.730  15.978 -0.7460 -0.7764 -0.0102
10109TIP3   OH251817   6.278   1.838  16.032 -0.2636 -0.2464 -0.1140
10109TIP3    H151818   6.201   1.872  15.988 -1.5434 -2.4745  0.2939
10109TIP3    H251819   6.330   1.916  16.053 -2.0377  1.2437 -1.0346
10110TIP3   OH251820   3.145   5.711  10.622 -0.1679  0.5238 -0.3471
10110TIP3    H151821   3.118   5.639  10.679 -2.5065  1.2342 -0.4366
10110TIP3    H251822   3.071   5.722  10.562  0.6098  2.2696 -1.0299
10111TIP3   OH251823   0.392   3.519  11.466 -0.1511  0.1204 -0.5323
10111TIP3    H151824   0.373   3.607  11.432 -1.5206  0.1868  0.3102
10111TIP3    H251825   0.421   3.534  11.556  0.2322 -0.2645 -0.5861
10112TIP3   OH251826   4.089   0.816   4.942  0.1938  0.3094 -0.3400
10112TIP3    H151827   4.147   0.844   4.872 -0.6305  1.2226 -0.6755
10112TIP3    H251828   4.122   0.862   5.020 -0.2076  1.0180 -0.5783
10113TIP3   OH251829   3.690   2.568   0.497 -0.0828 -0.1946 -0.0905
10113TIP3    H151830   3.713   2.645   0.548 -0.8280  1.0459 -1.5480
10113TIP3    H251831   3.628   2.600   0.432 -0.9442 -2.1648 -0.3237
10114TIP3   OH251832   4.746   1.635  13.783  0.2655 -0.1646 -0.0040
10114TIP3    H151833   4.749   1.605  13.692 -0.0558  0.6978 -0.3172
10114TIP3    H251834   4.726   1.557  13.834 -0.4119 -0.5042 -0.7646
10115TIP3   OH251835   4.534   3.638  10.556 -0.1349  0.7912  0.5777
10115TIP3    H151836   4.478   3.568  10.589  1.0897 -0.2956  0.4726
10115TIP3    H251837   4.598   3.652  10.627  0.9752  0.2173 -0.2769
10116TIP3   OH251838   1.217   4.825   3.065  0.1929  0.3118  0.3397
10116TIP3    H151839   1.303   4.785   3.076  0.6661  1.1293 -0.3491
10116TIP3    H251840   1.235   4.917   3.048 -0.8466  0.6169  0.8052
10117TIP3   OH251841   1.014   2.147   0.982  0.3982 -0.0794  0.8169
10117TIP3    H151842   1.102   2.131   0.948  0.1055 -0.5098  0.2426
10117TIP3    H251843   0.993   2.236   0.953  0.8781  0.2513  1.4765
10118TIP3   OH251844   6.754   0.073   2.966  0.3665 -0.3604 -0.8599
10118TIP3    H151845   6.687   0.135   2.996  0.5407  0.3408 -1.8566
10118TIP3    H251846   6.759   0.008   3.035  0.5721  1.0480  0.4980
10119TIP3   OH251847   4.351   4.370   0.770 -0.3278  0.1097  0.3540
10119TIP3    H151848   4.325   4.278   0.770  2.4138 -0.7429 -0.4694
10119TIP3    H251849   4.320   4.403   0.685 -0.8802 -0.1575  0.4456
10120TIP3   OH251850   3.479   5.539   2.549 -0.1384 -0.2514 -0.3798
10120TIP3    H151851   3.467   5.479   2.475 -2.0553 -1.0797  0.5253
10120TIP3    H251852   3.403   5.596   2.546  0.9755  1.2870 -0.4005
10121TIP3   OH251853   1.264   0.954  15.825  0.3742 -0.6803 -0.9487
10121TIP3    H151854   1.190   0.893  15.832 -1.6308  1.7026  2.3855
10121TIP3    H251855   1.237   1.016  15.758 -0.6184  0.0032  0.0402
10122TIP3   OH251856   5.995   1.134  15.818 -0.4051  0.4022  0.2420
10122TIP3    H151857   5.942   1.208  15.845  0.0941  0.2235  1.8180
10122TIP3    H251858   6.076   1.173  15.784 -0.0487  0.6137  1.2751
10123TIP3   OH251859   4.068   3.848  17.289 -0.2167 -0.2086 -0.5043
10123TIP3    H151860   4.139   3.809  17.238 -0.4634 -0.7266 -0.4644
10123TIP3    H251861   3.997   3.783  17.285 -0.0792 -0.4782  0.8708
10124TIP3   OH251862   6.063   2.218   4.802  0.1438  0.0300  0.4419
10124TIP3    H151863   6.080   2.302   4.843  1.7061 -0.4828  0.8868
10124TIP3    H251864   6.115   2.219   4.722  1.8710 -1.2897  1.4798
10125TIP3   OH251865   4.308   3.907  13.421 -0.4247  0.5328  0.3474
10125TIP3    H151866   4.394   3.865  13.414 -0.1290  1.1883 -0.0454
10125TIP3    H251867   4.246   3.838  13.398 -0.1234 -0.3912  2.1186
10126TIP3   OH251868   4.315   1.662  16.642  0.4440 -0.3465 -0.6415
10126TIP3    H151869   4.370   1.683  16.567  0.4233 -0.6882 -0.7505
10126TIP3    H251870   4.375   1.661  16.717  0.6038 -0.7960 -0.7701
10127TIP3   OH251871   5.401   1.435  14.318 -0.7927  0.1836 -0.3590
10127TIP3    H151872   5.382   1.507  14.379 -0.3797 -0.5959  0.7286
10127TIP3    H251873   5.496   1.438  14.306 -0.2480 -2.1326  2.3276
10128TIP3   OH251874   1.216   3.321  14.353 -0.1554  0.1345  0.1106
10128TIP3    H151875   1.195   3.399  14.403  0.5062  0.5188 -0.1990
10128TIP3    H251876   1.243   3.257  14.419 -0.1415  0.3504  0.3157
10129TIP3   OH251877   2.797   4.297   1.713 -0.2064 -0.4538  0.2629
10129TIP3    H151878   2.882   4.305   1.755  0.4424 -0.5809 -0.9935
10129TIP3    H251879   2.746   4.370   1.749  0.8149  0.3424  0.1389
10130TIP3   OH251880   2.685   5.563   3.592 -0.0581 -0.0408  0.6417
10130TIP3    H151881   2.778   5.571   3.615  0.0082 -1.6495  1.0910
10130TIP3    H251882   2.685   5.548   3.498  0.1211  0.2176  0.6002
10131TIP3   OH251883   2.623   1.161  12.044 -0.3829 -0.1441  0.4454
10131TIP3    H151884   2.536   1.201  12.042 -0.2863  0.0627  0.3757
10131TIP3    H251885   2.651   1.166  12.135  0.1168  1.0022  0.2414
10132TIP3   OH251886   2.686   2.360  16.928  0.1276 -0.5693 -0.3368
10132TIP3    H151887   2.724   2.275  16.906  0.7134 -0.5691  0.6334
10132TIP3    H251888   2.611   2.339  16.984 -0.9047 -0.5298 -1.6525
10133TIP3   OH251889   2.631   4.282  12.011  0.4969 -0.0945  0.6401
10133TIP3    H151890   2.540   4.264  12.036  0.0920  0.9770  0.0336
10133TIP3    H251891   2.636   4.378  12.010  1.3356 -0.1422 -0.3643
10134TIP3   OH251892   0.374   5.926  11.513 -0.2514 -0.2604 -0.4172
10134TIP3    H151893   0.409   5.931  11.602 -0.7982 -0.2922 -0.1914
10134TIP3    H251894   0.362   5.832  11.497 -0.0983 -0.2573 -0.5447
10135TIP3   OH251895   3.153   6.009   2.679  0.0762  0.3383 -0.4706
10135TIP3    H151896   3.232   6.031   2.728 -0.6419 -0.4251  1.1016
10135TIP3    H251897   3.173   5.927   2.636 -0.1516 -0.3640  0.7177
10136TIP3   OH251898   2.141   3.106   0.360  0.3491 -0.6439  0.5970
10136TIP3    H151899   2.210   3.052   0.398  0.9243 -0.9943 -0.8998
10136TIP3    H251900   2.160   3.194   0.390  0.8258 -0.9006  1.0639
10137TIP3   OH251901   1.568   0.889  14.514  0.0437  0.5837 -0.3757
10137TIP3    H151902   1.616   0.851  14.441  0.5807 -1.1490  0.8002
10137TIP3    H251903   1.519   0.815  14.551 -0.5122  1.4912  0.7603
10138TIP3   OH251904   0.700   3.728  10.891  0.3167 -0.1622 -0.7877
10138TIP3    H151905   0.615   3.771  10.903  0.4592  0.1982 -1.0297
10138TIP3    H251906   0.705   3.664  10.961 -0.0666 -0.0411 -0.6455
10139TIP3   OH251907   2.917   3.307  15.117  0.3842 -0.2097 -0.4662
10139TIP3    H151908   2.930   3.217  15.147 -0.2433 -0.3676 -0.6580
10139TIP3    H251909   2.979   3.317  15.044  2.1274  0.2716  1.0050
10140TIP3   OH251910   5.746   1.112   2.450  0.8473 -0.1395 -0.0889
10140TIP3    H151911   5.651   1.122   2.443  0.4830 -3.3166 -1.0197
10140TIP3    H251912   5.782   1.182   2.395 -0.9676  0.3016 -0.7740
10141TIP3   OH251913   3.377   5.423   4.322 -0.1768 -0.4206 -0.0214
10141TIP3    H151914   3.454   5.474   4.299 -0.0016 -1.0297 -0.8345
10141TIP3    H251915   3.368   5.359   4.251 -1.3626 -0.4339  0.1104
10142TIP3   OH251916   4.601   0.486  11.123 -0.4029 -0.0223 -0.8082
10142TIP3    H151917   4.590   0.436  11.204  1.3641 -2.0132 -1.7325
10142TIP3    H251918   4.550   0.438  11.058 -0.4388  0.6059 -1.2512
10143TIP3   OH251919   3.740   2.927   2.347 -0.2406  0.4391  0.1190
10143TIP3    H151920   3.705   2.854   2.397 -1.1339  2.2248  2.2935
10143TIP3    H251921   3.691   2.926   2.265 -0.5002 -1.1373  0.2728
10144TIP3   OH251922   3.105   5.749   5.476  0.0375 -0.2016  0.0247
10144TIP3    H151923   3.169   5.733   5.407  1.4562  1.6227  0.8216
10144TIP3    H251924   3.139   5.826   5.522 -1.0493 -1.1033  2.4991
10145TIP3   OH251925   3.201   0.992   4.591 -0.1501 -0.0269  0.4429
10145TIP3    H151926   3.161   0.913   4.626  0.6227 -1.1300 -1.0825
10145TIP3    H251927   3.258   1.023   4.660 -0.8079 -0.5319  1.2284
10146TIP3   OH251928   6.199   3.228   3.993  0.1861 -0.7147  0.6306
10146TIP3    H151929   6.203   3.182   4.077  1.2691 -0.4513  0.7350
10146TIP3    H251930   6.166   3.162   3.931  0.8035 -1.3620  0.9685
10147TIP3   OH251931   1.616   1.286   2.110 -0.3342  0.0075 -0.2392
10147TIP3    H151932   1.609   1.347   2.037 -1.4781  1.3928  0.9584
10147TIP3    H251933   1.704   1.249   2.102 -0.4947 -0.0153 -2.3841
10148TIP3   OH251934   6.439   3.446   3.417  0.5827 -0.0734  0.8193
10148TIP3    H151935   6.508   3.505   3.445  0.0254  0.2265  1.5887
10148TIP3    H251936   6.420   3.393   3.494  0.1573 -0.3480  0.5279
10149TIP3   OH251937   1.734   2.762  14.188 -0.7762  0.4708 -0.1417
10149TIP3    H151938   1.718   2.681  14.139  0.4454  0.7520 -1.0513
10149TIP3    H251939   1.786   2.816  14.129  3.4446 -0.3351  2.3806
10150TIP3   OH251940   1.678   1.778   1.496 -0.1106  0.5015 -0.2914
10150TIP3    H151941   1.710   1.786   1.586  0.5389 -0.6117 -0.4094
10150TIP3    H251942   1.753   1.746   1.447 -0.9736 -0.7212 -0.8664
10151TIP3   OH251943   4.523   3.596  13.646  0.4891 -0.6075  0.0833
10151TIP3    H151944   4.428   3.602  13.649  0.5221  2.5807 -0.8703
10151TIP3    H251945   4.552   3.631  13.731  0.7494  1.0178 -0.6292
10152TIP3   OH251946   4.889   5.935  13.585  0.3692 -0.0727 -0.2838
10152TIP3    H151947   4.907   6.026  13.609  0.4383  0.3383 -1.8086
10152TIP3    H251948   4.914   5.929  13.493 -4.4578 -0.2405 -1.8416
10153TIP3   OH251949   5.330   4.654   1.889  0.3842 -0.1564 -0.2099
10153TIP3    H151950   5.272   4.615   1.954  1.7457 -0.6190  0.7792
10153TIP3    H251951   5.375   4.580   1.849 -1.2297  0.0134 -2.5737
10154TIP3   OH251952   4.297   2.298   6.478 -0.0609  0.2363  0.1550
10154TIP3    H151953   4.346   2.220   6.504  2.3557  1.3359 -0.7289
10154TIP3    H251954   4.303   2.299   6.382 -0.8461  1.0220  0.1004
10155TIP3   OH251955   6.620   5.921  15.592 -0.2474  0.4396  0.4671
10155TIP3    H151956   6.672   5.865  15.534  0.8607  0.9019  0.9920
10155TIP3    H251957   6.533   5.922  15.552  0.5565  0.9888 -1.3695
10156TIP3   OH251958   0.129   2.602   1.077 -0.7720  0.5141  0.7865
10156TIP3    H151959   0.038   2.632   1.075 -1.2437 -0.8913 -0.3128
10156TIP3    H251960   0.137   2.544   1.002  0.4054 -1.1655  2.1279
10157TIP3   OH251961   3.235   2.192  15.220 -0.5339 -0.0223 -0.5890
10157TIP3    H151962   3.159   2.249  15.231 -0.7010 -0.1488 -1.0702
10157TIP3    H251963   3.307   2.251  15.198 -0.7987 -0.0264 -1.5048
10158TIP3   OH251964   3.009   1.069  13.212  0.3291  0.2614 -0.0402
10158TIP3    H151965   3.010   1.085  13.118  0.9068 -0.0420 -0.0880
10158TIP3    H251966   2.982   0.978  13.221 -0.8751  0.6170  0.1446
10159TIP3   OH251967   3.217   4.668   5.701 -0.7530  0.0861  0.1514
10159TIP3    H151968   3.137   4.720   5.706 -2.6569 -2.6457  0.0015
10159TIP3    H251969   3.271   4.714   5.637 -2.6658  1.4204 -0.5962
10160TIP3   OH251970   3.387   0.266  15.572 -0.1103  0.6694 -0.6608
10160TIP3    H151971   3.298   0.295  15.593 -0.7110 -1.0946 -0.5601
10160TIP3    H251972   3.388   0.261  15.476 -0.9007 -1.3763 -0.6254
10161TIP3   OH251973   4.504   5.795   0.605  0.4209 -0.4820 -0.1644
10161TIP3    H151974   4.430   5.739   0.583  1.1233 -1.5048  0.0121
10161TIP3    H251975   4.540   5.757   0.685  0.9553  0.1783 -0.0815
10162TIP3   OH251976   3.532   6.469  16.941 -0.0917  0.0994 -0.1479
10162TIP3    H151977   3.624   6.476  16.967 -0.0651 -0.9374  0.0906
10162TIP3    H251978   3.489   6.543  16.982  0.7831  1.0767 -0.9443
10163TIP3   OH251979   2.390   1.747  13.170  0.3914  0.3921  0.2116
10163TIP3    H151980   2.423   1.808  13.236 -1.3568  0.7833  0.7731
10163TIP3    H251981   2.372   1.802  13.093 -1.4815  0.7145  0.8207
10164TIP3   OH251982   3.539   4.435   6.272  0.3814 -0.1850  0.6324
10164TIP3    H151983   3.480   4.405   6.203  0.2614  0.0998  0.6081
10164TIP3    H251984   3.627   4.418   6.237  0.3411  0.7371  0.0376
10165TIP3   OH251985   5.137   2.467   6.861 -0.3135 -0.0147  0.5275
10165TIP3    H151986   5.203   2.448   6.794  0.7815  1.9533  0.9707
10165TIP3    H251987   5.086   2.540   6.825  1.1388  1.9692  2.2886
10166TIP3   OH251988   0.519   3.524  16.242  0.4045  0.0450 -0.4137
10166TIP3    H151989   0.607   3.500  16.213 -0.1383 -0.8112 -1.4420
10166TIP3    H251990   0.518   3.505  16.335  1.4295  0.4717 -0.2971
10167TIP3   OH251991   1.344   1.169  13.627 -0.0921 -0.4340  0.3426
10167TIP3    H151992   1.416   1.131  13.577  0.9907  1.3252  0.4643
10167TIP3    H251993   1.271   1.173  13.565  0.5341 -0.4186 -0.4072
10168TIP3   OH251994   1.634   5.932   2.000  0.3687  0.7721  0.3372
10168TIP3    H151995   1.686   5.877   1.941  0.0694  0.5898  0.2369
10168TIP3    H251996   1.602   6.003   1.945  1.1143  1.2999  0.5639
10169TIP3   OH251997   4.371   5.053   2.187  0.2045 -0.2346  0.4783
10169TIP3    H151998   4.367   5.121   2.120  0.6315  1.0555  1.7222
10169TIP3    H251999   4.290   5.064   2.237  0.2301 -0.7056  0.6280
10170TIP3   OH252000   2.412   4.502   1.692  0.2152 -0.0479 -0.1158
10170TIP3    H152001   2.329   4.549   1.698  0.5833  0.5626  0.1841
10170TIP3    H252002   2.388   4.410   1.706 -0.3923  0.1359  0.0628
10171TIP3   OH252003   5.427   1.406   1.372  0.3448 -0.0537 -0.0369
10171TIP3    H152004   5.391   1.318   1.371 -2.0182  0.8140 -1.8246
10171TIP3    H252005   5.468   1.416   1.286  0.1466  0.7333 -0.0482
10172TIP3   OH252006   3.420   0.987  11.424 -0.2685  0.3089  0.0485
10172TIP3    H152007   3.378   0.910  11.387 -0.3700 -0.3126  1.3873
10172TIP3    H252008   3.397   1.058  11.364 -0.7851 -0.5535 -0.8130
10173TIP3   OH252009   1.796   5.635   1.536  0.3550  0.1319  0.3946
10173TIP3    H152010   1.774   5.640   1.443  0.5765  1.3746  0.3937
10173TIP3    H252011   1.761   5.550   1.564 -2.8492  1.1923 -0.0220
10174TIP3   OH252012   4.964   0.075   0.966  0.1120 -0.3075 -0.3781
10174TIP3    H152013   5.014   0.125   1.030 -2.1473 -1.0140  2.1366
10174TIP3    H252014   5.009  -0.010   0.962  0.0122 -0.4366  0.7271
10175TIP3   OH252015   1.320   1.132  17.035 -0.1561  0.2885 -0.9753
10175TIP3    H152016   1.277   1.056  17.074  1.9666 -0.4989 -0.0408
10175TIP3    H252017   1.295   1.129  16.943 -2.2311  0.0221 -0.4590
10176TIP3   OH252018   5.484   3.591   5.361 -0.4549  0.0160  0.4221
10176TIP3    H152019   5.454   3.599   5.452  0.0170  0.9470  0.5109
10176TIP3    H252020   5.563   3.538   5.367 -0.3343  0.2110  0.5784
10177TIP3   OH252021   6.244   2.712  15.209 -0.4665 -0.2485 -0.2405
10177TIP3    H152022   6.210   2.711  15.298  0.8230 -0.5303  0.2653
10177TIP3    H252023   6.209   2.631  15.170 -1.2377  0.0009 -0.0869
10178TIP3   OH252024   4.435   5.117   0.479  0.2470  0.0455  0.3010
10178TIP3    H152025   4.449   5.108   0.574  0.9019  1.0720  0.3139
10178TIP3    H252026   4.346   5.084   0.465  0.2264 -0.3342  1.2317
10179TIP3   OH252027   0.832   2.733  16.416  0.0879 -0.2812 -0.5060
10179TIP3    H152028   0.885   2.678  16.473 -0.7853  0.6863  1.3343
10179TIP3    H252029   0.785   2.672  16.360  0.3330 -1.3183  0.3953
10180TIP3   OH252030   2.245   0.456  15.861 -0.2764  0.1758 -0.0377
10180TIP3    H152031   2.199   0.525  15.814  0.8525  0.4160 -0.8191
10180TIP3    H252032   2.211   0.461  15.951 -0.7262  1.2726 -0.2574
10181TIP3   OH252033   4.387   3.582  15.585  0.2439  0.1821 -0.5671
10181TIP3    H152034   4.300   3.610  15.613 -0.4609 -3.6095  1.6848
10181TIP3    H252035   4.372   3.537  15.502  0.1065 -0.1087 -0.3862
10182TIP3   OH252036   2.753   1.313   5.329  0.1969 -0.0361 -0.6013
10182TIP3    H152037   2.838   1.321   5.373  0.1401  1.5744 -0.7470
10182TIP3    H252038   2.720   1.402   5.323 -0.6825 -0.4277 -2.2039
10183TIP3   OH252039   0.215   1.819  17.409 -0.6398 -0.3616  0.4250
10183TIP3    H152040   0.171   1.883  17.465 -1.5499  1.7034 -2.4377
10183TIP3    H252041   0.305   1.852  17.401 -0.5759 -0.5255  0.4614
10184TIP3   OH252042   4.445   1.050   3.072 -0.5567 -0.5851 -0.0804
10184TIP3    H152043   4.521   1.068   3.128 -0.4532 -2.1243  0.3366
10184TIP3    H252044   4.383   1.120   3.093 -0.1211 -0.5554  1.2467
10185TIP3   OH252045   2.974   6.698   3.170  0.3201 -0.4482  0.2235
10185TIP3    H152046   2.963   6.603   3.160  0.5938 -0.5326  0.6881
10185TIP3    H252047   2.943   6.735   3.087  2.2348 -1.0831 -0.8373
10186TIP3   OH252048   3.341   4.773   4.574 -0.2976  0.0098 -0.1578
10186TIP3    H152049   3.421   4.823   4.587  0.5061 -1.3880  0.5142
10186TIP3    H252050   3.367   4.700   4.518 -1.5177  0.4923 -1.4145
10187TIP3   OH252051   6.438   5.636  14.034 -0.0171 -0.2403  0.0566
10187TIP3    H152052   6.527   5.652  14.005 -0.6569  0.0655 -1.8300
10187TIP3    H252053   6.387   5.625  13.954 -1.4131 -1.9809  1.1049
10188TIP3   OH252054   3.050   1.176  12.540 -0.1113 -0.2335 -0.1648
10188TIP3    H152055   3.054   1.216  12.627  0.9047 -3.5518  1.4880
10188TIP3    H252056   2.963   1.135  12.537 -0.1262 -0.1588 -0.6904
10189TIP3   OH252057   3.571   1.442   3.441 -0.5783 -0.1373 -0.4233
10189TIP3    H152058   3.481   1.455   3.411 -1.2746 -0.3950  1.3790
10189TIP3    H252059   3.565   1.373   3.507  0.6373  1.0278  0.9883
10190TIP3   OH252060   1.844   3.697  14.481  0.2323  0.1226 -0.1249
10190TIP3    H152061   1.863   3.775  14.430  1.5047 -0.0146  0.1128
10190TIP3    H252062   1.919   3.640  14.468  0.0682 -0.3887  0.9884
10191TIP3   OH252063   2.197   2.405   1.625  0.2280  0.2515 -0.3355
10191TIP3    H152064   2.206   2.492   1.664  2.2049 -0.5686  1.2227
10191TIP3    H252065   2.249   2.410   1.544 -0.1756  0.6867 -0.5708
10192TIP3   OH252066   5.478   5.413   1.971 -0.1348  0.3587  0.1233
10192TIP3    H152067   5.494   5.322   1.946  0.3964  0.4856 -0.0022
10192TIP3    H252068   5.466   5.409   2.066  1.0375  0.3016  0.2881
10193TIP3   OH252069   1.682   3.745  12.447  0.3601 -0.0614  0.0016
10193TIP3    H152070   1.775   3.725  12.432  0.5163 -0.0955  0.9783
10193TIP3    H252071   1.645   3.665  12.484  0.5574  0.7677  2.1109
10194TIP3   OH252072   5.185   4.292   3.968 -0.5070  0.0086  0.0226
10194TIP3    H152073   5.137   4.249   3.898 -0.8309  2.3115 -1.2916
10194TIP3    H252074   5.263   4.329   3.925 -0.8829  1.7716  0.7475
10195TIP3   OH252075   4.556   5.138  12.506  0.0473 -0.5107  0.2691
10195TIP3    H152076   4.515   5.098  12.430 -0.3868  0.3789  0.0169
10195TIP3    H252077   4.641   5.094  12.514 -0.8494 -2.2481  0.6968
10196TIP3   OH252078   2.532   2.667  17.459 -0.3175  0.1891  0.6280
10196TIP3    H152079   2.599   2.613  17.416 -0.6992 -1.8453  2.4029
10196TIP3    H252080   2.493   2.718  17.388  2.1838  0.4603 -0.6661
10197TIP3   OH252081   2.975   3.259   4.034 -0.0166  0.0696 -0.4810
10197TIP3    H152082   3.059   3.232   3.998  0.2454  0.1266  0.0736
10197TIP3    H252083   2.996   3.333   4.092 -0.0097 -1.6854  1.9054
10198TIP3   OH252084   5.672   4.818   5.445 -0.3230 -0.0269 -0.1685
10198TIP3    H152085   5.708   4.903   5.470  0.8946 -0.7573  0.6109
10198TIP3    H252086   5.603   4.801   5.509  0.4701 -0.3226  0.6151
10199TIP3   OH252087   1.408   6.609  16.314  0.8974  0.5207  0.5636
10199TIP3    H152088   1.437   6.528  16.356  1.0962  0.1355 -0.2805
10199TIP3    H252089   1.356   6.654  16.380 -1.0183 -1.2979  0.3861
10200TIP3   OH252090   4.384   1.524  15.247  0.2411 -0.0347  0.6309
10200TIP3    H152091   4.354   1.608  15.212 -0.8616 -0.5266  0.3714
10200TIP3    H252092   4.426   1.547  15.330  2.9777  1.1519 -0.9344
10201TIP3   OH252093   3.002   4.319   5.405 -0.3236 -0.3482 -0.3383
10201TIP3    H152094   2.948   4.241   5.420  1.1332 -1.0302  1.9383
10201TIP3    H252095   2.942   4.393   5.416 -1.1970 -1.1086  0.1425
10202TIP3   OH252096   5.524   2.201  15.601  0.0868 -0.7049 -0.2343
10202TIP3    H152097   5.526   2.109  15.628  3.4551 -1.0390 -1.0683
10202TIP3    H252098   5.479   2.200  15.517 -0.5651 -1.4627  0.1115
10203TIP3   OH252099   3.654   3.987  13.568 -0.4858 -0.0986 -0.0243
10203TIP3    H152100   3.731   4.024  13.611  0.3188 -2.3584  0.6329
10203TIP3    H252101   3.580   4.034  13.606  0.2889 -1.0767  2.9276
10204TIP3   OH252102   3.116   1.305   5.023 -0.1712  0.4636  0.1457
10204TIP3    H152103   3.143   1.397   5.028 -1.9736  1.2575 -2.3719
10204TIP3    H252104   3.169   1.268   4.953 -1.5231  0.5086 -0.9600
10205TIP3   OH252105   3.031   1.498   4.207 -0.1832 -0.1761  0.3179
10205TIP3    H152106   3.101   1.536   4.154  0.1165  0.7066  1.2878
10205TIP3    H252107   3.001   1.422   4.158  1.6918 -0.7770  0.0379
10206TIP3   OH252108   3.127   5.226  16.267  0.4500  0.2974  0.0218
10206TIP3    H152109   3.115   5.300  16.207  0.4435  1.7294  1.6996
10206TIP3    H252110   3.220   5.204  16.260  0.6284  0.9980  0.0825
10207TIP3   OH252111   2.534   1.699   5.325  0.0034 -0.2381 -0.3330
10207TIP3    H152112   2.465   1.755   5.291 -1.8321 -1.1203  1.7006
10207TIP3    H252113   2.531   1.621   5.269  0.0119  0.1231 -0.8417
10208TIP3   OH252114   3.097   2.749  13.862 -0.5062 -0.3232 -0.2164
10208TIP3    H152115   3.129   2.811  13.796  3.1915 -2.0082 -0.2516
10208TIP3    H252116   3.157   2.760  13.936 -2.5718 -0.7650  1.6026
10209TIP3   OH252117   6.321   0.388   1.690 -0.4011  0.0210 -0.5000
10209TIP3    H152118   6.252   0.453   1.702 -0.1621  0.5087 -1.6276
10209TIP3    H252119   6.363   0.412   1.607  1.9221  0.4624  0.7107
10210TIP3   OH252120   4.144   2.927   1.399  0.2745  0.1748 -0.1527
10210TIP3    H152121   4.123   2.907   1.491 -2.3624 -1.0279 -0.9121
10210TIP3    H252122   4.224   2.876   1.382  0.4176 -0.1370  1.2804
10211TIP3   OH252123   1.473   4.664   3.270 -0.3622  0.2607 -0.0300
10211TIP3    H152124   1.419   4.703   3.338 -0.0900  0.4006  0.1063
10211TIP3    H252125   1.559   4.705   3.280 -1.0316  2.4477 -2.2684
10212TIP3   OH252126   0.995   5.539  11.953 -0.1856  0.1486  0.1910
10212TIP3    H152127   1.063   5.472  11.943  0.1662 -0.1115  3.3392
10212TIP3    H252128   1.040   5.622  11.939  1.0876  0.0283  2.9536
10213TIP3   OH252129   2.997   3.622   2.954 -0.1983 -0.3778 -0.0714
10213TIP3    H152130   2.910   3.656   2.930 -0.1251 -0.3127 -0.2415
10213TIP3    H252131   3.004   3.641   3.048 -0.5134 -0.7027  0.0198
10214TIP3   OH252132   5.397   5.507   2.800  0.3814 -0.4093  0.3472
10214TIP3    H152133   5.447   5.569   2.853  0.4590  0.9072 -1.1605
10214TIP3    H252134   5.460   5.440   2.775  0.6510 -0.3569  0.8719
10215TIP3   OH252135   5.839   2.240  12.853  0.0966  0.7335  0.3177
10215TIP3    H152136   5.929   2.270  12.866 -0.0242  1.0404  0.4471
10215TIP3    H252137   5.820   2.187  12.931  0.8789 -1.1010 -0.6567
10216TIP3   OH252138   3.940   5.446   3.265 -0.1601 -0.0215  0.1979
10216TIP3    H152139   3.980   5.453   3.178  1.3141  0.7563  0.8933
10216TIP3    H252140   3.947   5.534   3.301 -0.3861 -0.4266  1.2622
10217TIP3   OH252141   1.206   3.618   6.550 -0.2877  0.0471  0.1270
10217TIP3    H152142   1.288   3.596   6.593 -0.9405 -2.7133  0.1076
10217TIP3    H252143   1.207   3.714   6.544  3.2648  0.0921 -0.6336
10218TIP3   OH252144   0.866   4.122   4.855  0.4949 -0.1314 -0.3740
10218TIP3    H152145   0.865   4.115   4.759  1.4948  1.6143 -0.5505
10218TIP3    H252146   0.851   4.215   4.872 -1.1044 -0.6349  1.2477
10219TIP3   OH252147   5.929   3.663   2.867  0.0427 -0.0565  0.4171
10219TIP3    H152148   5.876   3.737   2.836 -1.1438 -0.8105  0.5780
10219TIP3    H252149   5.918   3.596   2.800 -0.6342 -0.8429  1.2731
10220TIP3   OH252150   3.204   3.510   1.424  0.8085 -0.0584 -0.3868
10220TIP3    H152151   3.252   3.501   1.342  2.2705  2.4158  0.1190
10220TIP3    H252152   3.129   3.566   1.402  0.1886 -0.8505 -0.3657
10221TIP3   OH252153   2.943   6.085  16.605  0.1207  0.1883  0.4416
10221TIP3    H152154   2.849   6.072  16.590  0.2648 -0.1431 -0.1867
10221TIP3    H252155   2.951   6.179  16.625 -0.3231  0.2470  0.3505
10222TIP3   OH252156   6.446   1.051   6.450  0.1355  0.1126 -1.0060
10222TIP3    H152157   6.376   1.013   6.503  0.2889 -0.7561 -1.4103
10222TIP3    H252158   6.450   1.143   6.478 -0.2347 -0.1662 -0.0047
10223TIP3   OH252159   0.881   0.531  13.875 -0.6975  0.3965  0.0120
10223TIP3    H152160   0.921   0.499  13.795 -2.5791  0.0852 -0.8442
10223TIP3    H252161   0.940   0.502  13.945  0.1155 -0.7532 -1.1172
10224TIP3   OH252162   3.804   1.435  15.315  0.0022 -0.6688 -0.4893
10224TIP3    H152163   3.723   1.389  15.336  0.0942 -0.4604  0.3467
10224TIP3    H252164   3.860   1.368  15.275  1.3500 -2.2299  3.5463
10225TIP3   OH252165   1.729   0.527   0.157 -0.2014 -0.3306 -0.5437
10225TIP3    H152166   1.767   0.614   0.170 -1.3669  0.0336  0.5942
10225TIP3    H252167   1.785   0.469   0.208 -0.9902  0.1778  0.9803
10226TIP3   OH252168   0.547   2.714   0.714  0.9436 -0.1959 -0.0864
10226TIP3    H152169   0.608   2.665   0.659  1.1863 -0.3693  0.3319
10226TIP3    H252170   0.499   2.646   0.763  0.2696 -0.0737 -0.5522
10227TIP3   OH252171   5.094   4.730   0.405  0.1063 -0.1850  0.2519
10227TIP3    H152172   5.054   4.643   0.404 -1.1557  0.3585  0.9821
10227TIP3    H252173   5.159   4.727   0.334 -0.2469 -1.5610 -0.0465
10228TIP3   OH252174   3.315   0.982  12.734  0.5735  0.6298  0.3839
10228TIP3    H152175   3.238   1.032  12.760  1.1205  0.4651  2.4363
10228TIP3    H252176   3.283   0.893  12.719 -0.1402  1.1806 -1.8902
10229TIP3   OH252177   4.215   6.080  13.698 -0.3189  0.7864 -0.0715
10229TIP3    H152178   4.266   6.026  13.637 -0.9988 -0.9436  0.8460
10229TIP3    H252179   4.267   6.081  13.779 -0.7678  0.7244  0.2188
10230TIP3   OH252180   3.866   4.472  14.211  0.3963 -0.6512  0.3064
10230TIP3    H152181   3.944   4.521  14.237 -1.2197  0.7613  2.8417
10230TIP3    H252182   3.867   4.394  14.268 -0.0194 -0.6492  0.3187
10231TIP3   OH252183   5.492   6.745  13.169  0.2324  0.3662 -0.3619
10231TIP3    H152184   5.463   6.830  13.204 -3.5221 -0.1321 -1.7810
10231TIP3    H252185   5.500   6.759  13.075  1.7891 -0.3781 -0.3701
10232TIP3   OH252186   0.322   4.131  12.991 -0.1871  0.2825 -0.1401
10232TIP3    H152187   0.250   4.162  13.044 -1.7341 -0.3287 -1.7764
10232TIP3    H252188   0.286   4.124  12.902  1.4551 -1.4167 -0.7532
10233TIP3   OH252189   0.526   2.518   2.147 -0.4726  0.2996  0.1128
10233TIP3    H152190   0.473   2.535   2.226  0.4320  0.4437  0.7026
10233TIP3    H252191   0.508   2.593   2.091 -0.5804  0.5553  0.4807
10234TIP3   OH252192   1.161   0.717   0.265 -0.1820 -0.6215 -0.1385
10234TIP3    H152193   1.137   0.709   0.358 -0.3053  0.6186 -0.0522
10234TIP3    H252194   1.255   0.737   0.267 -0.6456  1.8514 -0.1369
10235TIP3   OH252195   4.993   5.807   3.049  0.0994 -0.6379 -0.3278
10235TIP3    H152196   4.962   5.799   2.958  1.0683 -1.0370 -0.6357
10235TIP3    H252197   4.918   5.842   3.096 -0.4136 -0.3846 -1.2934
10236TIP3   OH252198   5.505   3.894   3.587 -0.2001  0.2406 -0.1144
10236TIP3    H152199   5.482   3.871   3.677  1.4206 -3.6860 -0.4982
10236TIP3    H252200   5.534   3.812   3.548  2.0415  2.3380 -3.3716
10237TIP3   OH252201   4.155   0.640  15.286 -0.6820  0.2803  0.6438
10237TIP3    H152202   4.128   0.667  15.374  0.7941  1.7300  0.6887
10237TIP3    H252203   4.249   0.654  15.284 -0.2894 -2.0983 -0.3892
10238TIP3   OH252204   5.508   0.818  12.782  0.1801  0.1602  0.2471
10238TIP3    H152205   5.582   0.861  12.739  0.3928  0.7649  1.2001
10238TIP3    H252206   5.542   0.731  12.805 -0.4222 -0.8234 -2.1778
10239TIP3   OH252207   4.452   0.669  13.367 -0.2344  0.7005 -0.0714
10239TIP3    H152208   4.422   0.578  13.364  0.6280  0.3689  0.5678
10239TIP3    H252209   4.383   0.720  13.326 -1.0977 -0.1585  0.2956
10240TIP3   OH252210   6.201   5.654   3.321 -0.2672 -0.2071 -0.2708
10240TIP3    H152211   6.164   5.684   3.238 -0.8706  0.9260  0.3854
10240TIP3    H252212   6.186   5.726   3.381 -2.5240 -2.1037  1.6260
10241TIP3   OH252213   6.284   0.082  15.290 -0.3976 -0.2670 -0.2131
10241TIP3    H152214   6.301  -0.011  15.275  0.9302 -0.1031  0.2028
10241TIP3    H252215   6.189   0.087  15.304 -0.5677 -1.4717 -0.7951
10242TIP3   OH252216   2.792   4.887  16.627 -0.4144  0.1883 -0.1271
10242TIP3    H152217   2.821   4.824  16.694 -0.5901 -0.2508 -0.4584
10242TIP3    H252218   2.858   4.956  16.629 -1.0047  0.7444  1.2781
10243TIP3   OH252219   1.340   1.435  14.530  0.4026  0.1662  0.1579
10243TIP3    H152220   1.353   1.370  14.461  1.0039 -0.6605  1.0150
10243TIP3    H252221   1.298   1.509  14.486  0.5630 -0.4255 -1.0376
10244TIP3   OH252222   2.835   1.462  14.406  0.1298  0.4559  0.1917
10244TIP3    H152223   2.895   1.389  14.423 -0.8223 -0.3990 -0.0631
10244TIP3    H252224   2.818   1.457  14.312  0.6349  1.4765  0.0264
10245TIP3   OH252225   0.720   1.099  10.524 -0.0596  0.3649 -0.6105
10245TIP3    H152226   0.746   1.014  10.489 -1.2889 -0.9959  1.6115
10245TIP3    H252227   0.800   1.152  10.519  1.1907 -1.4390 -0.5071
10246TIP3   OH252228   3.706   4.023   4.110 -0.6892  0.4126 -0.0816
10246TIP3    H152229   3.685   4.015   4.203 -0.0587  1.0270  0.1147
10246TIP3    H252230   3.801   4.032   4.107 -0.7985  1.4625 -0.7168
10247TIP3   OH252231   3.155   1.101  15.451  0.5244  0.2563  0.1338
10247TIP3    H152232   3.173   1.008  15.466 -3.3284 -0.5419  0.8326
10247TIP3    H252233   3.189   1.144  15.530  3.1194 -0.3158 -0.5616
10248TIP3   OH252234   5.328   6.537  13.960 -0.2112 -0.0974 -1.0402
10248TIP3    H152235   5.247   6.575  13.926 -0.1855  0.8037 -0.1643
10248TIP3    H252236   5.392   6.608  13.954 -0.3510  0.3243  1.3159
10249TIP3   OH252237   1.497   4.597   1.638  0.4575  0.1800 -0.3461
10249TIP3    H152238   1.406   4.573   1.622  0.0776  1.1836  0.2144
10249TIP3    H252239   1.495   4.650   1.718  1.7178 -0.9512  0.4950
10250TIP3   OH252240   0.236   0.322   4.088  0.3972  0.2968  0.0036
10250TIP3    H152241   0.176   0.301   4.017  0.8895  0.5659 -0.4978
10250TIP3    H252242   0.202   0.273   4.163  0.2602 -0.5311 -0.5832
10251TIP3   OH252243   2.082   2.306  16.069  0.1699  0.3499 -0.0791
10251TIP3    H152244   2.003   2.278  16.114 -0.1777  1.2541 -0.1195
10251TIP3    H252245   2.106   2.389  16.110  1.4355 -0.1954  0.3359
10252TIP3   OH252246   1.239   0.572  11.646 -0.4791  0.0492 -0.9675
10252TIP3    H152247   1.225   0.622  11.566 -0.3395  1.0263 -0.4049
10252TIP3    H252248   1.273   0.636  11.709 -1.0839 -0.5699  0.0331
10253TIP3   OH252249   0.559   0.726   1.327 -0.0308  0.5456  0.3480
10253TIP3    H152250   0.494   0.784   1.287  0.2534  1.8693  1.7333
10253TIP3    H252251   0.540   0.640   1.289 -1.7113  1.1619 -0.3089
10254TIP3   OH252252   1.364   2.418  11.415 -0.1772 -0.4775 -0.3312
10254TIP3    H152253   1.332   2.491  11.361 -1.0588  0.1674  1.0097
10254TIP3    H252254   1.456   2.439  11.431 -0.3338  0.1856 -0.2480
10255TIP3   OH252255   5.248   3.617   0.543 -0.4227  0.3073  0.1569
10255TIP3    H152256   5.311   3.548   0.563  0.5606  1.2048  0.2240
10255TIP3    H252257   5.163   3.577   0.560  0.1628 -0.5851  1.1090
10256TIP3   OH252258   0.893   4.752   4.976 -0.2320 -0.1730 -0.1012
10256TIP3    H152259   0.987   4.750   4.992  0.0839 -1.0381 -1.8584
10256TIP3    H252260   0.859   4.812   5.043  1.5972  0.4667  0.3242
10257TIP3   OH252261   5.817   5.460  16.157 -0.0622  0.1691 -0.3910
10257TIP3    H152262   5.785   5.540  16.197  1.3589  1.4867 -1.7528
10257TIP3    H252263   5.887   5.431  16.215 -0.7171 -0.2229  0.2134
10258TIP3   OH252264   6.271   1.479   5.389 -0.0549 -0.3320 -0.0433
10258TIP3    H152265   6.219   1.406   5.356 -0.3092 -0.3871  0.4525
10258TIP3    H252266   6.212   1.555   5.384  0.7017  0.1859 -1.9997
10259TIP3   OH252267   5.337   6.339  11.110 -0.0447  0.2749 -0.6512
10259TIP3    H152268   5.274   6.307  11.045 -1.9932 -4.3402  2.9374
10259TIP3    H252269   5.295   6.414  11.151 -1.9902 -0.9637 -0.2758
10260TIP3   OH252270   6.534   2.987   2.439  0.1060  0.0437  0.0741
10260TIP3    H152271   6.603   2.976   2.504 -0.5045  0.0306  0.7410
10260TIP3    H252272   6.456   2.949   2.481 -0.8391  2.0907  0.2756
10261TIP3   OH252273   0.009   0.768  15.430 -0.3571  0.2406 -0.0709
10261TIP3    H152274  -0.058   0.753  15.497  0.5099 -1.7844  0.4268
10261TIP3    H252275   0.005   0.862  15.412 -1.6188  0.5788  1.7396
10262TIP3   OH252276   2.581   5.348  12.679  0.0481  0.1530 -0.3070
10262TIP3    H152277   2.660   5.320  12.632 -0.1133 -1.9792  0.5950
10262TIP3    H252278   2.516   5.363  12.611  0.1902 -1.6635 -0.9043
10263TIP3   OH252279   3.652   5.158  14.334  0.2153  0.5216  0.4852
10263TIP3    H152280   3.649   5.205  14.417  1.5139  1.4616  0.0252
10263TIP3    H252281   3.577   5.191  14.284 -0.4790  0.0609  1.2060
10264TIP3   OH252282   5.140   2.398  13.066 -0.1031 -0.8198  0.4500
10264TIP3    H152283   5.101   2.480  13.097  0.1359 -0.5996  0.1834
10264TIP3    H252284   5.221   2.426  13.022 -0.4425 -1.1093 -0.3864
10265TIP3   OH252285   3.327   3.926   0.958  0.1623 -0.2790  1.0281
10265TIP3    H152286   3.330   3.841   0.914 -0.1686 -0.2744  0.9941
10265TIP3    H252287   3.373   3.986   0.899  0.2365 -0.3971  0.9670
10266TIP3   OH252288   0.631   5.748  12.805  0.1148  0.5606 -0.3859
10266TIP3    H152289   0.667   5.761  12.893 -0.2272  0.2285 -0.1938
10266TIP3    H252290   0.708   5.750  12.747  0.3072  1.0984 -0.1167
10267TIP3   OH252291   0.278   5.298  14.356  0.6208  0.3928 -0.2797
10267TIP3    H152292   0.358   5.250  14.333  0.4203 -0.5678  0.9034
10267TIP3    H252293   0.254   5.264  14.442 -0.4405  1.4917 -0.1126
10268TIP3   OH252294   5.192   4.267   1.953 -0.4590  0.1266 -0.5272
10268TIP3    H152295   5.179   4.315   1.871  0.5171  1.9997  0.3367
10268TIP3    H252296   5.206   4.336   2.019  1.6460 -1.3397  0.6826
10269TIP3   OH252297   4.596   0.659   3.100 -0.3719 -0.0371  0.4822
10269TIP3    H152298   4.565   0.636   3.188 -0.2366  0.6856  0.7285
10269TIP3    H252299   4.520   0.646   3.044 -0.5758 -0.1129  0.7719
10270TIP3   OH252300   2.631   4.144  11.422 -0.3227  0.1592 -0.4303
10270TIP3    H152301   2.661   4.075  11.362 -1.7445 -1.3026  0.4646
10270TIP3    H252302   2.680   4.129  11.502 -0.5174  0.2911 -0.2846
10271TIP3   OH252303   6.394   1.394  17.032  0.4464 -0.0244 -0.0709
10271TIP3    H152304   6.369   1.478  16.996  0.6886  0.1169  0.0868
10271TIP3    H252305   6.409   1.411  17.125 -1.1130 -0.5837  0.3073
10272TIP3   OH252306   3.410   1.844  15.035  0.6666 -0.1588  0.1268
10272TIP3    H152307   3.484   1.905  15.028 -0.3903  0.9971 -1.5849
10272TIP3    H252308   3.381   1.852  15.126  1.9458  0.1856  0.5303
10273TIP3   OH252309   6.470   5.628   5.995 -0.1171 -0.3802 -0.1292
10273TIP3    H152310   6.529   5.702   5.983  0.1546 -0.7275 -0.9878
10273TIP3    H252311   6.405   5.659   6.058  0.6013  0.2226  0.3367
10274TIP3   OH252312   5.068   3.970  13.596  0.6658 -0.0018  0.1149
10274TIP3    H152313   5.118   3.981  13.515  0.2427  1.2495 -0.0080
10274TIP3    H252314   5.087   4.050  13.646 -0.3662  0.0080  0.5189
10275TIP3   OH252315   3.462   4.004   3.555 -0.2351  0.1300  0.0679
10275TIP3    H152316   3.384   3.972   3.509  1.0491 -1.7246 -0.9275
10275TIP3    H252317   3.492   3.929   3.607  0.9141  0.7884  0.3929
10276TIP3   OH252318   1.208   5.892  17.230 -0.7427  0.2670 -0.0857
10276TIP3    H152319   1.201   5.982  17.261 -1.4024 -0.3006  1.4929
10276TIP3    H252320   1.299   5.867  17.248 -0.3289  0.8331 -1.2472
10277TIP3   OH252321   0.570   5.441  14.263  0.2959 -0.3175 -0.9710
10277TIP3    H152322   0.483   5.471  14.235  0.3588  0.9522  0.0960
10277TIP3    H252323   0.614   5.521  14.291  0.4187 -1.3788  2.2092
10278TIP3   OH252324   2.756   1.879  17.241 -0.1392 -0.1988 -0.3555
10278TIP3    H152325   2.796   1.792  17.236 -0.6867 -0.4844  0.1176
10278TIP3    H252326   2.663   1.861  17.252 -0.0460  0.4163  1.8080
10279TIP3   OH252327   0.029   4.794  12.634  0.2030 -0.2681 -0.1480
10279TIP3    H152328   0.011   4.773  12.542  0.7096 -1.6692  0.0597
10279TIP3    H252329   0.115   4.757  12.651  1.4480  2.4509  0.1289
10280TIP3   OH252330   2.324   1.970  14.813 -0.0280 -0.1595 -0.1298
10280TIP3    H152331   2.261   1.927  14.870  0.0748 -1.1861 -0.7765
10280TIP3    H252332   2.271   2.028  14.758 -0.1782  0.4585  0.6432
10281TIP3   OH252333   6.613   5.053   1.469  0.2597 -0.4505  0.2685
10281TIP3    H152334   6.685   5.115   1.461 -0.3981  0.0887 -2.6923
10281TIP3    H252335   6.651   4.969   1.446 -0.0586 -0.1149 -1.6073
10282TIP3   OH252336   2.546   5.291  15.118  0.1284 -0.5326  0.0700
10282TIP3    H152337   2.515   5.371  15.160  0.5492 -0.5974  0.5152
10282TIP3    H252338   2.602   5.250  15.184  3.1594  0.7707 -1.4882
10283TIP3   OH252339   6.057   2.670  16.120  0.2249  0.2856 -0.4637
10283TIP3    H152340   6.065   2.743  16.182  0.0540 -0.6966  0.7346
10283TIP3    H252341   6.108   2.698  16.044  1.8325  0.8207  0.7689
10284TIP3   OH252342   3.601   5.131   1.851 -1.0611 -0.1446 -0.2912
10284TIP3    H152343   3.522   5.166   1.893 -1.6467 -1.6299 -0.1063
10284TIP3    H252344   3.569   5.063   1.792  0.0944 -0.8927 -0.0753
10285TIP3   OH252345   4.407   0.055   0.379 -0.2878 -0.3388  0.1778
10285TIP3    H152346   4.501   0.070   0.385 -0.2427  0.9157 -2.3200
10285TIP3    H252347   4.368   0.142   0.384 -1.3803 -0.8760  1.5617
10286TIP3   OH252348   3.552   5.799  17.073  0.5691  0.2306  0.4972
10286TIP3    H152349   3.545   5.789  16.978  1.8753  0.8083  0.3305
10286TIP3    H252350   3.464   5.780  17.105  0.3993 -1.1635 -0.7141
10287TIP3   OH252351   4.622   6.655   2.523  0.2711  0.0107  0.2568
10287TIP3    H152352   4.676   6.611   2.458 -1.1585 -0.0504 -0.9443
10287TIP3    H252353   4.575   6.722   2.473 -0.5060  0.2872  1.3266
10288TIP3   OH252354   3.130   3.983  11.615  0.3889 -0.3528 -0.1757
10288TIP3    H152355   3.127   4.059  11.557 -0.3272  0.9405  1.4885
10288TIP3    H252356   3.108   4.017  11.702 -2.1874 -2.8094  0.2923
10289TIP3   OH252357   1.907   0.127  13.291 -0.0416  0.2455 -0.1382
10289TIP3    H152358   1.915   0.187  13.365 -0.3402  0.0068  0.0906
10289TIP3    H252359   1.883   0.044  13.331  1.1112 -0.2208 -0.3837
10290TIP3   OH252360   6.627   2.475   1.958 -0.1821 -0.7801 -0.0568
10290TIP3    H152361   6.690   2.512   2.020  0.3896 -1.2219 -0.3662
10290TIP3    H252362   6.578   2.411   2.010 -0.5503 -0.2610  0.2464
10291TIP3   OH252363   4.677   5.804  11.315  0.3093 -0.1690 -0.1478
10291TIP3    H152364   4.713   5.758  11.239 -1.2481 -1.6080 -0.0735
10291TIP3    H252365   4.655   5.891  11.283  1.3211 -0.1553 -0.8635
10292TIP3   OH252366   5.233   2.014  16.307 -0.2745 -0.0122 -0.3579
10292TIP3    H152367   5.303   2.049  16.252  1.9135 -0.3992  1.9783
10292TIP3    H252368   5.235   1.919  16.291  0.7837 -0.2008  0.7579
10293TIP3   OH252369   1.050   5.498   3.281 -0.2769 -0.2949  0.0297
10293TIP3    H152370   1.140   5.465   3.283 -0.4320 -0.8312 -1.1443
10293TIP3    H252371   1.055   5.582   3.325  0.5324 -0.9375  1.2226
10294TIP3   OH252372   0.870   6.050   6.483  0.3619  0.0863 -0.4025
10294TIP3    H152373   0.914   6.113   6.426  1.2100  0.5669  0.7624
10294TIP3    H252374   0.809   6.004   6.425 -0.0754  1.7799 -1.3433
10295TIP3   OH252375   3.266   0.699  12.299  0.3566 -0.2341  0.0190
10295TIP3    H152376   3.186   0.669  12.257  1.6600 -1.8864 -1.4312
10295TIP3    H252377   3.282   0.637  12.370  1.4202 -1.2161 -1.0336
10296TIP3   OH252378   1.087   2.772   5.198 -0.2122 -0.0435 -0.1150
10296TIP3    H152379   1.142   2.694   5.207  0.5891  0.5139 -0.0736
10296TIP3    H252380   1.149   2.844   5.189 -0.9159  0.7744  1.3199
10297TIP3   OH252381   5.286   0.076   1.498  0.0107  0.1033 -0.1159
10297TIP3    H152382   5.305   0.003   1.557 -0.5454  0.4180  0.4638
10297TIP3    H252383   5.202   0.110   1.528 -1.0922 -0.7121 -2.0691
10298TIP3   OH252384   1.031   2.699   3.769  0.2526 -0.4414  0.6366
10298TIP3    H152385   0.969   2.753   3.720 -0.2745 -2.5391 -1.1415
10298TIP3    H252386   1.106   2.757   3.785  0.2768  0.4997 -2.3591
10299TIP3   OH252387   4.164   5.446  12.108 -0.5662 -0.3991 -0.9359
10299TIP3    H152388   4.234   5.431  12.044 -1.9733 -1.6569 -2.2636
10299TIP3    H252389   4.112   5.517  12.070  1.0011  1.9653  1.0133
10300TIP3   OH252390   4.557   1.570  10.797  0.4513  0.5130 -0.1983
10300TIP3    H152391   4.480   1.529  10.758  0.7744 -1.7560  1.3266
10300TIP3    H252392   4.533   1.662  10.809 -1.2491  0.2861 -1.5510
10301TIP3   OH252393   0.776   3.517   5.091 -0.3563  0.3559  0.1289
10301TIP3    H152394   0.722   3.467   5.152 -0.5102  0.5565  0.1586
10301TIP3    H252395   0.745   3.607   5.101  0.3841  0.5687  0.5754
10302TIP3   OH252396   2.019   3.361   3.438 -0.2142  0.1698  0.2254
10302TIP3    H152397   1.986   3.301   3.505 -2.1934  0.4779 -0.4189
10302TIP3    H252398   2.001   3.448   3.473 -1.2913  0.3318 -0.6886
10303TIP3   OH252399   4.570   2.752   0.657  0.8923  0.2093 -0.8774
10303TIP3    H152400   4.499   2.688   0.648  0.5799  0.3951  0.1726
10303TIP3    H252401   4.620   2.743   0.576 -0.3719  0.1232 -1.6705
10304TIP3   OH252402   0.340   1.883  15.836 -0.4386 -0.2625 -0.2083
10304TIP3    H152403   0.404   1.853  15.772  0.2947  2.8078 -1.0700
10304TIP3    H252404   0.309   1.967  15.802 -2.6080 -0.1518  1.7733
10305TIP3   OH252405   6.675   5.016   3.678 -0.5656 -0.3221 -0.2275
10305TIP3    H152406   6.731   4.997   3.753 -1.7854 -1.0070  0.5319
10305TIP3    H252407   6.675   5.112   3.672  1.3417 -0.3174 -0.7813
10306TIP3   OH252408   4.910   0.230  16.809 -0.1977  0.2882 -0.2500
10306TIP3    H152409   4.941   0.254  16.896 -1.7279 -0.0658  0.4205
10306TIP3    H252410   4.936   0.138  16.799 -0.6667  0.1113  0.1397
10307TIP3   OH252411   6.663   5.500  16.354  0.1521 -0.0647  0.4007
10307TIP3    H152412   6.601   5.443  16.308  1.0450 -0.1314 -0.7570
10307TIP3    H252413   6.729   5.441  16.390 -0.1128  0.0581  1.1023
10308TIP3   OH252414   6.316   2.267  11.906  0.3174 -0.6645  0.2334
10308TIP3    H152415   6.329   2.320  11.985 -2.0236 -1.6675  1.3601
10308TIP3    H252416   6.404   2.234  11.885  1.0995  0.1687  1.9862
10309TIP3   OH252417   1.414   1.608  16.576 -0.3601 -0.4725  0.1434
10309TIP3    H152418   1.435   1.701  16.586 -1.3237 -0.2572  0.2829
10309TIP3    H252419   1.492   1.562  16.608  1.3816  0.2591 -2.6651
10310TIP3   OH252420   6.134   3.161   5.608  0.2763 -0.3802 -0.2168
10310TIP3    H152421   6.059   3.125   5.655  0.5872  0.3318  0.8638
10310TIP3    H252422   6.199   3.179   5.676  1.7484 -1.6835 -1.2113
10311TIP3   OH252423   3.849   5.653  13.820 -0.5487 -0.3138 -0.5116
10311TIP3    H152424   3.900   5.734  13.817  1.3080 -1.3712  0.6628
10311TIP3    H252425   3.843   5.625  13.728  1.9189 -0.6722 -0.6170
10312TIP3   OH252426   3.645   1.298   2.562 -0.0627 -0.5337  0.6112
10312TIP3    H152427   3.635   1.299   2.657  0.5164 -0.1175  0.6685
10312TIP3    H252428   3.627   1.208   2.537 -0.8765 -0.4995  1.0443
10313TIP3   OH252429   2.781   6.453  14.238 -0.0035 -0.0863  0.2744
10313TIP3    H152430   2.701   6.500  14.259 -0.4393 -1.0651  0.8823
10313TIP3    H252431   2.842   6.478  14.308 -0.6314 -1.3351  1.3286
10314TIP3   OH252432   0.582   2.448  11.854  0.5660 -0.3635  0.2729
10314TIP3    H152433   0.614   2.362  11.882 -0.3177 -0.4377  1.1154
10314TIP3    H252434   0.631   2.511  11.907  0.3595 -0.4073  0.5165
10315TIP3   OH252435   3.373   1.055   0.090 -0.7410 -0.0313 -0.3447
10315TIP3    H152436   3.354   1.098   0.007 -1.3231 -0.3233 -0.3635
10315TIP3    H252437   3.460   1.017   0.077 -1.6031 -1.7596 -1.5432
10316TIP3   OH252438   2.305   6.108   0.137 -0.3639 -0.3361  0.4474
10316TIP3    H152439   2.299   6.150   0.051 -0.1645  0.5483  0.8550
10316TIP3    H252440   2.341   6.021   0.119  2.8349  0.9502 -0.0557
10317TIP3   OH252441   2.501   2.231   1.303 -0.6058  0.3945 -0.2694
10317TIP3    H152442   2.440   2.159   1.289 -1.0483  0.4614  1.1263
10317TIP3    H252443   2.537   2.250   1.216 -0.7203 -1.2771 -0.7157
10318TIP3   OH252444   2.012   3.039   1.333  0.3208 -0.3199  0.4592
10318TIP3    H152445   2.038   2.951   1.304 -1.0481 -1.0525  1.3279
10318TIP3    H252446   1.987   3.027   1.425  0.6741  1.1128  0.7650
10319TIP3   OH252447   3.873   4.563  14.534  0.5681  0.2476 -0.7040
10319TIP3    H152448   3.913   4.476  14.530 -0.0424  0.0172 -2.2253
10319TIP3    H252449   3.915   4.613  14.463  0.0856  0.8385 -0.5873
10320TIP3   OH252450   3.754   4.844  12.426  0.5029  0.7610 -0.1769
10320TIP3    H152451   3.836   4.804  12.454 -0.5278 -0.8583  0.7261
10320TIP3    H252452   3.750   4.926  12.475  1.0464  0.2878  0.6938
10321TIP3   OH252453   4.317   6.707   2.011  0.0701  0.0632 -0.2903
10321TIP3    H152454   4.363   6.738   1.933  1.1039 -0.7164 -0.0127
10321TIP3    H252455   4.386   6.683   2.073 -0.7248  0.4078  0.7792
10322TIP3   OH252456   1.281   0.140  12.451  0.0164 -0.2800  0.2872
10322TIP3    H152457   1.265   0.134  12.546  0.2215  2.5184  0.5848
10322TIP3    H252458   1.233   0.067  12.414 -1.3092 -0.5950  2.4372
10323TIP3   OH252459   4.733   2.594   3.228  0.1653  0.6907 -0.2031
10323TIP3    H152460   4.645   2.563   3.249  1.4604 -3.1505  0.3979
10323TIP3    H252461   4.743   2.575   3.135  0.8072 -0.2898  0.0537
10324TIP3   OH252462   0.612   1.691  14.160 -0.2197 -0.4779  0.0972
10324TIP3    H152463   0.625   1.702  14.066 -2.3948  0.2484 -0.1669
10324TIP3    H252464   0.568   1.606  14.167  0.6195 -0.8900  0.5619
10325TIP3   OH252465   5.359   3.824  16.612 -0.8597  0.0196  0.6507
10325TIP3    H152466   5.388   3.834  16.521 -0.2353 -0.0585  0.8412
10325TIP3    H252467   5.264   3.833  16.607 -0.7273  1.5607  0.1797
10326TIP3   OH252468   2.809   1.175   3.413  0.1162 -0.0960  0.3021
10326TIP3    H152469   2.868   1.212   3.347 -0.3273  1.9619  0.9904
10326TIP3    H252470   2.866   1.147   3.484  0.5649 -1.9820 -0.7192
10327TIP3   OH252471   0.856   1.157   1.416  0.0771  0.1548  0.3341
10327TIP3    H152472   0.780   1.169   1.359  1.2082  0.0301 -1.2670
10327TIP3    H252473   0.885   1.068   1.398  1.4092  0.6646 -0.1342
10328TIP3   OH252474   5.875   6.669  12.107 -0.0412  0.5085  0.4789
10328TIP3    H152475   5.903   6.757  12.084 -0.0978  0.2930 -0.4624
10328TIP3    H252476   5.883   6.619  12.026  3.1836 -1.2334  1.6667
10329TIP3   OH252477   4.794   4.316   3.176  0.4156 -0.1453 -0.4451
10329TIP3    H152478   4.888   4.328   3.170  0.3408  0.8087  0.1560
10329TIP3    H252479   4.758   4.374   3.109  0.2493 -0.4142 -0.5896
10330TIP3   OH252480   6.095   5.223  16.423  0.5373 -0.8200 -0.1840
10330TIP3    H152481   6.095   5.165  16.347 -0.4187 -0.8910 -0.1374
10330TIP3    H252482   6.034   5.182  16.484 -0.0345  0.1518 -0.0905
10331TIP3   OH252483   5.578   2.764  16.610  0.4781 -0.3638  0.2454
10331TIP3    H152484   5.558   2.758  16.517  0.1875 -1.2569  0.3560
10331TIP3    H252485   5.592   2.673  16.638  1.2308 -0.0496  0.9306
10332TIP3   OH252486   4.320   1.538   5.874 -0.1398 -0.4972  0.4431
10332TIP3    H152487   4.246   1.514   5.818 -1.6752 -0.1045  2.1719
10332TIP3    H252488   4.340   1.629   5.849  0.2770 -0.8536 -0.5516
10333TIP3   OH252489   1.848   2.888   0.982  0.3271 -0.4798  0.2256
10333TIP3    H152490   1.915   2.821   0.995  2.0283  0.8243 -1.2249
10333TIP3    H252491   1.770   2.839   0.954  1.3473 -1.8914 -0.2678
10334TIP3   OH252492   1.461   0.028  10.769 -0.1474  0.1813 -0.7494
10334TIP3    H152493   1.484  -0.017  10.688  0.4383 -0.6210 -0.1561
10334TIP3    H252494   1.367   0.012  10.779 -0.2352  0.3536 -1.3147
10335TIP3   OH252495   0.842   0.025   5.769  0.4259  0.6276 -0.5591
10335TIP3    H152496   0.845   0.082   5.846  0.8893  1.9968 -1.5473
10335TIP3    H252497   0.750   0.020   5.745  0.4349  1.4119 -0.7719
10336TIP3   OH252498   4.545   0.592  17.360 -0.2957 -0.4118  0.1146
10336TIP3    H152499   4.603   0.668  17.349 -1.0245  0.2522  0.7042
10336TIP3    H252500   4.530   0.560  17.271 -0.7729  0.7712 -0.2612
10337TIP3   OH252501   4.569   0.494  14.262 -0.5866 -0.0676  0.0044
10337TIP3    H152502   4.620   0.413  14.254 -0.0556  0.2518  0.1044
10337TIP3    H252503   4.483   0.472  14.227  0.2628  0.0040 -2.2530
10338TIP3   OH252504   5.657   5.537  11.828  0.5522  0.2908  0.4766
10338TIP3    H152505   5.609   5.473  11.881 -0.6451 -0.0404 -0.9363
10338TIP3    H252506   5.589   5.596  11.795  1.2829  0.5538 -0.5804
10339TIP3   OH252507   6.618   2.797  12.831 -0.1340 -0.2903 -0.1528
10339TIP3    H152508   6.596   2.887  12.851  0.9262 -0.2184  0.7813
10339TIP3    H252509   6.648   2.799  12.740  1.9924  0.7284  0.5042
10340TIP3   OH252510   4.772   0.121  14.532 -0.0470  0.3319  0.1632
10340TIP3    H152511   4.817   0.047  14.492 -0.6353 -0.6066  1.1870
10340TIP3    H252512   4.841   0.169  14.578  0.1715 -0.2004  0.3952
10341TIP3   OH252513   6.235   2.048  14.635 -0.7072 -0.2967 -0.3779
10341TIP3    H152514   6.315   2.001  14.657  1.4976  2.4928 -1.7586
10341TIP3    H252515   6.214   2.098  14.713 -0.0371  0.2977 -0.5677
10342TIP3   OH252516   2.102   2.248  15.789  0.3257  0.2841 -0.7304
10342TIP3    H152517   2.197   2.258  15.777  0.6003 -0.7236  0.4370
10342TIP3    H252518   2.085   2.285  15.876 -0.2833  0.0044 -0.7279
10343TIP3   OH252519   1.353   5.898   2.437  0.1657  0.0012  0.3416
10343TIP3    H152520   1.311   5.813   2.430  1.3207 -0.5159 -0.8213
10343TIP3    H252521   1.290   5.953   2.484 -0.5633 -1.4946  1.1730
10344TIP3   OH252522   4.905   6.484   1.601  0.7520 -0.1840 -0.3767
10344TIP3    H152523   4.967   6.452   1.668  1.2612  0.1613 -0.6720
10344TIP3    H252524   4.821   6.447   1.627  1.1052 -0.7862 -0.0436
10345TIP3   OH252525   6.257   0.446   3.836 -0.8017  0.0042 -0.0295
10345TIP3    H152526   6.186   0.382   3.830 -0.5056 -0.2096 -2.0358
10345TIP3    H252527   6.329   0.397   3.875 -0.1287 -1.4108 -2.7704
10346TIP3   OH252528   3.837   0.342   6.403 -0.1903  0.0950 -0.1045
10346TIP3    H152529   3.880   0.410   6.455  0.5575  1.5399 -2.4790
10346TIP3    H252530   3.890   0.263   6.419  1.0336  0.9188  0.0281
10347TIP3   OH252531   4.583   0.943   3.670  0.2513  0.1131 -0.0152
10347TIP3    H152532   4.542   0.932   3.584  0.7714 -1.0380 -0.1467
10347TIP3    H252533   4.644   0.869   3.676  1.2242  0.9514  0.7791
10348TIP3   OH252534   2.082   4.385   5.864 -0.6060  0.1386  0.3698
10348TIP3    H152535   2.089   4.431   5.948 -0.8455  0.8834 -0.0104
10348TIP3    H252536   1.998   4.339   5.869 -0.0154 -0.9067  1.0587
10349TIP3   OH252537   3.810   6.309  17.241 -0.2569  0.2203 -0.6052
10349TIP3    H152538   3.891   6.330  17.289 -0.0016 -2.5340  0.3171
10349TIP3    H252539   3.742   6.310  17.307 -0.9542  1.9286 -1.2792
10350TIP3   OH252540   5.766   0.711   5.352 -0.0834  0.0683  0.0168
10350TIP3    H152541   5.675   0.685   5.369  0.3523 -1.8777 -0.3617
10350TIP3    H252542   5.817   0.661   5.415  0.7203  1.7032  0.7213
10351TIP3   OH252543   2.671   4.300   6.120  0.0950  0.1490  0.5153
10351TIP3    H152544   2.687   4.286   6.213  0.0663 -3.3864  0.1472
10351TIP3    H252545   2.584   4.340   6.116 -0.2605 -0.4277  1.9945
10352TIP3   OH252546   4.306   0.022   1.537  0.4096  0.3293  0.0009
10352TIP3    H152547   4.369   0.073   1.486  0.5345  1.8516  1.5761
10352TIP3    H252548   4.222   0.036   1.492  0.8250 -0.0232 -0.9176
10353TIP3   OH252549   4.841   1.077   0.700 -0.1545  0.3373 -0.2135
10353TIP3    H152550   4.806   1.036   0.779  2.4799 -0.9239  0.4387
10353TIP3    H252551   4.831   1.011   0.632  0.9251 -0.0957  0.0127
10354TIP3   OH252552   1.404   6.048   4.965 -0.6787 -0.4961  0.2045
10354TIP3    H152553   1.393   6.141   4.985 -1.9074 -0.3474 -1.0249
10354TIP3    H252554   1.458   6.014   5.036 -0.4038  1.1077  0.7926
10355TIP3   OH252555   3.970   1.648   5.186 -0.1357  0.1131 -0.3056
10355TIP3    H152556   4.024   1.721   5.154 -0.3508  0.3050 -0.2271
10355TIP3    H252557   3.912   1.687   5.250  0.9057 -0.4259  1.0106
10356TIP3   OH252558   5.997   2.481  16.329  0.2620  0.1257 -0.1633
10356TIP3    H152559   5.981   2.545  16.260 -0.4739  0.1052 -0.0185
10356TIP3    H252560   5.939   2.508  16.400  0.5407 -0.2339  0.2021
10357TIP3   OH252561   5.035   0.325   5.941  0.1572  0.2846  0.8230
10357TIP3    H152562   4.995   0.269   6.007 -0.3445 -1.0194 -0.5361
10357TIP3    H252563   5.094   0.268   5.892  0.7061  1.2662  0.2898
10358TIP3   OH252564   5.688   2.524  11.815  0.1563  0.1600  0.0597
10358TIP3    H152565   5.716   2.594  11.756 -0.4789  0.5809  0.2484
10358TIP3    H252566   5.751   2.453  11.800  2.3942  1.6706  1.7112
10359TIP3   OH252567   4.363   4.845   1.424 -0.1210  0.1327 -0.5010
10359TIP3    H152568   4.309   4.791   1.483  2.1734 -0.3428  1.3104
10359TIP3    H252569   4.435   4.787   1.399  1.1050  1.6072 -0.4835
10360TIP3   OH252570   5.157   2.262   4.450  0.2665  0.1942 -0.3495
10360TIP3    H152571   5.121   2.294   4.367 -0.6326  0.6992  0.2195
10360TIP3    H252572   5.081   2.250   4.506  0.7014 -1.7611 -0.1175
10361TIP3   OH252573   4.817   3.480  12.418 -0.6470 -0.0264  0.1211
10361TIP3    H152574   4.903   3.456  12.383 -1.1285 -0.1601 -1.0073
10361TIP3    H252575   4.795   3.561  12.372 -0.7539  0.4913  1.0532
10362TIP3   OH252576   5.186   4.530  11.209 -0.1117  0.1399 -0.0176
10362TIP3    H152577   5.218   4.620  11.199  0.6899  0.4148  3.5325
10362TIP3    H252578   5.256   4.476  11.172  0.2436  0.9290 -0.5397
10363TIP3   OH252579   5.238   1.398  11.313  0.6164  0.0506  0.5082
10363TIP3    H152580   5.206   1.402  11.223 -0.1944  2.3744  0.8370
10363TIP3    H252581   5.301   1.470  11.319  1.9969 -1.1703  1.3474
10364TIP3   OH252582   3.312   2.800   2.253 -0.2486 -0.2717 -0.6555
10364TIP3    H152583   3.262   2.805   2.335  0.0290  1.1041 -0.5505
10364TIP3    H252584   3.400   2.773   2.280  0.9433  3.6754  0.0831
10365TIP3   OH252585   5.138   4.543   2.040  0.0222  0.9155 -0.0951
10365TIP3    H152586   5.128   4.548   2.135 -0.7983  2.7519 -0.2433
10365TIP3    H252587   5.051   4.564   2.005 -0.0481 -1.0635 -1.2697
10366TIP3   OH252588   2.565   5.895   4.925  0.0431  0.2008 -0.0377
10366TIP3    H152589   2.548   5.959   4.857  0.5095  1.2406  0.7946
10366TIP3    H252590   2.511   5.922   4.999 -0.9035 -1.2446 -0.1539
10367TIP3   OH252591   0.116   3.458   4.734 -0.0085 -0.6747 -0.6541
10367TIP3    H152592   0.173   3.396   4.779  2.3962  1.2384 -0.8208
10367TIP3    H252593   0.034   3.411   4.721  0.7894 -2.8740  1.5254
10368TIP3   OH252594   4.177   3.248   5.339  0.3625  0.2567 -0.2857
10368TIP3    H152595   4.247   3.197   5.298  0.9876  1.4435 -0.7514
10368TIP3    H252596   4.187   3.232   5.432  1.6610  0.8882 -0.2978
10369TIP3   OH252597   1.784   6.044  15.257 -0.0180  0.7182  0.2641
10369TIP3    H152598   1.797   5.957  15.218 -0.2092  0.8104 -0.0104
10369TIP3    H252599   1.689   6.058  15.254 -0.1352  0.3065  1.7016
10370TIP3   OH252600   1.198   6.524   4.766  0.6522  0.1753 -0.0791
10370TIP3    H152601   1.262   6.553   4.831 -0.2602  0.7027  0.6129
10370TIP3    H252602   1.146   6.458   4.811 -0.7442  1.3850  0.1565
10371TIP3   OH252603   1.463   1.881  10.863 -0.0202  0.7672  0.0456
10371TIP3    H152604   1.459   1.921  10.777  0.8587 -0.1585 -0.4429
10371TIP3    H252605   1.397   1.812  10.861  1.5738 -0.8124 -0.7506
10372TIP3   OH252606   2.935   2.673  14.663  0.4837 -0.3728 -0.2226
10372TIP3    H152607   2.954   2.754  14.710  0.6747  0.6585 -2.0061
10372TIP3    H252608   2.995   2.609  14.702 -0.5699 -0.0339  2.1032
10373TIP3   OH252609   2.351   5.760  15.328 -0.0733  0.5165  0.0182
10373TIP3    H152610   2.301   5.718  15.397 -1.0050  1.7962  0.1424
10373TIP3    H252611   2.286   5.781  15.261  0.4197  1.4733 -0.1725
10374TIP3   OH252612   6.444   2.608  16.084 -0.0125 -0.5959 -0.0282
10374TIP3    H152613   6.519   2.651  16.126 -1.3437  0.3012  1.5856
10374TIP3    H252614   6.482   2.550  16.019  2.0568  0.1116  0.4833
10375TIP3   OH252615   2.885   3.801   5.734 -0.3875 -0.1364 -0.0057
10375TIP3    H152616   2.822   3.736   5.701  1.0852 -0.8912 -1.4801
10375TIP3    H252617   2.971   3.764   5.712  0.5420  1.6297  0.4855
10376TIP3   OH252618   0.113   1.341  11.524 -0.8143 -0.1696  0.4573
10376TIP3    H152619   0.175   1.268  11.526  1.1501  1.3753 -0.5218
10376TIP3    H252620   0.059   1.324  11.448  0.8825  0.2819 -0.9195
10377TIP3   OH252621   1.674   2.347  12.959  0.3260  1.0455  0.0706
10377TIP3    H152622   1.693   2.255  12.978 -2.6458  0.4282  0.5779
10377TIP3    H252623   1.735   2.396  13.014  1.5103 -0.6098  0.3153
10378TIP3   OH252624   0.213   2.700  14.539  0.0216  0.0536 -0.5884
10378TIP3    H152625   0.158   2.746  14.477 -0.9081  0.2332  0.3519
10378TIP3    H252626   0.181   2.610  14.537 -0.1850  0.1155 -0.1876
10379TIP3   OH252627   5.547   1.759  14.202 -0.7085 -0.0811  0.2106
10379TIP3    H152628   5.586   1.682  14.243  2.0465  1.1001  0.0219
10379TIP3    H252629   5.525   1.817  14.275 -1.5625 -0.4828  0.2833
10380TIP3   OH252630   1.274   1.802  14.542  0.1557 -0.1911  0.3543
10380TIP3    H152631   1.271   1.845  14.457 -0.8216 -1.4293 -0.2604
10380TIP3    H252632   1.359   1.760  14.546  0.1883 -0.1592 -0.0240
10381TIP3   OH252633   5.062   4.310  15.122 -0.0560 -0.0037 -0.3135
10381TIP3    H152634   5.077   4.398  15.156 -1.1069 -0.6568  1.9899
10381TIP3    H252635   4.972   4.311  15.089  0.1820 -0.0371 -0.9972
10382TIP3   OH252636   3.201   2.466   2.669 -0.6032  0.1672  0.0145
10382TIP3    H152637   3.212   2.415   2.749 -2.0785  0.3430  0.3544
10382TIP3    H252638   3.281   2.517   2.661 -0.2401 -0.2158  1.1171
10383TIP3   OH252639   4.841   5.718   1.159  0.2255 -0.5055 -0.6043
10383TIP3    H152640   4.786   5.794   1.137  0.0863 -0.7209 -1.0220
10383TIP3    H252641   4.889   5.700   1.078  0.9058 -0.3275 -0.2425
10384TIP3   OH252642   1.390   1.847   2.738 -0.7487  0.9247  0.2692
10384TIP3    H152643   1.366   1.798   2.816  0.6870 -0.9944 -0.4213
10384TIP3    H252644   1.451   1.790   2.691  0.6706  3.1750 -0.8335
10385TIP3   OH252645   1.122   1.710  11.862  0.7160  0.2904  0.0853
10385TIP3    H152646   1.054   1.643  11.848  0.9352  0.7511 -5.4385
10385TIP3    H252647   1.073   1.792  11.868  0.6320  0.2584 -0.1359
10386TIP3   OH252648   2.625   4.220   6.380  0.7830 -0.0902  0.0977
10386TIP3    H152649   2.534   4.209   6.408  0.6147  0.6443 -0.1372
10386TIP3    H252650   2.664   4.274   6.449  1.1431 -0.6942  0.3784
10387TIP3   OH252651   0.980   0.813  15.349  0.2107  0.7961  0.4571
10387TIP3    H152652   0.970   0.720  15.371  0.6363  0.5515 -0.3517
10387TIP3    H252653   1.027   0.813  15.266 -1.7631  1.6757 -0.7132
10388TIP3   OH252654   2.436   2.338   1.038 -0.0166  0.9326  0.7254
10388TIP3    H152655   2.426   2.417   0.986  0.8730  0.8339  0.4029
10388TIP3    H252656   2.523   2.305   1.017 -0.4926 -0.3072  0.6080
10389TIP3   OH252657   0.790   5.597   6.333  0.0684 -0.1954  0.2460
10389TIP3    H152658   0.814   5.668   6.274 -0.8478  0.7023  0.9186
10389TIP3    H252659   0.738   5.538   6.278 -0.3327  0.3626  0.0081
10390TIP3   OH252660   0.366   6.369   0.518 -0.0054 -0.2360  0.4228
10390TIP3    H152661   0.308   6.441   0.492  1.3219  1.1678  1.1588
10390TIP3    H252662   0.447   6.385   0.468  0.1436 -1.5419  0.2089
10391TIP3   OH252663   0.977   4.384   3.829  0.1429 -0.3894 -0.3576
10391TIP3    H152664   0.945   4.355   3.743  2.3035  1.5674 -1.9361
10391TIP3    H252665   0.902   4.429   3.868 -0.3548  0.3211 -2.0398
10392TIP3   OH252666   3.571   2.131   2.416 -0.3944  0.2816  0.4997
10392TIP3    H152667   3.515   2.206   2.434  2.6795  2.1209  3.6095
10392TIP3    H252668   3.630   2.161   2.346 -1.5553 -0.7469 -0.9887
10393TIP3   OH252669   6.516   5.960  11.672  0.0271  0.4095  0.1225
10393TIP3    H152670   6.504   6.031  11.610 -1.6852 -0.9268 -1.1659
10393TIP3    H252671   6.588   5.908  11.636 -1.0959 -0.4759 -0.9131
10394TIP3   OH252672   0.942   2.156   5.151 -0.0984 -0.0124 -1.0070
10394TIP3    H152673   0.922   2.124   5.239 -1.5065  0.5299 -1.0919
10394TIP3    H252674   1.030   2.124   5.133  0.8031  1.0576  1.1530
10395TIP3   OH252675   6.194   0.389   6.825  0.0262  0.0572 -0.0825
10395TIP3    H152676   6.273   0.414   6.777  0.1261  1.1061  0.5934
10395TIP3    H252677   6.211   0.300   6.855  1.7260  0.8666  1.5563
10396TIP3   OH252678   0.539   2.955   0.860 -0.3292  0.4034  0.3088
10396TIP3    H152679   0.503   3.017   0.797 -0.1385 -0.5795 -0.8176
10396TIP3    H252680   0.544   2.872   0.812 -0.7544 -0.5423  1.8103
10397TIP3   OH252681   0.349   2.815   6.179 -0.4227  0.4015  0.7194
10397TIP3    H152682   0.277   2.858   6.133 -0.5339 -0.8290 -0.3121
10397TIP3    H252683   0.425   2.871   6.163 -0.4745  0.0247 -0.9416
10398TIP3   OH252684   3.662   2.268   3.435  0.1045 -0.4452  0.0061
10398TIP3    H152685   3.603   2.247   3.363 -0.2326 -0.9878  0.4327
10398TIP3    H252686   3.749   2.243   3.404  0.7914  3.6364 -2.0632
10399TIP3   OH252687   2.999   1.026  13.628 -0.2400  0.4061 -0.1524
10399TIP3    H152688   2.905   1.046  13.620 -0.1857 -0.0505 -2.9242
10399TIP3    H252689   3.003   0.930  13.631  0.1070  0.4473  0.9930
10400TIP3   OH252690   6.623   5.032   4.433 -0.2927 -0.2783  0.0232
10400TIP3    H152691   6.600   5.094   4.364 -2.0141 -0.1811  0.6242
10400TIP3    H252692   6.584   4.949   4.405  0.4337 -0.6520  0.0944
10401TIP3   OH252693   5.741   2.335   2.788 -0.5027  0.1563 -0.2485
10401TIP3    H152694   5.792   2.255   2.780  0.8933  1.0088 -0.2356
10401TIP3    H252695   5.756   2.364   2.878 -2.0846 -0.2473  0.1724
10402TIP3   OH252696   4.694   4.721  16.611  0.3649  0.4244  0.3088
10402TIP3    H152697   4.618   4.746  16.664  1.5450  1.9860  1.3314
10402TIP3    H252698   4.749   4.669  16.670  0.0594 -0.8634 -0.4841
10403TIP3   OH252699   3.155   2.600   5.638  0.0290  0.0648  0.0104
10403TIP3    H152700   3.194   2.521   5.675  1.1479  0.6188  0.0745
10403TIP3    H252701   3.175   2.595   5.544 -1.2009 -0.4419 -0.2388
10404TIP3   OH252702   2.131   4.260   4.677  0.0245  0.3289 -0.3894
10404TIP3    H152703   2.115   4.285   4.586  0.4203  1.9008 -0.0477
10404TIP3    H252704   2.209   4.308   4.702  0.4945 -0.8535  0.5051
10405TIP3   OH252705   3.743   0.981   2.374  0.0100  0.0871 -0.6464
10405TIP3    H152706   3.815   0.952   2.318  0.9125 -1.0196  1.0119
10405TIP3    H252707   3.757   0.935   2.457 -1.8088  0.9510  0.1906
10406TIP3   OH252708   6.771   2.179  15.703 -0.4933 -0.5390  0.6835
10406TIP3    H152709   6.680   2.198  15.679 -0.3315 -0.9461 -0.3302
10406TIP3    H252710   6.787   2.232  15.781 -0.8502  1.4466 -0.5116
10407TIP3   OH252711   1.045   3.148   1.451 -0.2306 -0.5468 -0.1177
10407TIP3    H152712   0.963   3.131   1.497  0.6523 -0.8286  1.4559
10407TIP3    H252713   1.113   3.122   1.514  1.0878  1.3157 -0.6924
10408TIP3   OH252714   1.440   6.325   0.253 -0.2087  0.0339  0.2661
10408TIP3    H152715   1.412   6.298   0.166 -1.6484 -0.1037  0.7405
10408TIP3    H252716   1.373   6.388   0.281  0.1839  0.0096  1.3034
10409TIP3   OH252717   3.660   5.908  11.261 -0.0184 -0.1248 -0.1623
10409TIP3    H152718   3.568   5.932  11.272 -0.9956 -2.9190 -1.3822
10409TIP3    H252719   3.685   5.867  11.343 -0.0451  0.0541 -0.0638
10410TIP3   OH252720   1.120   4.867  16.072  0.3989 -0.9186  0.2910
10410TIP3    H152721   1.104   4.950  16.118  1.3235  0.2700 -1.4063
10410TIP3    H252722   1.177   4.818  16.131  2.1483  0.8663  0.1965
10411TIP3   OH252723   4.653   5.164  13.893 -0.6973  0.2670  0.6561
10411TIP3    H152724   4.724   5.175  13.829 -0.7188 -1.3798  0.2980
10411TIP3    H252725   4.632   5.253  13.921  0.7785  0.8666 -0.0259
10412TIP3   OH252726   5.607   0.555  12.196  0.1131 -0.1795  0.4321
10412TIP3    H152727   5.522   0.588  12.227 -0.3026 -1.4537  0.7092
10412TIP3    H252728   5.614   0.467  12.234  2.0636  0.2981  1.3179
10413TIP3   OH252729   3.303   5.046  14.291 -0.0063 -0.2900  0.4656
10413TIP3    H152730   3.350   5.059  14.373 -1.9966 -1.3948  1.8503
10413TIP3    H252731   3.348   5.102  14.228  3.0554 -1.1814  1.6957
10414TIP3   OH252732   6.484   1.500   2.301 -0.7605  0.3361 -0.4888
10414TIP3    H152733   6.529   1.497   2.216 -0.3958  0.0415 -0.2866
10414TIP3    H252734   6.544   1.548   2.358  0.0829 -1.5283  0.2467
10415TIP3   OH252735   0.095   6.192   5.179 -0.6586 -0.8464  0.3792
10415TIP3    H152736   0.188   6.195   5.160 -0.3780 -1.1917  1.6471
10415TIP3    H252737   0.063   6.280   5.160 -0.0059 -0.6148  0.3504
10416TIP3   OH252738   0.347   2.755   0.391 -0.0139 -0.2201  0.2851
10416TIP3    H152739   0.331   2.707   0.473  0.1433 -0.9944 -0.1330
10416TIP3    H252740   0.302   2.704   0.324 -0.0358  0.3449 -0.1383
10417TIP3   OH252741   1.753   6.450  11.760  0.0375 -0.1845  0.6392
10417TIP3    H152742   1.826   6.390  11.742 -1.2842 -1.8816  0.7367
10417TIP3    H252743   1.674   6.396  11.748 -1.3710  2.1862 -2.0699
10418TIP3   OH252744   2.800   0.488   5.555  0.5327 -0.1080 -0.5729
10418TIP3    H152745   2.718   0.536   5.558  0.8770  0.4248  1.2597
10418TIP3    H252746   2.774   0.396   5.552 -0.1243  0.0724 -0.5458
10419TIP3   OH252747   2.572   6.587  13.000 -0.0262  0.1891  0.4036
10419TIP3    H152748   2.666   6.605  13.008 -0.1113  0.7580  0.1355
10419TIP3    H252749   2.562   6.552  12.911 -0.2462  1.2758 -0.0055
10420TIP3   OH252750   2.564   1.829  13.714  0.2278  0.8078  0.2796
10420TIP3    H152751   2.636   1.787  13.668 -0.2527  1.2691 -0.9297
10420TIP3    H252752   2.574   1.922  13.694 -1.9531  0.6728 -1.7762
10421TIP3   OH252753   2.662   5.506  16.247 -0.6449 -0.0787  0.4393
10421TIP3    H152754   2.625   5.581  16.200  0.1148  0.7785  1.1570
10421TIP3    H252755   2.721   5.465  16.184 -0.2578  0.5683  0.3756
10422TIP3   OH252756   1.968   3.577  11.942  0.3826  0.5590 -0.1547
10422TIP3    H152757   2.042   3.630  11.912  0.5473  0.9292  0.8686
10422TIP3    H252758   1.994   3.487  11.923  1.1156  0.6807  0.2242
10423TIP3   OH252759   5.126   3.979   0.983  0.0852 -0.0999 -0.1222
10423TIP3    H152760   5.213   3.940   0.971  0.1453  0.3971 -1.4147
10423TIP3    H252761   5.067   3.917   0.940 -0.0943  0.0645 -0.1108
10424TIP3   OH252762   1.937   3.334   0.799  0.1130  0.6988 -0.2336
10424TIP3    H152763   1.884   3.319   0.877  1.9009 -0.7989  0.7580
10424TIP3    H252764   1.988   3.253   0.788  1.1792  1.5368 -1.9503
10425TIP3   OH252765   4.410   1.664  16.147  0.3658 -0.2499 -0.1454
10425TIP3    H152766   4.370   1.583  16.115 -0.9701 -0.6468  2.3185
10425TIP3    H252767   4.339   1.728  16.144  0.3355 -0.1697  1.3667
10426TIP3   OH252768   2.839   5.799   5.490 -0.8442  0.2507  0.4877
10426TIP3    H152769   2.826   5.877   5.436  0.9941  0.4167  0.2065
10426TIP3    H252770   2.933   5.798   5.508 -0.6918 -2.2070  0.0139
10427TIP3   OH252771   3.707   5.334   1.654 -0.0706  0.6848 -0.3133
10427TIP3    H152772   3.721   5.305   1.564  0.4830  1.8340 -0.6248
10427TIP3    H252773   3.633   5.282   1.685 -2.2192  2.2707 -2.4321
10428TIP3   OH252774   3.372   5.992  10.083  0.6012 -0.4149 -0.3069
10428TIP3    H152775   3.411   5.917  10.128  1.4538  0.5743  0.6678
10428TIP3    H252776   3.366   6.060  10.150 -0.8040  0.1870 -0.9911
10429TIP3   OH252777   6.452   6.679  13.076 -0.8974  0.0592  0.2456
10429TIP3    H152778   6.427   6.612  13.013  0.6891 -0.1935 -0.1789
10429TIP3    H252779   6.527   6.641  13.122 -1.1911  0.7814  1.3511
10430TIP3   OH252780   1.324   6.626  14.906 -0.0426 -0.4242  0.1096
10430TIP3    H152781   1.292   6.716  14.915 -0.2382 -0.4481 -0.3361
10430TIP3    H252782   1.407   6.635  14.860  0.6922 -0.3486  1.4033
10431TIP3   OH252783   1.279   3.024  12.218 -0.2822 -0.3362  0.3518
10431TIP3    H152784   1.259   3.045  12.309 -0.3921  1.0160  0.0467
10431TIP3    H252785   1.193   3.014  12.176 -0.2636  0.5058  0.0963
10432TIP3   OH252786   4.726   5.342   1.719 -0.0403  0.5908 -0.1971
10432TIP3    H152787   4.732   5.295   1.802 -2.7953 -1.4498 -1.0154
10432TIP3    H252788   4.665   5.414   1.737  0.2349  0.8247 -0.1935
10433TIP3   OH252789   2.396   6.699   4.243 -0.2517  0.0842  0.8622
10433TIP3    H152790   2.321   6.661   4.196 -0.1621  2.1462 -1.1094
10433TIP3    H252791   2.469   6.639   4.224 -0.4834  0.2829 -0.7673
10434TIP3   OH252792   0.833   0.628   1.703 -0.6713 -0.3142  0.4336
10434TIP3    H152793   0.762   0.580   1.746 -0.4394 -1.2663 -0.2280
10434TIP3    H252794   0.898   0.561   1.682 -0.2274  0.3304 -0.2874
10435TIP3   OH252795   2.244   0.824  12.417  0.7663 -0.1626 -0.4302
10435TIP3    H152796   2.260   0.730  12.420  0.9534 -0.1065  0.4673
10435TIP3    H252797   2.321   0.859  12.372 -0.0002 -0.5728 -2.1389
10436TIP3   OH252798   2.098   1.163   0.983 -0.2067  0.4259 -0.2431
10436TIP3    H152799   2.043   1.102   1.033  0.4375  0.8017  0.9765
10436TIP3    H252800   2.040   1.235   0.960 -0.4936  0.3002  0.0772
10437TIP3   OH252801   6.501   5.475  11.866 -0.5315 -0.2643  0.0265
10437TIP3    H152802   6.485   5.542  11.800 -0.1256 -1.4064 -1.2948
10437TIP3    H252803   6.415   5.460  11.906 -1.1381 -0.6482 -1.3599
10438TIP3   OH252804   5.906   5.957  15.284 -0.0199 -0.2581 -0.5571
10438TIP3    H152805   5.854   5.968  15.205  0.4816 -0.5185 -0.9278
10438TIP3    H252806   5.980   5.901  15.257 -0.1615 -0.8466  0.2296
10439TIP3   OH252807   2.624   2.609  15.382  0.0944  0.2515 -0.3117
10439TIP3    H152808   2.609   2.601  15.288  1.2854 -1.3156 -0.4124
10439TIP3    H252809   2.695   2.673  15.390  0.2869  0.0650 -0.5164
10440TIP3   OH252810   0.471   3.695  13.368  0.6088  0.3630 -0.0118
10440TIP3    H152811   0.503   3.716  13.455  0.7855 -0.0598  0.0286
10440TIP3    H252812   0.427   3.774  13.338  2.1368  1.1647 -0.2725
10441TIP3   OH252813   6.378   5.814  16.383  0.4786 -0.0900 -0.5752
10441TIP3    H152814   6.368   5.752  16.311  2.2853  1.1111 -1.9604
10441TIP3    H252815   6.352   5.899  16.346 -0.9482  0.1816  0.9586
10442TIP3   OH252816   1.771   4.607  13.931 -0.8411 -0.3277 -0.4755
10442TIP3    H152817   1.745   4.693  13.897  0.7738  0.3082 -0.1638
10442TIP3    H252818   1.699   4.549  13.906 -1.2734  0.8090 -2.0162
10443TIP3   OH252819   5.096   2.866   3.426 -0.6082 -0.2196 -0.4182
10443TIP3    H152820   5.100   2.827   3.338  0.0214 -0.5572 -0.2455
10443TIP3    H252821   5.185   2.895   3.444 -1.2605  2.4414 -1.0237
10444TIP3   OH252822   2.593   5.923   0.581  0.4211  0.1769  0.4010
10444TIP3    H152823   2.599   5.860   0.509  0.3381  0.3224  0.2640
10444TIP3    H252824   2.623   6.005   0.542 -0.8804  0.5598  0.1499
10445TIP3   OH252825   5.261   2.479   1.387  0.0543  0.3472  0.3713
10445TIP3    H152826   5.314   2.442   1.458  0.0761 -0.3434 -0.0028
10445TIP3    H252827   5.252   2.408   1.324 -0.7797  0.6603  0.1303
10446TIP3   OH252828   3.276   2.400   5.774  0.0390  0.1550  0.5677
10446TIP3    H152829   3.339   2.446   5.829  1.5081 -1.2062  0.0846
10446TIP3    H252830   3.318   2.317   5.753 -1.3770 -0.2549 -0.8513
10447TIP3   OH252831   2.600   1.045   0.134 -0.3330 -0.3453  0.2749
10447TIP3    H152832   2.665   1.006   0.076 -0.5623  0.8454 -0.8383
10447TIP3    H252833   2.651   1.079   0.207  0.1378 -0.6506  0.0942
10448TIP3   OH252834   6.359   2.731  12.934 -0.3220 -0.5453 -0.3278
10448TIP3    H152835   6.436   2.734  12.877 -0.1339 -3.1215 -0.3049
10448TIP3    H252836   6.285   2.743  12.875 -0.0083  0.8842 -0.4872
10449TIP3   OH252837   3.146   1.262  12.034  1.1524 -0.5058  0.1441
10449TIP3    H152838   3.102   1.226  12.111 -1.2484  2.4198  0.3317
10449TIP3    H252839   3.192   1.339  12.067 -2.9965  3.1178 -1.5791
10450TIP3   OH252840   6.440   3.351   5.185  0.2360  0.2564  0.0072
10450TIP3    H152841   6.419   3.293   5.112 -0.2947  0.7361 -0.2317
10450TIP3    H252842   6.354   3.380   5.218  0.4757  0.2870  0.6231
10451TIP3   OH252843   3.528   6.508  17.243 -0.1162  0.4627  0.2440
10451TIP3    H152844   3.469   6.583  17.252 -1.4630 -0.7431  2.0292
10451TIP3    H252845   3.483   6.436  17.287  2.3419 -0.7235  1.0168
10452TIP3   OH252846   5.303   3.741   1.173  0.3115 -0.4482 -0.7332
10452TIP3    H152847   5.357   3.815   1.144  1.4376 -0.8262  0.2780
10452TIP3    H252848   5.366   3.670   1.185 -0.4816 -1.0310  0.0709
10453TIP3   OH252849   6.024   3.129  13.487 -0.0356  0.6180 -0.3991
10453TIP3    H152850   6.086   3.200  13.473 -0.0671  0.3840 -1.9563
10453TIP3    H252851   5.962   3.136  13.414  0.5250 -1.5354 -1.1874
10454TIP3   OH252852   4.741   1.117   1.916 -0.0686 -0.3939 -0.1579
10454TIP3    H152853   4.706   1.207   1.911  0.4198 -0.2088 -0.3219
10454TIP3    H252854   4.818   1.125   1.972 -0.1714 -0.7625  0.0333
10455TIP3   OH252855   4.750   6.759  14.172  0.0133  0.8028 -0.5846
10455TIP3    H152856   4.739   6.701  14.097 -1.7583  0.6651 -0.2567
10455TIP3    H252857   4.785   6.840  14.134 -2.0867  1.1942 -1.7953
10456TIP3   OH252858   2.140   1.223  16.035  0.3083 -0.2288  0.2670
10456TIP3    H152859   2.216   1.244  15.981  0.2850  0.5770  0.5295
10456TIP3    H252860   2.170   1.236  16.125 -0.4830  1.4231  0.3374
10457TIP3   OH252861   2.174   5.417  15.666  0.2129 -0.1851  0.0858
10457TIP3    H152862   2.092   5.383  15.702 -0.8336  2.0637  0.0175
10457TIP3    H252863   2.228   5.435  15.743 -0.3345  0.5741  0.3097
10458TIP3   OH252864   4.337   5.635   2.203  0.0083  1.1065  0.2910
10458TIP3    H152865   4.316   5.541   2.208 -0.7649  1.1942 -0.8420
10458TIP3    H252866   4.299   5.672   2.282 -1.6568  0.7929 -0.3269
10459TIP3   OH252867   2.618   3.377   3.885  0.4117 -0.0743 -0.2790
10459TIP3    H152868   2.702   3.336   3.865  0.4323  0.1788 -0.7237
10459TIP3    H252869   2.641   3.453   3.939  0.3367 -0.8953  0.9257
10460TIP3   OH252870   1.972   4.698   0.260  0.5511  0.5780 -0.8242
10460TIP3    H152871   1.976   4.772   0.321  0.7237  0.9789 -1.3166
10460TIP3    H252872   2.043   4.640   0.288  0.5209  0.6732 -0.5410
10461TIP3   OH252873   5.317   1.990  12.273 -0.1879  0.5948 -0.4202
10461TIP3    H152874   5.258   2.029  12.337 -1.1586  0.4216 -1.1762
10461TIP3    H252875   5.405   2.003  12.309 -0.7559 -1.3197  1.9627
10462TIP3   OH252876   1.931   1.234  12.478 -0.2942 -0.3601 -0.4040
10462TIP3    H152877   1.968   1.153  12.513 -0.3849 -0.6453 -0.9607
10462TIP3    H252878   1.859   1.205  12.422 -0.0914  0.0793 -0.9031
10463TIP3   OH252879   0.693   5.685  13.484 -0.0848 -0.0319 -0.1891
10463TIP3    H152880   0.631   5.631  13.533  2.0433 -2.1094  0.4396
10463TIP3    H252881   0.693   5.647  13.396 -1.9149  1.9735 -1.1325
10464TIP3   OH252882   3.374   3.436  15.091  1.1075 -0.2557 -0.1360
10464TIP3    H152883   3.308   3.370  15.109  0.8143 -0.0867 -0.5499
10464TIP3    H252884   3.383   3.435  14.995  1.3292  0.0810 -0.1210
10465TIP3   OH252885   1.739   3.963  16.695  0.1815  0.1006 -0.6407
10465TIP3    H152886   1.793   3.975  16.773  0.1108  1.3744 -0.7648
10465TIP3    H252887   1.728   3.869  16.688  0.2704 -0.0403  0.8294
10466TIP3   OH252888   2.343   0.359  16.426  0.0788  0.0035 -0.3551
10466TIP3    H152889   2.325   0.291  16.491  0.0539  0.9832  0.7060
10466TIP3    H252890   2.310   0.323  16.343 -0.7670 -0.8985  0.3487
10467TIP3   OH252891   4.391   2.868  13.478  0.4352 -0.1597 -0.0555
10467TIP3    H152892   4.468   2.820  13.510  0.2448 -1.1048 -0.9849
10467TIP3    H252893   4.414   2.893  13.388  0.1599  0.6963  0.1011
10468TIP3   OH252894   6.660   0.947   6.301 -0.1507  0.0622  0.1122
10468TIP3    H152895   6.631   0.858   6.318 -2.1415  0.5911 -0.3038
10468TIP3    H252896   6.586   1.002   6.327  1.3584  1.6833  1.2518
10469TIP3   OH252897   6.081   2.154   3.012  0.0893 -0.2587  0.0899
10469TIP3    H152898   6.126   2.238   3.020  0.0232 -0.2544  0.3966
10469TIP3    H252899   6.150   2.088   3.024  1.0708 -0.3484 -4.2466
10470TIP3   OH252900   0.835   1.536  16.658 -0.7058  0.6830 -0.3089
10470TIP3    H152901   0.837   1.608  16.720  1.8974 -0.9951  1.8128
10470TIP3    H252902   0.872   1.573  16.577 -0.6979  2.0470  0.3009
10471TIP3   OH252903   1.156   3.713  12.341  0.0930  0.4378 -0.1359
10471TIP3    H152904   1.175   3.802  12.309  0.2602  1.4008  2.3962
10471TIP3    H252905   1.075   3.723  12.391 -0.7991 -1.2382 -1.1700
10472TIP3   OH252906   1.968   1.702   6.206 -0.8289 -0.6357  0.2203
10472TIP3    H152907   1.894   1.717   6.147 -1.9895 -1.8460  1.2991
10472TIP3    H252908   1.951   1.616   6.244  0.9687 -0.7816  0.7714
10473TIP3   OH252909   5.388   0.701   3.905 -0.4473  0.3317 -0.2665
10473TIP3    H152910   5.323   0.690   3.974 -0.8126  2.4888 -0.1722
10473TIP3    H252911   5.467   0.729   3.951  0.0085 -0.4743 -0.5430
10474TIP3   OH252912   4.894   5.565  13.941 -0.2937 -0.4888  0.1393
10474TIP3    H152913   4.901   5.627  14.013 -1.6029  0.1680 -0.2688
10474TIP3    H252914   4.984   5.553  13.910 -0.0263  1.3693  0.0891
10475TIP3   OH252915   6.762   2.793  17.296 -0.4828  0.4582 -0.1198
10475TIP3    H152916   6.777   2.874  17.345 -1.4278  1.5517 -1.5741
10475TIP3    H252917   6.670   2.773  17.308  0.2463 -2.1024  2.6046
10476TIP3   OH252918   5.135   4.432  13.092  0.0176  0.1679  0.1264
10476TIP3    H152919   5.040   4.439  13.083 -0.2388 -2.5711 -0.3656
10476TIP3    H252920   5.169   4.451  13.005 -0.4502 -2.1250 -0.6489
10477TIP3   OH252921   1.550   4.300   2.057 -0.4134  0.3788 -0.0919
10477TIP3    H152922   1.568   4.355   1.981 -0.4602 -0.4831 -0.7296
10477TIP3    H252923   1.455   4.291   2.058 -0.5211  1.3313  0.7551
10478TIP3   OH252924   1.385   2.936  16.687  0.0706  0.4578  0.2804
10478TIP3    H152925   1.354   2.883  16.614 -2.3642  1.6750  0.3296
10478TIP3    H252926   1.393   3.025  16.651 -1.2851  1.1095  1.4660
10479TIP3   OH252927   0.105   6.057   4.176  0.3861  0.1244  0.0415
10479TIP3    H152928   0.092   6.049   4.270  0.5233 -0.9273 -0.0274
10479TIP3    H252929   0.129   5.970   4.146 -2.3804 -0.2652 -1.3862
10480TIP3   OH252930   5.251   1.849  17.463 -0.0135 -0.3130 -0.6403
10480TIP3    H152931   5.263   1.840  17.558 -0.3863  0.9161 -0.4449
10480TIP3    H252932   5.261   1.761  17.428 -0.2043 -0.8404  0.5868
10481TIP3   OH252933   0.386   6.726  16.176  0.7644 -0.3575  0.2932
10481TIP3    H152934   0.293   6.746  16.181  0.8177 -0.3482  1.5912
10481TIP3    H252935   0.391   6.631  16.185  0.9784 -0.1876  2.2402
10482TIP3   OH252936   4.755   1.053   5.165  0.1166  0.2768  0.1165
10482TIP3    H152937   4.749   1.024   5.074 -4.0217  0.6426  0.1136
10482TIP3    H252938   4.740   1.147   5.162 -0.7779  0.1909  1.2128
10483TIP3   OH252939   4.388   0.887   2.782  0.1233  0.6428  0.0544
10483TIP3    H152940   4.300   0.914   2.809  0.5520  2.0013  0.1690
10483TIP3    H252941   4.398   0.926   2.695  0.4149  0.0237 -0.1940
10484TIP3   OH252942   2.306   1.857  12.416  0.1093 -0.1679 -0.3454
10484TIP3    H152943   2.365   1.857  12.492  0.6850 -1.2030 -0.7591
10484TIP3    H252944   2.257   1.775  12.425 -0.7563  0.3319 -0.4085
10485TIP3   OH252945   2.154   0.969   4.137 -0.1308 -0.1057  0.4382
10485TIP3    H152946   2.109   1.053   4.131 -0.9261 -0.6020 -3.0602
10485TIP3    H252947   2.085   0.907   4.162 -0.6146 -0.2760 -1.1618
10486TIP3   OH252948   1.814   1.545   2.048  0.6718 -0.2359 -0.7622
10486TIP3    H152949   1.858   1.630   2.044 -1.8113  1.2062  0.3624
10486TIP3    H252950   1.780   1.539   2.137 -0.7156 -1.6084 -1.3293
10487TIP3   OH252951   2.294   0.824  15.001 -0.1291  0.0148  0.1683
10487TIP3    H152952   2.336   0.896  14.954 -0.4260  0.3898  0.4773
10487TIP3    H252953   2.285   0.856  15.091 -0.5772 -0.2741  0.2279
10488TIP3   OH252954   1.487   4.195  11.576 -0.2733  0.7618 -0.2558
10488TIP3    H152955   1.525   4.153  11.498  0.7336  1.5032 -0.1899
10488TIP3    H252956   1.403   4.229  11.546 -0.9324 -0.9347 -0.4109
10489TIP3   OH252957   2.437   4.221   5.643  0.2878  0.0524  0.2662
10489TIP3    H152958   2.342   4.215   5.647  0.2652  0.7508  1.8978
10489TIP3    H252959   2.457   4.302   5.691  1.8186 -1.2960  2.0267
10490TIP3   OH252960   0.764   0.524  15.642  0.4634  0.4016  0.1774
10490TIP3    H152961   0.748   0.475  15.561 -0.7205 -1.8436  1.6634
10490TIP3    H252962   0.678   0.559  15.666  0.5888  0.1357  1.0167
10491TIP3   OH252963   1.853   0.500  13.932 -0.0286 -0.3164 -0.0930
10491TIP3    H152964   1.896   0.559  13.995  0.9512 -1.4160  0.3101
10491TIP3    H252965   1.760   0.511  13.949 -0.0315  2.3769 -1.1952
10492TIP3   OH252966   6.334   5.949  12.134  0.2709  0.7776 -0.2644
10492TIP3    H152967   6.283   5.996  12.068  0.3657 -1.2408 -1.8791
10492TIP3    H252968   6.393   5.894  12.083 -0.8644 -2.1944  1.3872
10493TIP3   OH252969   6.705   5.389   4.408  0.5596 -0.6396 -0.1855
10493TIP3    H152970   6.780   5.444   4.387  0.2665 -0.5777 -1.0950
10493TIP3    H252971   6.657   5.381   4.326 -0.0991 -1.1879  0.2422
10494TIP3   OH252972   0.791   4.032   1.812  0.0211 -0.0591 -0.1640
10494TIP3    H152973   0.705   4.046   1.850  0.4394 -0.0986  0.8094
10494TIP3    H252974   0.775   4.028   1.717 -1.1430 -0.8204  0.0514
10495TIP3   OH252975   5.294   0.976   1.000 -0.2470  0.5329 -1.0713
10495TIP3    H152976   5.377   1.019   1.022 -1.0122  1.1007  0.9991
10495TIP3    H252977   5.231   1.048   0.994 -1.0840 -0.0588  0.1145
10496TIP3   OH252978   5.319   6.093   3.862  0.0818 -0.1639  0.6576
10496TIP3    H152979   5.311   5.998   3.855  0.3424 -0.1100 -0.6052
10496TIP3    H252980   5.347   6.121   3.775 -0.6423  1.1370  0.8203
10497TIP3   OH252981   3.402   4.863  11.694 -0.1922  0.2882  0.5747
10497TIP3    H152982   3.428   4.786  11.643  1.2319 -0.4986  2.3736
10497TIP3    H252983   3.306   4.862  11.693 -0.1955 -0.7084 -0.5483
10498TIP3   OH252984   2.694   4.937   3.029  0.0853  0.4604 -0.8761
10498TIP3    H152985   2.702   4.842   3.023  0.6752  0.4866 -0.5775
10498TIP3    H252986   2.774   4.965   3.073 -0.6658  0.9744  0.2010
10499TIP3   OH252987   0.525   4.261  16.891 -0.5781 -0.2919 -0.0386
10499TIP3    H152988   0.476   4.197  16.943  0.1712 -0.7457  0.1197
10499TIP3    H252989   0.495   4.246  16.801  1.1204 -2.3586 -0.3389
10500TIP3   OH252990   6.455   6.653  10.844  0.6372  0.2201  0.1989
10500TIP3    H152991   6.361   6.667  10.859  0.3387 -0.6968 -0.6896
10500TIP3    H252992   6.477   6.578  10.898 -0.0800 -2.0725 -2.4669
10501TIP3   OH252993   0.274   1.666  14.733  0.0887 -0.9101 -0.7207
10501TIP3    H152994   0.273   1.652  14.828 -0.3150 -0.8032 -0.7070
10501TIP3    H252995   0.297   1.580  14.697  2.0269 -0.5370 -0.4696
10502TIP3   OH252996   2.681   1.075  13.617  0.3319  0.5650 -0.1978
10502TIP3    H152997   2.699   1.077  13.711  2.9531 -0.0813 -0.5884
10502TIP3    H252998   2.594   1.113  13.608 -0.3161 -0.0707  2.5441
10503TIP3   OH252999   4.019   5.316  16.034 -0.5021 -0.5960  0.3441
10503TIP3    H153000   4.076   5.284  15.965  0.0746  1.1012 -0.0211
10503TIP3    H253001   4.073   5.314  16.113 -0.9197 -1.8157  0.6177
10504TIP3   OH253002   3.451   4.147  13.682 -0.0312  0.6118 -0.3573
10504TIP3    H153003   3.356   4.138  13.685 -0.4028  2.6386 -2.8293
10504TIP3    H253004   3.469   4.223  13.738  0.2929 -0.3157  0.8424
10505TIP3   OH253005   0.285   0.511   5.509 -0.6561  0.0541 -0.3368
10505TIP3    H153006   0.315   0.530   5.598 -1.9815  0.2509  0.0851
10505TIP3    H253007   0.277   0.416   5.506  1.0719 -0.1209 -0.8364
10506TIP3   OH253008   5.416   5.239   1.675 -0.4095 -0.2908  0.0827
10506TIP3    H153009   5.331   5.197   1.663 -0.3557 -0.1936 -0.7634
10506TIP3    H253010   5.397   5.332   1.663 -0.1056 -0.3149 -0.6258
10507TIP3   OH253011   3.321   6.143   4.013  0.1458  0.0863  0.6614
10507TIP3    H153012   3.257   6.187   4.070 -1.5399 -0.5136 -0.6676
10507TIP3    H253013   3.358   6.074   4.068  0.9164  1.4775  1.9766
10508TIP3   OH253014   2.939   0.458   2.173 -0.8912  0.1253 -0.0866
10508TIP3    H153015   2.997   0.434   2.101 -1.0730  0.8122 -0.4709
10508TIP3    H253016   2.884   0.528   2.137  0.7441  2.3224  1.4881
10509TIP3   OH253017   2.436   6.134   1.957  0.1174  0.0836  0.5197
10509TIP3    H153018   2.435   6.045   1.922  0.5719 -0.7256  2.4245
10509TIP3    H253019   2.529   6.152   1.974  0.0699  1.0976 -0.2261
10510TIP3   OH253020   2.692   2.141   4.636 -0.0071  0.0066 -0.1687
10510TIP3    H153021   2.732   2.183   4.712  0.0140 -1.5388  0.7156
10510TIP3    H253022   2.598   2.155   4.647 -0.0068 -0.2632  0.1693
10511TIP3   OH253023   4.562   0.886  13.588  0.0093  0.3566 -0.2468
10511TIP3    H153024   4.552   0.870  13.494 -1.4703  0.4936 -0.1360
10511TIP3    H253025   4.487   0.840  13.628 -0.0327  1.2608  0.7470
10512TIP3   OH253026   6.016   1.426   5.632  0.0736  0.6955 -0.3143
10512TIP3    H153027   6.108   1.447   5.616 -0.2390  1.0753 -1.7235
10512TIP3    H253028   5.989   1.486   5.702  0.9022  0.5316  0.1556
10513TIP3   OH253029   1.273   6.037   3.376  0.0257 -1.1044 -0.3331
10513TIP3    H153030   1.222   5.957   3.382  1.2205 -1.7842  1.5517
10513TIP3    H253031   1.286   6.065   3.467 -0.3704  1.2570 -0.9276
10514TIP3   OH253032   6.121   3.940  16.226 -0.1279 -0.2769 -0.2621
10514TIP3    H153033   6.194   3.982  16.181  0.0271  1.2155  1.2881
10514TIP3    H253034   6.055   4.008  16.234  0.2161 -0.1592  2.5353
10515TIP3   OH253035   4.065   3.390  13.639  0.1027 -0.0489  0.0220
10515TIP3    H153036   4.124   3.461  13.617 -0.5200  1.0018  1.5456
10515TIP3    H253037   4.006   3.383  13.563  0.0585  1.1954 -0.0820
10516TIP3   OH253038   4.307   0.210  12.571 -0.2648  0.2280  0.1545
10516TIP3    H153039   4.222   0.171  12.590  0.6466 -2.1399 -0.2389
10516TIP3    H253040   4.353   0.209  12.655 -0.0414 -0.0814  0.0308
10517TIP3   OH253041   0.470   1.588   4.489 -0.3051 -0.3511 -0.9203
10517TIP3    H153042   0.420   1.636   4.555 -2.2507  0.1215 -2.6353
10517TIP3    H253043   0.547   1.642   4.474 -0.4115  0.1181  0.1284
10518TIP3   OH253044   2.322   5.157  14.761  0.2070  0.2366  0.2519
10518TIP3    H153045   2.287   5.077  14.800 -0.6703  0.5756  0.1811
10518TIP3    H253046   2.412   5.134  14.737  0.1619 -0.5417  0.7733
10519TIP3   OH253047   2.240   4.082   4.874  0.5460  0.2274  0.5959
10519TIP3    H153048   2.218   4.096   4.967  0.8208 -0.0477  0.7053
10519TIP3    H253049   2.177   4.136   4.826 -0.0047 -0.1123  0.9200
10520TIP3   OH253050   0.701   0.669   4.137  0.1586  0.5011 -0.0537
10520TIP3    H153051   0.749   0.598   4.094 -0.5480  0.8448 -1.4805
10520TIP3    H253052   0.612   0.634   4.148 -0.0687  0.9903 -0.3231
10521TIP3   OH253053   6.164   5.995  15.786  0.0902  0.5305  0.3533
10521TIP3    H153054   6.088   6.052  15.784  1.0718  1.8818  0.1748
10521TIP3    H253055   6.234   6.046  15.745  1.4101 -0.1888  1.6000
10522TIP3   OH253056   1.866   5.391  14.683  0.1577  0.0162 -0.6434
10522TIP3    H153057   1.910   5.328  14.740  1.3959 -0.0916 -1.6782
10522TIP3    H253058   1.809   5.441  14.742  0.6033 -0.7912  0.5024
10523TIP3   OH253059   1.996   2.876  16.924 -0.0870  0.1741 -0.4377
10523TIP3    H153060   1.965   2.932  16.852 -0.8453  0.6955  0.2808
10523TIP3    H253061   2.043   2.936  16.982 -0.8426  0.0646  0.3011
10524TIP3   OH253062   4.564   5.790  14.764 -0.0056  0.0717 -0.2207
10524TIP3    H153063   4.535   5.750  14.846 -1.0055  0.9516 -0.1273
10524TIP3    H253064   4.659   5.799  14.774 -0.2269  1.1589  1.3254
10525TIP3   OH253065   5.670   1.895   5.624  0.2991  0.1372  0.0435
10525TIP3    H153066   5.608   1.824   5.609  0.4499  0.2432 -1.1593
10525TIP3    H253067   5.638   1.938   5.704 -0.7600 -0.2409 -0.1580
10526TIP3   OH253068   1.110   5.590  14.043 -0.4841 -0.2833 -0.3520
10526TIP3    H153069   1.193   5.605  13.999 -0.5368 -1.5391 -0.9160
10526TIP3    H253070   1.135   5.565  14.132 -0.3666  1.8210  0.2616
10527TIP3   OH253071   2.145   2.547  16.174 -0.5967 -0.4884  0.0185
10527TIP3    H153072   2.094   2.537  16.254 -1.7298  2.0499 -0.3032
10527TIP3    H253073   2.235   2.560  16.205 -0.6953 -1.4712  0.7632
10528TIP3   OH253074   5.719   1.881  17.158 -0.2703 -0.2274 -0.1136
10528TIP3    H153075   5.710   1.965  17.204  1.2980 -0.6033  0.9532
10528TIP3    H253076   5.681   1.817  17.217 -1.3638 -0.3192 -0.8818
10529TIP3   OH253077   2.228   4.995  11.367  0.2850 -0.7386 -0.0886
10529TIP3    H153078   2.133   5.006  11.368  0.4811  1.2144  0.8634
10529TIP3    H253079   2.244   4.931  11.297 -1.6281 -0.2096 -1.0712
10530TIP3   OH253080   1.894   0.745  15.547  0.0435 -0.0119 -0.2794
10530TIP3    H153081   1.895   0.830  15.591  1.0272 -0.0814 -0.1478
10530TIP3    H253082   1.803   0.716  15.553 -0.4002  1.2080 -0.6814
10531TIP3   OH253083   5.539   1.840  12.662  0.6929 -0.1693 -0.4630
10531TIP3    H153084   5.537   1.879  12.575 -0.7151  1.9071  0.4146
10531TIP3    H253085   5.511   1.749  12.648 -0.0417  0.2702 -2.1110
10532TIP3   OH253086   0.304   3.198   1.272 -0.6868  0.1808 -0.2761
10532TIP3    H153087   0.354   3.278   1.256  2.0151 -1.7058 -1.9632
10532TIP3    H253088   0.276   3.169   1.185  0.6858 -2.0347 -0.0650
10533TIP3   OH253089   2.862   1.924   2.321  0.1602  0.0013 -0.0858
10533TIP3    H153090   2.815   1.842   2.337 -0.4582  0.5530  0.9997
10533TIP3    H253091   2.801   1.978   2.272 -0.5659  0.8832  1.6952
10534TIP3   OH253092   5.963   5.942   1.549  0.0485 -0.7947 -0.1711
10534TIP3    H153093   5.943   6.032   1.525  0.8426 -0.4532  0.4131
10534TIP3    H253094   5.884   5.911   1.594 -0.1934 -0.3588 -0.2921
10535TIP3   OH253095   1.174   5.580  16.004 -0.3523  0.2948  0.5392
10535TIP3    H153096   1.161   5.623  15.919 -0.8155 -0.8801 -0.0126
10535TIP3    H253097   1.126   5.634  16.066  0.2170  1.3220  0.1136
10536TIP3   OH253098   2.112   6.418  16.658 -0.4119 -0.0382 -0.1011
10536TIP3    H153099   2.196   6.397  16.617 -1.3048 -1.3566 -1.3674
10536TIP3    H253100   2.123   6.392  16.749  0.7872  0.5132 -0.0684
10537TIP3   OH253101   2.217   4.764  13.234  0.2169 -0.1245 -0.5388
10537TIP3    H153102   2.136   4.731  13.273  1.7604 -2.6751  0.8544
10537TIP3    H253103   2.211   4.740  13.142 -1.0731  0.7864 -0.7138
10538TIP3   OH253104   6.186   2.034  13.551  0.6266 -0.8829 -0.3188
10538TIP3    H153105   6.097   2.048  13.585  0.0496 -0.8953 -1.7189
10538TIP3    H253106   6.218   1.957  13.597  0.6205  0.1672  1.5112
10539TIP3   OH253107   0.357   0.382  13.620 -0.4134  0.2572 -0.4178
10539TIP3    H153108   0.369   0.395  13.526  0.5143  1.5298 -0.1524
10539TIP3    H253109   0.378   0.290  13.635  0.9893  0.4146 -1.2508
10540TIP3   OH253110   0.071   0.868   5.355  0.2024  0.1235 -0.1480
10540TIP3    H153111   0.048   0.851   5.264  0.2011 -0.5584 -0.0249
10540TIP3    H253112   0.054   0.785   5.400 -1.1512  0.8378  0.7343
10541TIP3   OH253113   3.000   4.722  17.276  0.2254  0.0943 -0.1173
10541TIP3    H153114   3.060   4.658  17.314  0.8577 -0.3824 -1.8044
10541TIP3    H253115   2.947   4.670  17.215 -1.2652  0.6860  0.6251
10542TIP3   OH253116   3.687   4.111  17.223 -0.2874 -0.3854 -0.2921
10542TIP3    H153117   3.764   4.056  17.206  0.8384  0.8854  0.4635
10542TIP3    H253118   3.669   4.099  17.316  2.3943  3.2811  0.9525
10543TIP3   OH253119   4.464   2.292  15.848  0.1602 -0.1541  0.0053
10543TIP3    H153120   4.506   2.207  15.855 -0.9393 -0.6719  0.6763
10543TIP3    H253121   4.489   2.338  15.928  2.5537  1.0525 -1.3344
10544TIP3   OH253122   2.671   6.627  15.911 -0.1351  0.9489  0.0610
10544TIP3    H153123   2.687   6.642  15.817  2.1124 -2.0812 -0.2126
10544TIP3    H253124   2.758   6.607  15.946 -1.4453 -2.7960  1.6824
10545TIP3   OH253125   2.649   3.045   3.894  0.4001 -0.6477  0.1760
10545TIP3    H153126   2.644   3.138   3.915  3.6066  0.1644 -1.9469
10545TIP3    H253127   2.562   3.022   3.862 -1.1806  0.8998  2.9990
10546TIP3   OH253128   2.675   2.160   3.095  0.1949  0.7850  0.0270
10546TIP3    H153129   2.595   2.118   3.126  0.2191 -0.4554 -1.4713
10546TIP3    H253130   2.648   2.249   3.072 -1.0760  0.0298 -1.6042
10547TIP3   OH253131   4.175   6.059   0.616 -0.1229 -0.0785  0.1258
10547TIP3    H153132   4.081   6.043   0.612  0.1529 -1.9912  0.2423
10547TIP3    H253133   4.196   6.052   0.709  0.0384  1.1360  0.1971
10548TIP3   OH253134   2.425   2.273   2.307 -0.5626  0.3161  0.2598
10548TIP3    H153135   2.385   2.360   2.308 -1.2784  0.0318 -1.1881
10548TIP3    H253136   2.513   2.287   2.343 -1.3937  1.2296  2.0730
10549TIP3   OH253137   3.353   3.565  14.128 -0.2363  0.1016  0.6203
10549TIP3    H153138   3.319   3.653  14.141 -0.4783 -0.0905  1.2997
10549TIP3    H253139   3.447   3.577  14.115 -0.2183  0.4240  1.0467
10550TIP3   OH253140   5.249   1.100   3.527  0.3504 -0.0932  0.4172
10550TIP3    H153141   5.335   1.059   3.528 -0.0968 -1.1398 -0.8132
10550TIP3    H253142   5.189   1.030   3.554 -0.2403  0.2459  0.0020
10551TIP3   OH253143   2.217   5.708  16.533 -0.3723  0.8218  0.0184
10551TIP3    H153144   2.287   5.661  16.577 -2.1940 -1.1339  1.0221
10551TIP3    H253145   2.179   5.764  16.602 -0.2951  1.2825 -0.3087
10552TIP3   OH253146   2.060   1.808  13.436  0.5570 -0.7311  0.0598
10552TIP3    H153147   2.104   1.887  13.468 -1.2427  0.2187  0.3448
10552TIP3    H253148   2.029   1.765  13.516 -0.1827 -0.6531 -0.1770
10553TIP3   OH253149   1.867   0.785   5.659  0.1017  0.1568 -0.1073
10553TIP3    H153150   1.916   0.867   5.649 -1.4222  1.1465  0.2392
10553TIP3    H253151   1.861   0.772   5.753 -0.0415 -0.1182 -0.1537
10554TIP3   OH253152   4.710   1.570   0.036  0.1740 -0.0876  0.3256
10554TIP3    H153153   4.683   1.565   0.128  0.8243  0.4143  0.5504
10554TIP3    H253154   4.694   1.661   0.012 -0.9956 -0.4531 -0.3867
10555TIP3   OH253155   6.513   3.027  13.717 -0.9091  0.1741 -0.0436
10555TIP3    H153156   6.430   3.073  13.726 -1.1656 -0.2478 -0.2539
10555TIP3    H253157   6.573   3.093  13.683 -1.1024  0.5363  0.3137
10556TIP3   OH253158   2.619   4.739  17.179 -0.3975  0.2947 -0.3563
10556TIP3    H153159   2.621   4.834  17.185  0.5544  0.3959 -1.8188
10556TIP3    H253160   2.655   4.719  17.093 -1.7154 -1.3501 -0.5761
10557TIP3   OH253161   5.862   0.521  11.913 -0.3526  0.1738  0.5374
10557TIP3    H153162   5.912   0.601  11.899 -0.4917 -0.0273 -1.2961
10557TIP3    H253163   5.781   0.535  11.865 -1.2710 -0.2727  1.9018
10558TIP3   OH253164   5.783   5.787  14.123 -0.1800  0.1185 -0.2692
10558TIP3    H153165   5.766   5.702  14.082  0.4318  0.3273 -0.9712
10558TIP3    H253166   5.728   5.848  14.074  0.4895  0.3564 -0.7275
10559TIP3   OH253167   0.047   3.595   5.262  0.3918 -0.6688  0.0285
10559TIP3    H153168  -0.033   3.624   5.219  1.4132 -1.5992 -2.7311
10559TIP3    H253169   0.033   3.503   5.281 -0.3089 -0.1212  2.5212
10560TIP3   OH253170   4.635   6.536   2.774  0.6100  0.4982 -0.4214
10560TIP3    H153171   4.545   6.553   2.801  0.6967  1.7662 -0.8504
10560TIP3    H253172   4.641   6.572   2.685  1.4476  0.1127 -0.5345
10561TIP3   OH253173   0.932   3.272   4.857  0.3935 -0.6147  0.1400
10561TIP3    H153174   1.005   3.274   4.796 -0.5532  1.2097 -1.0254
10561TIP3    H253175   0.889   3.188   4.841  0.0281 -0.0758 -1.9475
10562TIP3   OH253176   0.872   1.199  15.167 -0.7210 -0.1229 -0.1221
10562TIP3    H153177   0.909   1.161  15.087 -1.2375  0.2071 -0.5273
10562TIP3    H253178   0.948   1.220  15.221 -0.3488 -0.1070 -0.6419
10563TIP3   OH253179   4.726   5.917   2.180  0.7579 -0.5965  0.3350
10563TIP3    H153180   4.660   5.937   2.247  0.2362 -0.1209 -0.3096
10563TIP3    H253181   4.698   5.833   2.143 -0.6580  0.5443 -1.3193
10564TIP3   OH253182   0.942   2.775  13.325 -0.0489  0.0141 -0.3599
10564TIP3    H153183   0.960   2.864  13.355 -1.1737  0.2314 -0.2754
10564TIP3    H253184   1.028   2.732  13.322  0.2877  0.3628  1.9908
10565TIP3   OH253185   2.420   6.713   4.861 -0.4046 -0.2329  0.1140
10565TIP3    H153186   2.342   6.667   4.891 -0.3276 -1.3998 -1.3671
10565TIP3    H253187   2.491   6.682   4.917 -0.4628 -1.4981 -0.4916
10566TIP3   OH253188   5.230   3.217   0.408 -0.3814  0.0372  0.8229
10566TIP3    H153189   5.223   3.307   0.377 -1.6774 -0.2314  0.2645
10566TIP3    H253190   5.324   3.199   0.407 -0.2038  0.8404 -0.6749
10567TIP3   OH253191   5.533   0.406  11.111  1.0896  0.3877  0.1940
10567TIP3    H153192   5.555   0.466  11.182  3.6110 -0.3048  0.0681
10567TIP3    H253193   5.534   0.319  11.152 -1.2902  0.2355  0.0924
10568TIP3   OH253194   5.780   5.278  15.180  0.4611 -0.1647 -0.0410
10568TIP3    H153195   5.794   5.373  15.177  0.6539 -0.0433  2.7283
10568TIP3    H253196   5.706   5.266  15.240 -0.3771 -1.7415 -1.3046
10569TIP3   OH253197   3.158   6.395  13.343 -0.3686  0.2886 -0.1213
10569TIP3    H153198   3.077   6.371  13.297 -0.7130  3.0668 -1.1623
10569TIP3    H253199   3.212   6.435  13.275  1.4679 -0.5594  0.7963
10570TIP3   OH253200   5.079   4.026   1.547  0.3358 -0.2792 -0.2426
10570TIP3    H153201   5.159   4.048   1.595 -0.1235 -0.9064  0.8612
10570TIP3    H253202   5.079   3.930   1.544 -1.6723 -0.4676  2.1808
10571TIP3   OH253203   1.037   0.864  12.357  0.2318  0.4969  0.7873
10571TIP3    H153204   0.990   0.905  12.430 -0.2975  0.0131  0.7225
10571TIP3    H253205   0.968   0.836  12.297  0.6605  0.7911  0.1482
10572TIP3   OH253206   6.150   4.510   4.331  0.5274  0.1485 -0.1573
10572TIP3    H153207   6.236   4.470   4.316  0.7462  0.7271 -0.4881
10572TIP3    H253208   6.148   4.584   4.271  0.0166  0.4705  0.2535
10573TIP3   OH253209   0.473   0.230  17.344  0.1391  0.8651 -0.2475
10573TIP3    H153210   0.549   0.208  17.399  1.1951 -0.1633 -2.0322
10573TIP3    H253211   0.459   0.324  17.359  1.9459  1.1449 -0.0858
10574TIP3   OH253212   3.422   0.777   6.678 -0.0326  0.5373 -0.0802
10574TIP3    H153213   3.504   0.766   6.726  0.0085  1.2342  0.0151
10574TIP3    H253214   3.379   0.850   6.720 -1.1870 -0.4463  0.5107
10575TIP3   OH253215   1.197   0.190  15.559  0.1404 -0.1394 -0.2257
10575TIP3    H153216   1.103   0.183  15.576 -0.0857  3.1704  0.4740
10575TIP3    H253217   1.203   0.229  15.472  0.8590  0.1183 -0.0672
10576TIP3   OH253218   1.710   5.212   2.599 -0.0171 -0.1112 -0.1849
10576TIP3    H153219   1.730   5.258   2.517 -0.1178  0.4392  0.0905
10576TIP3    H253220   1.785   5.231   2.656 -0.1583 -0.1112  0.0029
10577TIP3   OH253221   6.750   6.060  13.909  0.7137 -0.1326  0.0723
10577TIP3    H153222   6.766   6.091  13.820 -1.9338 -0.9163 -0.7722
10577TIP3    H253223   6.810   5.986  13.919  3.2354  1.8016  0.1542
10578TIP3   OH253224   0.650   4.778  13.908  0.5187 -0.7474  0.1742
10578TIP3    H153225   0.578   4.762  13.968 -2.2839  0.4420 -2.6291
10578TIP3    H253226   0.665   4.694  13.865 -1.5262 -0.3181 -1.5081
10579TIP3   OH253227   4.896   0.414  14.202 -0.1964 -0.4416 -0.0783
10579TIP3    H153228   4.873   0.395  14.111 -1.6171 -0.1802  0.2043
10579TIP3    H253229   4.838   0.357  14.253  0.0755 -0.0469  0.6764
10580TIP3   OH253230   5.287   1.603   4.551  0.4955 -0.0305  0.4916
10580TIP3    H153231   5.196   1.621   4.527  0.8537 -0.4888 -1.3718
10580TIP3    H253232   5.336   1.680   4.522  0.8050 -0.0909  0.8357
10581TIP3   OH253233   5.472   5.097  13.160 -0.4998 -0.3572  0.1689
10581TIP3    H153234   5.528   5.025  13.188 -0.0035 -0.0539 -0.0416
10581TIP3    H253235   5.515   5.132  13.082  0.3866  1.5163  1.4498
10582TIP3   OH253236   2.514   4.731  10.998  0.3090 -0.1904  0.5176
10582TIP3    H153237   2.593   4.677  11.000 -0.4669 -1.4441 -0.8671
10582TIP3    H253238   2.446   4.673  10.965 -1.0116  1.1139  0.8325
10583TIP3   OH253239   1.166   5.114   0.655 -0.6127 -0.3692 -0.0578
10583TIP3    H153240   1.198   5.187   0.709 -2.0506  1.2430 -1.2620
10583TIP3    H253241   1.245   5.079   0.613  0.5388 -1.5797  2.8237
10584TIP3   OH253242   6.322   3.908   3.148 -0.8577  0.2740  0.2940
10584TIP3    H153243   6.229   3.891   3.132 -0.3502 -0.5193 -2.3346
10584TIP3    H253244   6.359   3.822   3.168 -0.2967  0.0929 -1.3273
10585TIP3   OH253245   6.505   2.125  14.905  0.4853  0.2005 -0.3264
10585TIP3    H153246   6.493   2.066  14.831 -3.9514  0.6650 -0.2154
10585TIP3    H253247   6.502   2.213  14.868  0.9442  0.4285  0.1518
10586TIP3   OH253248   3.357   4.237   1.938  0.1994  0.4843  0.4813
10586TIP3    H153249   3.291   4.231   1.869  0.6525 -0.4450  0.1101
10586TIP3    H253250   3.315   4.200   2.015  0.5097 -0.8281  0.0539
10587TIP3   OH253251   4.577   4.649   6.294 -0.2282  1.1377  0.8010
10587TIP3    H153252   4.669   4.674   6.304 -0.4304  2.1002  0.4243
10587TIP3    H253253   4.569   4.566   6.340  0.8331  1.0380  0.8325
10588TIP3   OH253254   3.391   1.488  11.428 -0.1521  0.3105 -0.3715
10588TIP3    H153255   3.321   1.514  11.368 -1.3114 -1.5582  0.1025
10588TIP3    H253256   3.464   1.467  11.370 -0.4830  0.7576 -0.9716
10589TIP3   OH253257   5.309   0.440  14.829 -0.1072 -0.1409 -0.2240
10589TIP3    H153258   5.265   0.485  14.901 -0.5745 -0.8645 -0.0332
10589TIP3    H253259   5.399   0.470  14.832 -0.2311  0.1794  0.3815
10590TIP3   OH253260   1.909   3.151  11.038 -0.0375 -0.2678  0.0783
10590TIP3    H153261   1.832   3.198  11.069  1.5328  0.8134  2.6300
10590TIP3    H253262   1.939   3.201  10.962 -0.1432  1.1237  0.9195
10591TIP3   OH253263   3.303   2.985  14.933  0.8736 -0.1286  0.3132
10591TIP3    H153264   3.244   2.910  14.921  1.4155 -0.5297  0.1188
10591TIP3    H253265   3.352   2.989  14.851  0.5872  0.6734  0.1760
10592TIP3   OH253266   4.942   4.320   2.904 -0.6788 -1.0379 -0.0849
10592TIP3    H153267   4.956   4.414   2.895 -2.1321 -0.7295  0.6975
10592TIP3    H253268   4.954   4.286   2.815 -1.3729  0.0645 -0.6160
10593TIP3   OH253269   5.200   1.637   2.092  0.1439 -0.3276 -0.2874
10593TIP3    H153270   5.198   1.726   2.128 -2.8129  0.0895 -1.1711
10593TIP3    H253271   5.143   1.587   2.150  0.6789 -1.2966 -0.5848
10594TIP3   OH253272   6.035   0.766  11.683 -0.5705  0.3289  0.2040
10594TIP3    H153273   6.129   0.755  11.696 -0.5175 -0.1275 -0.5158
10594TIP3    H253274   5.999   0.767  11.772  0.1980  1.4186  0.5339
10595TIP3   OH253275   3.372   0.362   0.843 -0.2166 -0.6035 -0.2111
10595TIP3    H153276   3.345   0.448   0.876 -3.7294 -1.3923 -0.5490
10595TIP3    H253277   3.382   0.308   0.921 -0.7698 -0.5401 -0.0902
10596TIP3   OH253278   6.248   3.134  16.848 -0.0387  0.7163  0.3791
10596TIP3    H153279   6.178   3.180  16.803  0.1169 -0.7606 -1.4985
10596TIP3    H253280   6.209   3.051  16.875  0.6312  0.4217  0.4688
10597TIP3   OH253281   6.288   2.549  17.221 -0.0312 -0.1138 -0.1413
10597TIP3    H153282   6.283   2.485  17.293  0.2725 -2.5220 -2.1084
10597TIP3    H253283   6.370   2.595  17.236 -0.2353 -0.1685  1.3335
10598TIP3   OH253284   4.844   4.912   6.073 -0.2198  0.1264 -0.2684
10598TIP3    H153285   4.788   4.985   6.101  0.0300 -0.2325  1.2222
10598TIP3    H253286   4.806   4.884   5.989 -1.4587  0.7495  0.0627
10599TIP3   OH253287   6.742   0.720  11.929 -0.9084 -0.7609 -0.2431
10599TIP3    H153288   6.774   0.807  11.904  0.2145 -0.2516  2.6147
10599TIP3    H253289   6.771   0.663  11.858 -0.0362  0.8768 -1.2795
10600TIP3   OH253290   0.238   1.455   0.858  0.4941 -0.0985  0.6521
10600TIP3    H153291   0.208   1.540   0.827  1.4759  0.7118  1.8321
10600TIP3    H253292   0.332   1.455   0.841  0.4917 -0.9764  0.5992
10601TIP3   OH253293   3.742   3.346  14.083  0.7759  0.2415 -0.4900
10601TIP3    H153294   3.779   3.408  14.020 -1.3075 -0.2165 -2.2709
10601TIP3    H253295   3.666   3.309  14.039 -0.0735 -1.0311  1.8571
10602TIP3   OH253296   2.537   4.378   4.935  0.2922 -0.1227 -0.0522
10602TIP3    H153297   2.605   4.420   4.988 -0.2880  1.3455 -0.4185
10602TIP3    H253298   2.519   4.295   4.980 -0.2681  1.1212  2.1739
10603TIP3   OH253299   4.628   3.366  13.481  0.0540  0.0524 -0.4490
10603TIP3    H153300   4.646   3.304  13.551 -0.3554  0.7192  0.2556
10603TIP3    H253301   4.562   3.426  13.517 -0.3871  0.2345 -1.4946
10604TIP3   OH253302   4.022   0.820   1.193 -0.3233  0.0026  0.2044
10604TIP3    H153303   3.931   0.789   1.194 -0.1183 -0.6291  1.3820
10604TIP3    H253304   4.021   0.897   1.250 -0.3156  0.6401 -0.6362
10605TIP3   OH253305   1.437   3.291  12.171  0.4000 -0.3055 -0.1538
10605TIP3    H153306   1.375   3.356  12.204 -0.0686 -0.9158  0.1991
10605TIP3    H253307   1.384   3.212  12.160  1.0509 -0.7420 -0.1647
10606TIP3   OH253308   5.466   6.080   5.344 -0.3089 -0.3967  0.5491
10606TIP3    H153309   5.517   6.160   5.335  0.0154 -0.5706  0.7965
10606TIP3    H253310   5.452   6.050   5.254  1.4900 -1.2444  0.4937
10607TIP3   OH253311   2.568   6.427   4.244 -0.5049 -0.3747 -0.3720
10607TIP3    H153312   2.633   6.409   4.176 -0.2481  0.0045 -0.2331
10607TIP3    H253313   2.619   6.464   4.316 -1.0606  1.4263 -0.8515
10608TIP3   OH253314   5.653   6.123  14.414  0.3314 -0.2436  0.4550
10608TIP3    H153315   5.631   6.213  14.436  0.2866 -0.6955  2.3814
10608TIP3    H253316   5.576   6.072  14.437 -0.4338 -0.6232 -2.4634
10609TIP3   OH253317   0.893   5.319  11.643 -0.0018 -0.1710  0.6083
10609TIP3    H153318   0.799   5.328  11.652 -0.1742 -1.7167  0.5958
10609TIP3    H253319   0.915   5.240  11.692  1.0305 -0.8135 -0.8119
10610TIP3   OH253320   4.892   1.046   4.672 -0.3881 -0.2061  0.2943
10610TIP3    H153321   4.976   1.091   4.676 -0.5262  0.0304  0.5545
10610TIP3    H253322   4.861   1.060   4.583 -0.6275  0.5758  0.4917
10611TIP3   OH253323   2.147   2.717  17.252  0.2254  0.1796 -0.5111
10611TIP3    H153324   2.065   2.713  17.204  0.3613  0.2267 -0.7491
10611TIP3    H253325   2.129   2.775  17.326  0.5419  1.6854 -1.5582
10612TIP3   OH253326   4.961   5.859  13.864  0.1945  0.1090  0.0568
10612TIP3    H153327   4.944   5.939  13.813  0.5685  0.9995  1.2821
10612TIP3    H253328   5.017   5.806  13.808 -0.0665  0.7068 -0.7859
10613TIP3   OH253329   3.251   4.194  14.248  0.6647  0.0316 -0.2780
10613TIP3    H153330   3.298   4.250  14.187 -0.7296  2.1590  0.5101
10613TIP3    H253331   3.167   4.176  14.206  0.7241 -0.6948 -0.1054
10614TIP3   OH253332   6.705   5.648  17.397 -0.3572 -0.3891  0.0225
10614TIP3    H153333   6.615   5.642  17.366  0.5048  0.1463 -2.8789
10614TIP3    H253334   6.717   5.740  17.419 -0.8724 -0.7133  1.8749
10615TIP3   OH253335   5.292   4.051   2.114  0.3191 -0.5792  0.2305
10615TIP3    H153336   5.214   4.045   2.170  1.1483 -1.8758  1.2947
10615TIP3    H253337   5.263   4.105   2.040 -1.8740 -1.7624  0.1214
10616TIP3   OH253338   5.616   1.242  12.716  0.5768  0.6392  0.4399
10616TIP3    H153339   5.524   1.219  12.722  0.0662  2.5694  0.8885
10616TIP3    H253340   5.638   1.277  12.803  1.3841  1.3014 -0.0061
10617TIP3   OH253341   1.198   2.176   5.860 -0.1263  0.9497  0.2588
10617TIP3    H153342   1.221   2.253   5.913  0.5622 -0.0703  1.5078
10617TIP3    H253343   1.282   2.141   5.831 -0.3884  0.2165  0.3751
10618TIP3   OH253344   0.671   2.246  17.465 -0.6106  0.2807  0.0006
10618TIP3    H153345   0.631   2.233  17.379  2.4910 -0.6725 -1.4359
10618TIP3    H253346   0.688   2.158  17.498 -0.5131  0.6492  0.9816
10619TIP3   OH253347   5.715   0.585  13.662  0.5160 -0.1393  0.0130
10619TIP3    H153348   5.662   0.563  13.586 -0.2251  2.1214 -0.1869
10619TIP3    H253349   5.758   0.667  13.639  2.4537 -0.8171  1.0042
10620TIP3   OH253350   3.995   3.445   0.395  0.3662 -0.4480  0.3162
10620TIP3    H153351   4.071   3.490   0.360  1.8329 -2.1581  1.1274
10620TIP3    H253352   3.940   3.515   0.431  0.6813  0.9736 -1.7817
10621TIP3   OH253353   4.554   2.525  16.395  0.0765  0.2180 -0.3946
10621TIP3    H153354   4.552   2.615  16.427 -1.6816  0.6143 -1.4616
10621TIP3    H253355   4.646   2.500  16.398  0.2948  1.0849  2.4422
10622TIP3   OH253356   0.273   5.741  16.307 -0.3942  0.6892 -0.2803
10622TIP3    H153357   0.223   5.666  16.275 -0.6935  0.3666  0.8811
10622TIP3    H253358   0.234   5.761  16.393  1.5110  0.3687  0.7229
10623TIP3   OH253359   3.572   2.792  11.335  0.4987  0.3523  0.0632
10623TIP3    H153360   3.514   2.788  11.259 -0.9433  1.0846  1.0602
10623TIP3    H253361   3.589   2.701  11.358 -3.5401 -0.1564  2.0362
10624TIP3   OH253362   5.041   5.896   6.776 -0.0365 -0.2011  0.5525
10624TIP3    H153363   5.113   5.946   6.815  0.1712 -2.4282  3.3884
10624TIP3    H253364   4.966   5.956   6.778  0.9740  1.0883  0.5913
10625TIP3   OH253365   4.884   3.859  13.394  0.6081  0.3754  0.0763
10625TIP3    H153366   4.886   3.764  13.405  0.4681  0.4178  0.4900
10625TIP3    H253367   4.906   3.894  13.481  2.2249  0.7257 -0.4379
10626TIP3   OH253368   4.773   5.913  12.913  0.2300  0.2577 -0.3104
10626TIP3    H153369   4.800   5.829  12.878  0.1418  0.2595 -0.3820
10626TIP3    H253370   4.679   5.903  12.931  0.7458 -0.6491  2.4374
10627TIP3   OH253371   0.802   1.196  16.202  0.4008  0.1988  0.3556
10627TIP3    H153372   0.778   1.258  16.133  1.9004  0.0262 -0.3605
10627TIP3    H253373   0.737   1.127  16.196 -0.5506  1.0725  0.3247
10628TIP3   OH253374   1.568   6.056  15.919 -0.1127 -0.3059  0.6602
10628TIP3    H153375   1.658   6.086  15.935  0.1017  0.5278 -1.6277
10628TIP3    H253376   1.524   6.133  15.882 -2.0960 -0.4054  2.6360
10629TIP3   OH253377   4.550   5.413   3.886 -0.7423 -0.4857 -0.4182
10629TIP3    H153378   4.513   5.330   3.914 -0.7232 -0.0930  0.8451
10629TIP3    H253379   4.513   5.429   3.800 -4.0394  0.1588  0.9609
10630TIP3   OH253380   0.515   4.733  12.499 -0.3096 -0.1707  0.4220
10630TIP3    H153381   0.522   4.712  12.405  1.0446  0.6537  0.3011
10630TIP3    H253382   0.473   4.819  12.501 -0.4370 -0.2378  0.5751
10631TIP3   OH253383   4.893   5.897  16.678 -0.5344  0.0217 -0.1305
10631TIP3    H153384   4.974   5.861  16.714 -0.2936 -0.5841 -1.2237
10631TIP3    H253385   4.857   5.826  16.624 -2.1767  0.0152  0.8893
10632TIP3   OH253386   0.290   2.610   5.040  0.2343  0.3937 -0.2012
10632TIP3    H153387   0.347   2.659   4.981 -0.6656  0.8266 -0.7295
10632TIP3    H253388   0.305   2.650   5.126  2.3695 -0.9495  0.1279
10633TIP3   OH253389   0.602   4.581   5.573 -0.0593 -0.3946  0.5229
10633TIP3    H153390   0.629   4.640   5.644 -0.7180  1.1174 -0.4378
10633TIP3    H253391   0.507   4.574   5.583  0.1805 -3.0466  1.8853
10634TIP3   OH253392   0.779   5.994   0.103  0.1524 -0.5655  0.4135
10634TIP3    H153393   0.799   6.080   0.066  0.8121 -1.4795 -1.4337
10634TIP3    H253394   0.858   5.942   0.088 -0.7890 -1.9458  0.1323
10635TIP3   OH253395   4.549   4.930   6.355  0.3714 -0.4282  0.1727
10635TIP3    H153396   4.559   4.843   6.317  0.6638 -0.7519  0.9504
10635TIP3    H253397   4.455   4.940   6.369  0.3358 -0.6203  0.0689
10636TIP3   OH253398   3.770   5.228  15.959  0.2423 -0.2521 -0.1082
10636TIP3    H153399   3.764   5.210  15.865 -1.1719  2.7549 -0.7035
10636TIP3    H253400   3.861   5.253  15.973  0.0083  1.3753 -1.1970
10637TIP3   OH253401   1.926   5.453  15.400  0.2207 -0.3439 -0.0222
10637TIP3    H153402   1.880   5.532  15.427 -1.7107 -1.2588 -0.4788
10637TIP3    H253403   1.953   5.470  15.310 -0.4374 -0.3028 -0.2131
10638TIP3   OH253404   5.442   0.311  12.827 -0.6064 -0.4306 -0.6911
10638TIP3    H153405   5.475   0.391  12.786 -0.6785 -0.4651 -0.8162
10638TIP3    H253406   5.364   0.340  12.875 -1.2635 -0.6228 -1.6271
10639TIP3   OH253407   3.113   0.276   2.739  0.2175  0.4740 -0.1248
10639TIP3    H153408   3.032   0.269   2.690 -0.4337 -1.7836  1.0875
10639TIP3    H253409   3.176   0.223   2.689  0.6588  1.3360 -0.5009
10640TIP3   OH253410   3.532   1.033   1.967  0.4842  0.1814  0.3673
10640TIP3    H153411   3.456   1.075   1.926  0.3457  0.9147  1.3363
10640TIP3    H253412   3.568   1.101   2.024  2.9629  0.4916 -1.3985
10641TIP3   OH253413   0.799   4.786   1.858 -0.3388 -0.7317 -0.0373
10641TIP3    H153414   0.877   4.827   1.820  0.8695 -1.9290  1.0521
10641TIP3    H253415   0.727   4.842   1.829  0.9299  0.5511 -0.8975
10642TIP3   OH253416   6.574   4.312  14.706 -0.2127  0.2973  0.0857
10642TIP3    H153417   6.613   4.348  14.627 -2.1104 -0.4190 -1.2707
10642TIP3    H253418   6.616   4.359  14.778  0.2343  2.3322 -1.4134
10643TIP3   OH253419   4.663   4.323   6.639 -0.1617  0.3679 -0.0574
10643TIP3    H153420   4.726   4.253   6.659  1.3246  1.7384  0.2230
10643TIP3    H253421   4.627   4.347   6.725 -2.7523 -1.8301 -0.3916
10644TIP3   OH253422   1.098   3.417  10.694  0.4531 -0.4267 -0.3583
10644TIP3    H153423   1.140   3.487  10.745 -1.0767  1.4426 -1.4975
10644TIP3    H253424   1.119   3.439  10.603 -0.9783 -0.7988 -0.8015
10645TIP3   OH253425   3.893   3.663  11.905 -0.0120  0.1291  0.1796
10645TIP3    H153426   3.910   3.717  11.982 -2.0207 -0.1027  0.8309
10645TIP3    H253427   3.868   3.577  11.940  0.4863 -0.4268 -0.7746
10646TIP3   OH253428   0.111   4.325   0.669  0.2464  0.3915  0.0519
10646TIP3    H153429   0.090   4.337   0.761  1.1404 -0.3874  0.3629
10646TIP3    H253430   0.118   4.231   0.657  2.2687  0.5444 -0.3123
10647TIP3   OH253431   1.055   2.542   2.945 -0.5441  0.1991  0.2652
10647TIP3    H153432   1.001   2.516   3.020  0.4196  2.6488  1.9255
10647TIP3    H253433   0.997   2.596   2.891 -1.1156 -1.2350 -0.6385
10648TIP3   OH253434   3.784   5.962  15.320 -0.1229  0.2884 -1.1933
10648TIP3    H153435   3.817   5.881  15.281 -1.7975  0.1302 -2.3731
10648TIP3    H253436   3.784   5.945  15.414  1.8283 -0.1629 -1.2401
10649TIP3   OH253437   0.017   1.330  12.698  0.3030 -0.2420  0.8542
10649TIP3    H153438   0.064   1.371  12.626  0.7563 -2.7384 -0.3891
10649TIP3    H253439   0.061   1.361  12.777  2.0418 -0.0959 -0.1363
10650TIP3   OH253440   0.780   4.973   1.013 -0.3872 -0.5192 -0.2068
10650TIP3    H153441   0.831   5.054   1.019 -0.6440 -0.4204  1.0258
10650TIP3    H253442   0.806   4.934   0.930  0.5215  0.3156 -0.3351
10651TIP3   OH253443   1.739   4.770  15.003 -0.4024 -0.7072  0.3606
10651TIP3    H153444   1.689   4.776  15.084 -1.4464  0.5999 -0.3488
10651TIP3    H253445   1.830   4.767  15.032 -0.6939  0.6647  1.5804
10652TIP3   OH253446   0.429   6.753   4.662  0.2517  0.5439  0.0473
10652TIP3    H153447   0.519   6.757   4.692 -0.1710  1.1033  1.2971
10652TIP3    H253448   0.403   6.844   4.651 -0.4359  0.4118  0.5498
10653TIP3   OH253449   3.801   1.935   6.641  0.6002  0.3157  0.1518
10653TIP3    H153450   3.863   2.003   6.668 -1.2364  1.1578  2.6774
10653TIP3    H253451   3.736   1.982   6.589  0.8772 -0.1328 -0.6179
10654TIP3   OH253452   3.967   3.742  13.071  0.5297 -0.0918  0.2750
10654TIP3    H153453   3.975   3.703  13.158 -3.2733 -0.2561  0.7006
10654TIP3    H253454   3.922   3.825  13.086  0.8597  0.4457 -1.4752
10655TIP3   OH253455   0.227   2.660   0.636 -0.3875 -0.3061 -0.0668
10655TIP3    H153456   0.252   2.752   0.634 -0.4544 -0.2984 -0.7479
10655TIP3    H253457   0.204   2.643   0.727  0.1295  0.2138  0.1631
10656TIP3   OH253458   5.694   6.551   0.012 -0.1050 -0.2292  0.3976
10656TIP3    H153459   5.676   6.484   0.078 -2.5862 -1.4903 -1.3798
10656TIP3    H253460   5.776   6.523  -0.029 -0.6886 -1.8048  0.2197
10657TIP3   OH253461   0.869   3.965  14.553  0.5638 -0.5212 -0.1097
10657TIP3    H153462   0.780   3.932  14.566 -0.0425  1.5790  1.6197
10657TIP3    H253463   0.866   4.011  14.469 -0.4000  0.6300  0.5210
10658TIP3   OH253464   2.590   0.897   6.037  0.1241  0.0345  0.0350
10658TIP3    H153465   2.546   0.938   6.112  0.3165  0.7622 -0.2394
10658TIP3    H253466   2.661   0.846   6.076  0.1196  0.2761  0.3632
10659TIP3   OH253467   5.490   3.943   5.324  0.0917 -0.7161 -0.3614
10659TIP3    H153468   5.561   3.880   5.332  0.7034 -0.0457 -0.4231
10659TIP3    H253469   5.476   3.953   5.230  0.4591 -0.2590 -0.3726
10660TIP3   OH253470   2.053   0.082  11.612  0.2815 -0.1380 -0.7978
10660TIP3    H153471   2.016   0.165  11.644 -1.4175 -0.1626 -2.5225
10660TIP3    H253472   2.105   0.049  11.686 -1.8101  0.7587  1.1915
10661TIP3   OH253473   3.969   4.491  12.311 -0.0990  0.2938 -0.1128
10661TIP3    H153474   4.033   4.562  12.316 -0.0564  0.2641 -0.2204
10661TIP3    H253475   3.908   4.518  12.242  0.1224  0.0628 -0.4039
10662TIP3   OH253476   6.298   1.050   0.502 -0.4424 -0.0956  0.1722
10662TIP3    H153477   6.302   0.988   0.428  0.6913  1.5691 -1.2396
10662TIP3    H253478   6.209   1.087   0.497 -0.4642 -0.1905 -0.1869
10663TIP3   OH253479   4.330   2.137  12.123 -0.2799  0.0239  0.5947
10663TIP3    H153480   4.260   2.166  12.181 -1.1448  1.6616 -1.1427
10663TIP3    H253481   4.409   2.181  12.157 -0.7791  0.9869  0.5534
10664TIP3   OH253482   4.326   2.546   3.050  0.7869  0.1897 -0.2554
10664TIP3    H153483   4.323   2.623   2.994  2.2373 -0.0254 -0.6697
10664TIP3    H253484   4.347   2.474   2.991  0.2646 -0.4021  0.2590
10665TIP3   OH253485   0.342   4.453  16.963  0.4517 -0.5286  0.0321
10665TIP3    H153486   0.373   4.539  16.992  0.4636 -1.0303  1.5946
10665TIP3    H253487   0.421   4.399  16.958  0.2437 -0.9277  0.8521
10666TIP3   OH253488   5.963   2.011  11.800 -0.1945  0.0681  0.0151
10666TIP3    H153489   6.039   1.995  11.857  0.5145  2.0599 -0.2830
10666TIP3    H253490   5.905   1.936  11.816 -0.1465  0.5860  3.5289
10667TIP3   OH253491   2.063   0.953  12.844 -0.3672 -0.2521  0.3986
10667TIP3    H153492   2.094   0.993  12.763 -2.1037  0.5931  0.1023
10667TIP3    H253493   2.141   0.946  12.899  0.5912  0.3934 -0.8292
10668TIP3   OH253494   2.663   4.860   1.036 -0.3048 -0.5020  0.9718
10668TIP3    H153495   2.649   4.792   0.971 -0.5503  0.0589  0.4328
10668TIP3    H253496   2.699   4.814   1.112 -0.0853 -1.1676  0.4671
10669TIP3   OH253497   1.162   1.092  11.901  0.3023  0.0770  0.0344
10669TIP3    H153498   1.122   1.059  11.982  0.8662  0.8677  0.6554
10669TIP3    H253499   1.098   1.073  11.833  0.6418 -2.4326  0.3022
10670TIP3   OH253500   3.238   4.837  14.735  0.2622 -0.0938 -0.4472
10670TIP3    H153501   3.208   4.914  14.783 -0.8221  0.4172 -1.8534
10670TIP3    H253502   3.159   4.784  14.723  0.1488  0.5057 -2.8733
10671TIP3   OH253503   5.620   2.013  15.341 -0.6996  0.1356  0.1845
10671TIP3    H153504   5.560   2.086  15.349 -0.9778  0.1417 -1.4960
10671TIP3    H253505   5.567   1.943  15.302  0.0929 -0.2249 -0.2683
10672TIP3   OH253506   2.184   6.177  12.376  0.4146 -0.2388 -0.0519
10672TIP3    H153507   2.213   6.085  12.372  1.2877 -0.0429  1.2547
10672TIP3    H253508   2.110   6.176  12.437  0.7241 -0.0097  0.3307
10673TIP3   OH253509   2.512   1.968   2.673  0.3342 -0.4102  0.4026
10673TIP3    H153510   2.587   1.960   2.732  1.4108  1.3258 -0.6548
10673TIP3    H253511   2.458   2.037   2.711 -0.0295 -0.6995  0.4211
10674TIP3   OH253512   1.531   3.308  16.891  0.2096  0.0639 -0.3059
10674TIP3    H153513   1.594   3.298  16.963  2.3512 -0.1787 -2.0744
10674TIP3    H253514   1.488   3.223  16.885  0.2502 -0.0166  0.4880
10675TIP3   OH253515   0.289   2.321  17.327 -0.6677 -0.0637  0.0290
10675TIP3    H153516   0.274   2.294  17.418  0.6368  1.0113  0.5978
10675TIP3    H253517   0.349   2.395  17.334 -1.6392  0.9350 -1.6437
10676TIP3   OH253518   2.783   0.969  11.963 -0.1506  0.1414 -0.0876
10676TIP3    H153519   2.723   1.029  12.008  0.0446 -0.3418  0.8546
10676TIP3    H253520   2.760   0.976  11.871 -1.8175 -0.1701  0.2655
10677TIP3   OH253521   5.506   0.176  11.344 -0.0710 -0.1178  0.1873
10677TIP3    H153522   5.415   0.189  11.319 -0.2011 -0.7100  0.3318
10677TIP3    H253523   5.550   0.153  11.262  0.0729  0.7471  0.0113
10678TIP3   OH253524   4.907   2.238  13.005  0.1349 -0.0674  0.6300
10678TIP3    H153525   4.902   2.223  12.911 -0.8413 -0.4161  0.7233
10678TIP3    H253526   4.988   2.287  13.018  0.4463 -0.3130 -0.3498
10679TIP3   OH253527   3.436   4.906  15.207  0.3789 -0.5873  0.1564
10679TIP3    H153528   3.522   4.914  15.164  0.1045 -0.6518 -0.4201
10679TIP3    H253529   3.387   4.848  15.149 -0.5725  0.6667 -0.3232
10680TIP3   OH253530   3.985   4.546  15.303 -0.7029  0.1464 -0.0995
10680TIP3    H153531   4.065   4.510  15.265 -1.1520  0.0906 -1.0192
10680TIP3    H253532   4.005   4.638  15.319 -0.8597  0.4634 -1.5612
10681TIP3   OH253533   5.709   3.223  12.168  0.1498  0.1517 -0.4367
10681TIP3    H153534   5.643   3.204  12.102 -0.8194  1.1468  0.2270
10681TIP3    H253535   5.722   3.139  12.213  0.4687 -0.4157 -1.5514
10682TIP3   OH253536   5.345   2.806  16.947 -0.0653 -0.5584 -0.3651
10682TIP3    H153537   5.366   2.899  16.956 -2.0772 -0.1161  0.2362
10682TIP3    H253538   5.307   2.798  16.860 -2.6108 -0.1791  0.6251
10683TIP3   OH253539   1.930   3.935   6.019  0.0108  0.3365 -0.4210
10683TIP3    H153540   1.914   3.868   5.952 -0.0170  1.5182 -1.6461
10683TIP3    H253541   1.908   3.892   6.101  0.3762 -1.2914 -1.1190
10684TIP3   OH253542   6.496   3.978  16.934 -0.3484  0.1457  0.2937
10684TIP3    H153543   6.437   4.046  16.902 -0.9048  0.1125  1.2281
10684TIP3    H253544   6.480   3.903  16.877 -0.4758  0.4621 -0.0880
10685TIP3   OH253545   1.106   0.683  11.945  0.6164  0.5872  0.4303
10685TIP3    H153546   1.201   0.686  11.947  0.6034  1.2440  0.0930
10685TIP3    H253547   1.085   0.589  11.945  1.2458  0.4410  1.0100
10686TIP3   OH253548   5.829   3.165   3.859 -0.6965 -0.4934  0.3695
10686TIP3    H153549   5.789   3.247   3.887 -0.9652 -1.5020  3.3382
10686TIP3    H253550   5.850   3.119   3.940 -1.0127 -3.5904 -1.1161
10687TIP3   OH253551   4.375   4.669   6.028  0.0927  0.6140 -0.6638
10687TIP3    H153552   4.351   4.761   6.020  0.7813  0.8184 -0.3976
10687TIP3    H253553   4.451   4.668   6.087 -0.2737 -0.1716 -0.1768
10688TIP3   OH253554   0.579   3.218   2.712  0.0887 -0.3071  0.1005
10688TIP3    H153555   0.553   3.285   2.775 -0.6404 -1.2364  0.8189
10688TIP3    H253556   0.548   3.252   2.628  0.6943  0.7515  0.2834
10689TIP3   OH253557   5.064   3.319  12.447  0.4176 -0.5318  0.3255
10689TIP3    H153558   5.120   3.396  12.457  1.8247 -1.5695  0.7723
10689TIP3    H253559   5.105   3.269  12.376  0.1428 -1.3774  0.7495
10690TIP3   OH253560   5.564   1.947   3.887 -0.2512  0.2879 -0.0840
10690TIP3    H153561   5.647   1.941   3.933 -0.2003  0.6249 -0.1318
10690TIP3    H253562   5.499   1.913   3.949 -0.3571  1.8893  0.7068
10691TIP3   OH253563   3.226   3.328  11.742 -0.3828 -0.2937  0.4782
10691TIP3    H153564   3.278   3.250  11.764 -2.2472 -1.8270 -0.2420
10691TIP3    H253565   3.176   3.346  11.821 -0.1528  0.0235  0.5536
10692TIP3   OH253566   2.725   4.357   3.266 -0.0396  0.1146 -0.6957
10692TIP3    H153567   2.766   4.419   3.326  1.7513 -3.4861  2.1981
10692TIP3    H253568   2.788   4.349   3.194  1.9839 -1.4050  1.0925
10693TIP3   OH253569   5.939   5.541  15.314  0.3401  0.0470 -0.8887
10693TIP3    H153570   5.883   5.530  15.391 -0.4777 -0.8885 -1.5952
10693TIP3    H253571   5.977   5.454  15.299 -0.0108  0.0484 -1.9053
10694TIP3   OH253572   4.390   4.137  16.202 -0.2861 -0.3620 -0.6100
10694TIP3    H153573   4.392   4.232  16.186  0.3731 -0.2631  0.0095
10694TIP3    H253574   4.313   4.124  16.257 -0.3706 -0.1839 -0.6829
10695TIP3   OH253575   5.414   3.637  11.399 -0.6001  0.1191  0.0582
10695TIP3    H153576   5.502   3.600  11.396  1.9670  5.2860 -0.2412
10695TIP3    H253577   5.396   3.664  11.309 -0.7774  2.3568  0.7090
10696TIP3   OH253578   3.271   6.622   5.725 -0.3440  0.4101 -0.3436
10696TIP3    H153579   3.359   6.587   5.712 -0.5930 -0.5833  0.4732
10696TIP3    H253580   3.283   6.694   5.787  0.0518  1.1651 -1.2792
10697TIP3   OH253581   0.606   4.562   4.582  0.1609  0.2643  0.1833
10697TIP3    H153582   0.580   4.637   4.529 -2.0112 -1.3239 -1.1714
10697TIP3    H253583   0.627   4.493   4.518  1.1295 -0.6063  1.3777
10698TIP3   OH253584   6.249   5.345  13.941  0.6083 -0.1166 -0.1476
10698TIP3    H153585   6.258   5.318  14.033 -0.2367  0.4611  0.1193
10698TIP3    H253586   6.243   5.440  13.945 -0.5793 -0.1503 -0.6887
10699TIP3   OH253587   3.750   4.730  15.274 -0.3105  0.3882 -0.1645
10699TIP3    H153588   3.805   4.703  15.201  0.3973  0.0533  0.4793
10699TIP3    H253589   3.762   4.825  15.278  1.4733  0.1776  0.9097
10700TIP3   OH253590   0.993   4.534  15.977  0.4832 -0.1728 -0.2993
10700TIP3    H153591   1.033   4.528  16.064 -1.7543 -0.3188  0.7690
10700TIP3    H253592   0.933   4.459  15.973 -2.7812  2.2260 -0.1056
10701TIP3   OH253593   0.662   4.214  11.608  0.4510  0.6051 -0.5186
10701TIP3    H153594   0.747   4.258  11.609 -0.6444  3.0658  2.5428
10701TIP3    H253595   0.630   4.225  11.519  3.4058 -0.7638 -1.8788
10702TIP3   OH253596   4.830   1.255   6.810 -0.1475  0.0434  0.0732
10702TIP3    H153597   4.872   1.176   6.844 -0.8768 -0.3191  0.1532
10702TIP3    H253598   4.889   1.327   6.835  0.5064 -0.4702  0.0190
10703TIP3   OH253599   5.175   2.124  10.673 -0.1561  0.2745  0.3024
10703TIP3    H153600   5.263   2.144  10.703  0.8918 -1.7415 -1.2115
10703TIP3    H253601   5.182   2.120  10.578 -1.3252 -2.0464  0.2285
10704TIP3   OH253602   2.567   2.767  14.363 -0.2091 -0.3126  0.0907
10704TIP3    H153603   2.593   2.736  14.450 -0.1404  1.5184  0.7811
10704TIP3    H253604   2.472   2.752  14.360 -0.5331  1.1616  1.2346
10705TIP3   OH253605   6.682   0.931  14.199  0.5387 -0.2312 -0.1219
10705TIP3    H153606   6.638   0.846  14.190  2.3243 -1.0103 -3.0608
10705TIP3    H253607   6.621   0.994  14.161  0.3067 -0.6687 -0.4862
10706TIP3   OH253608   1.359   4.954   3.714  0.2766 -0.3458 -0.2124
10706TIP3    H153609   1.422   5.025   3.700  0.6838 -0.5057  0.7274
10706TIP3    H253610   1.279   4.998   3.741  0.6515 -0.2567  0.7777
10707TIP3   OH253611   0.938   4.132  15.409 -0.2614 -0.2344 -0.3005
10707TIP3    H153612   0.845   4.119  15.390 -0.3448  0.6423 -0.5603
10707TIP3    H253613   0.976   4.158  15.325 -0.1098  1.0188  0.1262
10708TIP3   OH253614   4.048   6.158  16.842  0.2685 -0.0316 -0.1109
10708TIP3    H153615   4.086   6.174  16.755 -1.6709 -0.6381 -1.1389
10708TIP3    H253616   4.097   6.083  16.876 -0.0273 -0.8528 -1.4219
10709TIP3   OH253617   2.788   0.679  12.626 -0.2993 -0.4504 -0.2282
10709TIP3    H153618   2.831   0.725  12.554 -0.0991 -1.1046 -0.5280
10709TIP3    H253619   2.696   0.707  12.621  0.3155  2.2348  1.4116
10710TIP3   OH253620   0.223   0.133  14.792  0.5999 -0.3604 -0.2865
10710TIP3    H153621   0.170   0.093  14.860 -0.8545  1.6381 -0.1464
10710TIP3    H253622   0.187   0.098  14.710  0.1745 -0.2961 -0.1289
10711TIP3   OH253623   0.414   4.876  16.110 -0.4660 -0.2851 -0.2136
10711TIP3    H153624   0.456   4.904  16.029 -1.1516  1.5192  0.0236
10711TIP3    H253625   0.331   4.923  16.112  1.0811  2.7756  3.3157
10712TIP3   OH253626   2.826   3.067   6.010  0.3767 -0.0170 -0.2076
10712TIP3    H153627   2.754   3.018   6.050  0.6104 -0.1449  0.0616
10712TIP3    H253628   2.836   3.029   5.923  1.2888 -1.2043  0.4010
10713TIP3   OH253629   1.270   6.540   0.294 -0.1093  0.1464 -0.4502
10713TIP3    H153630   1.176   6.531   0.311  0.0530 -1.7169 -0.3719
10713TIP3    H253631   1.291   6.630   0.321 -1.9971  0.8401 -1.1622
10714TIP3   OH253632   5.541   5.194   0.489 -0.0961 -0.7664  0.0572
10714TIP3    H153633   5.556   5.157   0.576  2.4621  1.6844  0.8143
10714TIP3    H253634   5.450   5.225   0.491  0.7215  2.0011  3.1358
10715TIP3   OH253635   5.362   3.436  14.086 -0.9149  0.5124 -0.3876
10715TIP3    H153636   5.292   3.431  14.020  0.0248 -1.5458 -1.3224
10715TIP3    H253637   5.327   3.388  14.161 -0.4992 -0.5904 -0.8856
10716TIP3   OH253638   1.816   5.626  12.470 -0.1592 -0.3313 -0.0613
10716TIP3    H153639   1.870   5.690  12.424 -0.3604 -0.1980 -0.1129
10716TIP3    H253640   1.879   5.563  12.507  0.0469 -0.0323  0.0998
10717TIP3   OH253641   4.621   1.027   1.401 -0.2857 -0.0856  0.5614
10717TIP3    H153642   4.630   0.995   1.491 -0.6078  1.5316  1.2020
10717TIP3    H253643   4.647   1.119   1.405 -0.1126 -0.0308 -1.0505
10718TIP3   OH253644   2.807   3.924   0.424  0.3006 -0.5774  0.1218
10718TIP3    H153645   2.804   3.999   0.483  0.8911 -1.0707  0.7907
10718TIP3    H253646   2.864   3.861   0.468 -1.1502 -1.9130  0.1634
10719TIP3   OH253647   6.676   6.153   3.861  0.3070  0.1537  0.4860
10719TIP3    H153648   6.725   6.188   3.935 -1.9711  1.2695  1.5656
10719TIP3    H253649   6.689   6.058   3.866 -0.8369  0.0439  3.2008
10720TIP3   OH253650   5.382   6.639  14.878  0.2549  0.1381  0.4499
10720TIP3    H153651   5.351   6.725  14.908  1.8867  0.3593  1.6488
10720TIP3    H253652   5.460   6.658  14.826  0.0997 -0.5579 -0.0482
10721TIP3   OH253653   1.014   5.685   6.492 -0.4480 -0.2544  0.6876
10721TIP3    H153654   1.038   5.744   6.564  1.3206 -1.3031  1.0157
10721TIP3    H253655   0.978   5.607   6.536 -1.1407 -0.1428  0.3346
10722TIP3   OH253656   2.212   3.747   1.972  0.2365  0.0747  1.0000
10722TIP3    H153657   2.121   3.724   1.954  0.1339  0.1140  1.4632
10722TIP3    H253658   2.237   3.804   1.899  0.3940 -1.2196  0.0109
10723TIP3   OH253659   4.991   5.593  11.392 -0.4012  0.3190  0.1490
10723TIP3    H153660   5.016   5.663  11.452  1.6311 -0.8429  0.7556
10723TIP3    H253661   5.055   5.524  11.407 -1.9010 -1.4107 -0.9419
10724TIP3   OH253662   0.282   5.921   1.639 -0.4370 -0.0969  0.3052
10724TIP3    H153663   0.216   5.864   1.599 -1.1797  0.1634  1.1516
10724TIP3    H253664   0.233   5.994   1.676  0.3764  0.3724  0.4850
10725TIP3   OH253665   5.502   4.256  14.275 -0.2737 -0.3446 -0.6894
10725TIP3    H153666   5.540   4.189  14.331 -0.4340 -0.2039 -0.4125
10725TIP3    H253667   5.455   4.314  14.335  0.9637  0.7787 -0.7774
10726TIP3   OH253668   2.638   5.799  16.978  0.3065 -0.1072  0.2660
10726TIP3    H153669   2.728   5.770  16.992  0.5496  0.8262  0.7452
10726TIP3    H253670   2.588   5.719  16.965  1.6117 -0.5680 -2.7077
10727TIP3   OH253671   6.511   5.347  13.450 -0.5251  0.4378  0.0048
10727TIP3    H153672   6.481   5.314  13.535 -0.0127 -0.2065 -0.0578
10727TIP3    H253673   6.519   5.269  13.396 -1.9026  0.9356 -0.9902
10728TIP3   OH253674   2.235   2.744  14.723 -0.1463  0.0137 -0.0648
10728TIP3    H153675   2.199   2.683  14.659  0.4836 -2.1912  1.5690
10728TIP3    H253676   2.166   2.754  14.788  0.1465  0.2161  0.2189
10729TIP3   OH253677   1.992   5.361  14.210  0.2684 -0.1286 -0.3647
10729TIP3    H153678   2.069   5.405  14.246  0.9139 -0.8707 -0.7871
10729TIP3    H253679   1.932   5.352  14.284  1.4088 -1.2871  0.4534
10730TIP3   OH253680   5.085   4.528   2.783 -0.0253 -0.7776  0.3256
10730TIP3    H153681   5.094   4.495   2.694 -1.8965  0.2647 -0.2995
10730TIP3    H253682   5.154   4.484   2.832 -0.7437 -3.6100 -1.0011
10731TIP3   OH253683   4.720   4.829   2.138 -0.0169 -0.1911  0.2013
10731TIP3    H153684   4.661   4.755   2.153  0.2930 -0.5448 -0.2934
10731TIP3    H253685   4.749   4.855   2.226 -0.4420 -0.3937  0.4058
10732TIP3   OH253686   6.158   4.693  11.350  0.0830 -0.1335  0.3100
10732TIP3    H153687   6.163   4.788  11.335 -0.5109 -0.2366 -0.6025
10732TIP3    H253688   6.225   4.656  11.292 -2.0654 -0.5168 -2.0935
10733TIP3   OH253689   4.656   4.075  16.257 -0.1669 -0.3578  0.1582
10733TIP3    H153690   4.650   4.161  16.298  0.0740  0.7640 -2.0045
10733TIP3    H253691   4.566   4.048  16.243 -0.2415 -0.0441  0.0318
10734TIP3   OH253692   2.407   3.255  11.549 -0.0367 -0.9575  0.3710
10734TIP3    H153693   2.418   3.210  11.632  1.1593 -0.5374  0.4556
10734TIP3    H253694   2.416   3.348  11.570  0.0514 -0.8332 -0.1889
10735TIP3   OH253695   3.654   2.290   4.535  0.1675 -0.0257 -0.3283
10735TIP3    H153696   3.606   2.338   4.603  0.2955  0.4575 -0.5743
10735TIP3    H253697   3.732   2.257   4.580 -1.0269 -1.9676  0.4098
10736TIP3   OH253698   5.336   0.852   3.653  0.0435 -0.7570  0.2816
10736TIP3    H153699   5.432   0.855   3.655  0.0401 -0.9053  0.9461
10736TIP3    H253700   5.312   0.804   3.732 -0.6183  0.3541  0.7732
10737TIP3   OH253701   4.547   1.260  14.211  0.2155  0.1939 -0.1111
10737TIP3    H153702   4.544   1.188  14.274  0.5502  0.5534  0.3155
10737TIP3    H253703   4.456   1.274  14.185  0.2378 -1.0879 -1.0017
10738TIP3   OH253704   1.783   4.626  12.931 -0.3233 -0.4191 -0.3814
10738TIP3    H153705   1.824   4.598  12.850  1.4339 -0.6759  0.5309
10738TIP3    H253706   1.808   4.560  12.995 -0.9155  0.2400  0.5640
10739TIP3   OH253707   4.704   0.087   4.351 -0.4219 -0.1275  0.7076
10739TIP3    H153708   4.628   0.032   4.336  1.2257 -3.3294  2.9835
10739TIP3    H253709   4.751   0.045   4.423  2.5237  2.7533  0.7251
10740TIP3   OH253710   3.603   6.280  11.064  0.3066  0.2563 -0.1356
10740TIP3    H153711   3.641   6.363  11.036  0.3642  0.8202  1.5097
10740TIP3    H253712   3.511   6.284  11.036  0.0995  1.2428  0.6296
10741TIP3   OH253713   0.068   4.643   1.037 -0.1797 -0.1543  0.2978
10741TIP3    H153714   0.156   4.652   1.000 -0.4656  1.4758 -0.0793
10741TIP3    H253715   0.010   4.662   0.964 -0.8156  0.0652  0.8539
10742TIP3   OH253716   1.628   3.303   3.891 -0.1675 -0.2585 -0.2756
10742TIP3    H153717   1.629   3.348   3.807 -1.3649  0.6607  0.1795
10742TIP3    H253718   1.603   3.213   3.869 -1.7250  0.2765 -0.7932
10743TIP3   OH253719   5.059   4.968  14.376 -0.0482 -0.0260  0.6366
10743TIP3    H153720   5.142   4.954  14.330  0.9608 -0.0421  2.3711
10743TIP3    H253721   5.029   4.879  14.398 -1.1436 -0.0908 -0.9461
10744TIP3   OH253722   1.976   2.089  14.520 -0.1445 -0.3029  0.3186
10744TIP3    H153723   2.031   2.111  14.445  0.2705  1.6443  1.1248
10744TIP3    H253724   1.925   2.169  14.537 -2.1464 -1.5508  0.5362
10745TIP3   OH253725   0.408   0.339   2.069  0.1281  0.0195  0.0951
10745TIP3    H153726   0.397   0.427   2.106  1.9774 -0.4114  1.8533
10745TIP3    H253727   0.322   0.298   2.078 -0.1907  0.9022  1.3612
10746TIP3   OH253728   3.117   2.572  15.842  0.0792 -0.4083 -0.2891
10746TIP3    H153729   3.066   2.495  15.868 -0.3746 -0.4157 -1.1655
10746TIP3    H253730   3.145   2.611  15.925 -0.2323 -1.1511  0.1791
10747TIP3   OH253731   0.951   1.435  11.822 -0.0404  0.1696  0.0227
10747TIP3    H153732   1.019   1.406  11.884  0.1505  0.9695  0.1984
10747TIP3    H253733   0.966   1.382  11.744 -0.5811 -1.2115  0.8042
10748TIP3   OH253734   1.224   4.198   3.321  0.0928  0.2991  0.1893
10748TIP3    H153735   1.280   4.174   3.396  0.0614 -0.9438 -0.1501
10748TIP3    H253736   1.183   4.280   3.346 -0.0609 -0.1867  1.6270
10749TIP3   OH253737   6.141   4.799  13.984 -0.5178 -0.4755  0.6111
10749TIP3    H153738   6.059   4.844  13.963  0.5570 -0.4969 -4.8984
10749TIP3    H253739   6.134   4.714  13.942  2.4598 -0.2572 -0.6014
10750TIP3   OH253740   2.191   4.497   5.100  0.2639 -0.1963  0.1710
10750TIP3    H153741   2.160   4.510   5.190 -0.7504 -0.0163 -0.1923
10750TIP3    H253742   2.284   4.475   5.110  0.6458  1.6334  1.1556
10751TIP3   OH253743   4.564   2.605   4.048 -0.1086  0.2111  0.0229
10751TIP3    H153744   4.543   2.661   4.123  0.7853 -0.2187  0.6264
10751TIP3    H253745   4.528   2.520   4.072  0.8534 -0.1252  0.3442
10752TIP3   OH253746   1.882   6.488   6.382 -0.1295  0.0234 -0.1679
10752TIP3    H153747   1.894   6.583   6.373  1.4786 -0.0223  0.9102
10752TIP3    H253748   1.961   6.451   6.341 -1.4787 -0.9702 -2.0123
10753TIP3   OH253749   0.013   2.044   3.997  0.3137 -0.8060 -0.0196
10753TIP3    H153750   0.039   2.110   4.061  0.7802 -0.6667 -0.3504
10753TIP3    H253751  -0.070   2.077   3.961  0.7230 -0.2118 -0.4421
10754TIP3   OH253752   2.817   4.227  12.566 -0.7745 -0.2506  0.0222
10754TIP3    H153753   2.761   4.292  12.608 -0.7557 -0.1972 -0.0355
10754TIP3    H253754   2.890   4.277  12.530  1.1083 -0.6304  2.9710
10755TIP3   OH253755   1.537   6.242  13.654 -0.2217 -0.2371 -0.1950
10755TIP3    H153756   1.629   6.226  13.634  0.1845  0.8096  0.7434
10755TIP3    H253757   1.517   6.325  13.611 -0.8358 -0.5995 -0.6433
10756TIP3   OH253758   0.227   0.311  12.040  0.5520  0.1242 -0.2703
10756TIP3    H153759   0.263   0.293  12.127 -1.1101  0.9194  0.6443
10756TIP3    H253760   0.303   0.329  11.986  1.5852  1.1327  1.4040
10757TIP3   OH253761   2.835   2.792  14.236 -0.9419  0.0142 -0.6979
10757TIP3    H153762   2.762   2.818  14.291 -0.3365 -1.0315  0.6516
10757TIP3    H253763   2.912   2.828  14.280 -0.5600  0.5322 -1.7389
10758TIP3   OH253764   4.624   2.645   5.873  0.5655 -0.6460 -0.3752
10758TIP3    H153765   4.569   2.588   5.926  0.9216  1.8441  2.9448
10758TIP3    H253766   4.562   2.691   5.816 -0.5280  0.2138  1.4392
10759TIP3   OH253767   1.550   5.040   4.268  0.0702  0.1542  0.4528
10759TIP3    H153768   1.498   4.999   4.198  2.3725 -3.0444  0.3584
10759TIP3    H253769   1.560   4.971   4.333  1.2845  1.7901  2.0838
10760TIP3   OH253770   3.270   2.487  15.389  0.3786 -0.0343  0.4135
10760TIP3    H153771   3.182   2.460  15.365  0.5473  1.0090 -1.5995
10760TIP3    H253772   3.327   2.446  15.324  1.2970 -0.0374  1.1878
10761TIP3   OH253773   1.155   5.776  13.013  0.1993 -0.5708 -0.2550
10761TIP3    H153774   1.189   5.834  13.082 -2.0168 -0.0314  0.4641
10761TIP3    H253775   1.062   5.768  13.033 -0.0164 -2.4310 -1.7877
10762TIP3   OH253776   3.322   4.269   4.445  0.2048  0.6437 -0.1414
10762TIP3    H153777   3.369   4.254   4.528  0.4820 -0.6851 -0.5207
10762TIP3    H253778   3.346   4.194   4.391 -1.1077  0.7812 -0.9255
10763TIP3   OH253779   6.446   6.091   2.233  0.4031  0.1377  0.1806
10763TIP3    H153780   6.525   6.107   2.182  0.9455 -0.9061  0.6529
10763TIP3    H253781   6.447   6.159   2.301  1.3009 -0.3215  0.6371
10764TIP3   OH253782   5.000   5.042  11.858 -1.2192 -0.0679  0.1056
10764TIP3    H153783   4.986   5.067  11.949 -0.2510  0.6359  0.0746
10764TIP3    H253784   4.913   5.014  11.827 -2.0987  2.0037  0.5342
10765TIP3   OH253785   5.826   1.928  10.885 -0.1677  0.1388  0.2696
10765TIP3    H153786   5.893   1.873  10.846 -1.9539  0.1759 -3.2467
10765TIP3    H253787   5.859   2.017  10.874  0.6339  0.0604  1.7107
10766TIP3   OH253788   1.231   6.008   0.778 -0.1451 -0.2078  0.0709
10766TIP3    H153789   1.276   5.927   0.757 -0.2132 -0.3283  0.3927
10766TIP3    H253790   1.201   6.041   0.693  0.6039 -0.0889 -0.1535
10767TIP3   OH253791   1.609   3.862  11.844  0.3172 -0.9066 -0.4326
10767TIP3    H153792   1.549   3.809  11.791  1.4713 -2.4353 -0.2887
10767TIP3    H253793   1.620   3.811  11.925  0.9706 -0.1306 -0.0263
10768TIP3   OH253794   1.006   0.487   2.068 -0.1493 -0.3940 -0.1395
10768TIP3    H153795   0.986   0.578   2.045  1.1951  0.1644  0.7731
10768TIP3    H253796   1.091   0.470   2.027 -0.2287 -1.1292 -0.0153
10769TIP3   OH253797   6.097   4.600   1.503 -0.1660  0.1089  0.2132
10769TIP3    H153798   6.184   4.632   1.477 -0.4804 -0.0559 -1.1060
10769TIP3    H253799   6.108   4.506   1.516 -0.0683  0.1511  0.4529
10770TIP3   OH253800   0.904   2.207   3.097 -0.0198 -0.1804  0.1189
10770TIP3    H153801   0.955   2.140   3.051 -1.8255 -1.3006 -0.3581
10770TIP3    H253802   0.830   2.159   3.134  0.0147  1.1397  2.0452
10771TIP3   OH253803   1.506   5.181   5.373  0.0204 -0.2182  0.0421
10771TIP3    H153804   1.534   5.108   5.428 -1.9213  0.0015  1.4227
10771TIP3    H253805   1.424   5.152   5.333  0.5333  0.2755 -1.4618
10772TIP3   OH253806   5.970   4.699   1.294 -0.3344 -0.0344  0.6648
10772TIP3    H153807   5.992   4.636   1.225 -0.1758  0.5602  0.1621
10772TIP3    H253808   6.003   4.659   1.374 -1.3957 -1.1923  0.5538
10773TIP3   OH253809   2.384   4.122   0.337 -0.2391 -0.2112 -0.1594
10773TIP3    H153810   2.342   4.068   0.404  1.3797 -2.8129 -1.0904
10773TIP3    H253811   2.438   4.061   0.287 -0.1069  1.9013 -2.8360
10774TIP3   OH253812   1.501   6.387  10.665  0.8561 -0.5154 -0.0363
10774TIP3    H153813   1.594   6.391  10.685  0.5064  2.4884  1.4096
10774TIP3    H253814   1.474   6.478  10.650 -1.4284 -1.4560 -2.7487
10775TIP3   OH253815   5.422   2.067   0.617 -0.3743  0.4968 -0.0900
10775TIP3    H153816   5.347   2.008   0.613  0.5567 -0.8006  0.8853
10775TIP3    H253817   5.492   2.019   0.573  1.2519 -0.5378  3.2905
10776TIP3   OH253818   3.038   3.864  13.371  0.1305  0.3237  0.6734
10776TIP3    H153819   3.112   3.837  13.425 -0.6180 -0.6364  1.2383
10776TIP3    H253820   3.077   3.924  13.306  1.4566 -0.4503  0.7188
10777TIP3   OH253821   0.696   3.858   1.112  0.2912  0.3820  0.3480
10777TIP3    H153822   0.606   3.865   1.141  0.1399 -0.8023  0.2321
10777TIP3    H253823   0.713   3.939   1.064 -0.3046  1.1580  1.4170
10778TIP3   OH253824   1.784   4.833   3.102  0.5132  0.0911  0.0693
10778TIP3    H153825   1.830   4.864   3.180  0.3275  0.1028  0.1756
10778TIP3    H253826   1.831   4.753   3.077  0.5556  0.0703  0.2116
10779TIP3   OH253827   4.873   3.165   5.773  0.6590  0.5479  0.3616
10779TIP3    H153828   4.873   3.124   5.859 -3.0198 -1.0271 -0.1932
10779TIP3    H253829   4.811   3.238   5.781  0.1305  0.2671 -0.9438
10780TIP3   OH253830   6.137   2.945  11.801  0.0633  0.0450 -0.1317
10780TIP3    H153831   6.214   2.888  11.805 -0.4816 -0.6256  1.2962
10780TIP3    H253832   6.072   2.895  11.753 -0.2712 -0.3619  0.7442
10781TIP3   OH253833   6.734   3.263  15.863 -0.2730  0.2004  0.1746
10781TIP3    H153834   6.679   3.289  15.788 -1.7381 -2.8020  0.0129
10781TIP3    H253835   6.824   3.274  15.833 -0.8362  0.8071 -1.3623
10782TIP3   OH253836   6.085   5.094  14.555 -0.2368  0.1090  0.1995
10782TIP3    H153837   6.009   5.054  14.597 -1.5837  1.5208 -0.7698
10782TIP3    H253838   6.079   5.066  14.463 -1.1368  2.2748 -0.4724
10783TIP3   OH253839   1.465   6.646  11.536  0.1403 -0.2644 -0.3139
10783TIP3    H153840   1.407   6.710  11.577 -0.8695 -0.3924 -1.4607
10783TIP3    H253841   1.489   6.586  11.606  0.7877  1.1092  0.7015
10784TIP3   OH253842   3.322   4.001  10.996 -0.5268  0.5928  0.1408
10784TIP3    H153843   3.340   3.918  11.041  1.0296  0.3191 -0.8977
10784TIP3    H253844   3.357   4.067  11.055 -1.3993  0.4917  0.7850
10785TIP3   OH253845   6.175   0.670  16.728 -0.4895  0.2338  0.0372
10785TIP3    H153846   6.138   0.759  16.728  0.7248  0.7600 -0.3649
10785TIP3    H253847   6.233   0.668  16.804 -0.3468 -0.1534 -0.0809
10786TIP3   OH253848   2.015   1.219   4.113  0.3295 -0.4876 -0.6559
10786TIP3    H153849   1.941   1.187   4.165  0.2426 -0.1559 -0.5707
10786TIP3    H253850   1.975   1.254   4.033  0.4442 -0.8078 -0.8534
10787TIP3   OH253851   4.178   1.443  16.255 -0.6585 -0.3447  0.1262
10787TIP3    H153852   4.225   1.406  16.181  1.9886  1.0271  1.0073
10787TIP3    H253853   4.165   1.535  16.233  1.4150  0.4448  1.8062
10788TIP3   OH253854   2.890   5.424   0.943 -0.3361 -0.7368 -0.5901
10788TIP3    H153855   2.961   5.418   0.879  0.6763 -0.1136  0.4408
10788TIP3    H253856   2.876   5.518   0.953  0.8997 -0.7071  1.5345
10789TIP3   OH253857   1.470   1.340  16.194 -0.0100  0.6117  0.1920
10789TIP3    H153858   1.398   1.347  16.130 -0.3672 -2.2044  0.1655
10789TIP3    H253859   1.428   1.355  16.278 -0.2333  0.9047  0.0330
10790TIP3   OH253860   5.924   1.826   2.774 -0.1113  0.0428  0.7236
10790TIP3    H153861   5.869   1.777   2.713 -1.6573  2.8421 -0.3145
10790TIP3    H253862   6.013   1.798   2.753 -0.5793  0.7073 -2.7389
10791TIP3   OH253863   3.998   4.686   5.583  0.4105 -0.6408 -0.0981
10791TIP3    H153864   3.906   4.701   5.563  0.4340 -2.1960 -1.5961
10791TIP3    H253865   4.040   4.771   5.570 -0.5291 -0.3386 -1.2973
10792TIP3   OH253866   1.331   4.477   3.784 -0.0544  0.3159  0.0741
10792TIP3    H153867   1.285   4.498   3.702 -1.9340 -0.1686  0.9376
10792TIP3    H253868   1.354   4.562   3.822  1.2131  0.5414 -1.1180
10793TIP3   OH253869   5.739   6.535   4.386  0.0731  0.1591 -0.0310
10793TIP3    H153870   5.661   6.547   4.333 -1.3412  0.2276  1.9768
10793TIP3    H253871   5.742   6.441   4.403 -0.7041  0.3906  1.4941
10794TIP3   OH253872   0.017   5.977  16.362 -0.1341  1.2639 -0.0875
10794TIP3    H153873   0.057   5.920  16.428 -0.4771  1.1231  0.0033
10794TIP3    H253874   0.001   5.919  16.287  1.3226  1.6670 -0.7532
10795TIP3   OH253875   0.994   4.486   2.690 -0.0388 -0.5905  0.4162
10795TIP3    H153876   1.036   4.443   2.764  0.1879  0.0591  0.6731
10795TIP3    H253877   0.973   4.574   2.721 -1.1061 -0.7242  0.1147
10796TIP3   OH253878   4.769   5.777   4.710  0.1670  0.8119 -0.4751
10796TIP3    H153879   4.844   5.764   4.652  0.5928  0.2104  0.1835
10796TIP3    H253880   4.786   5.860   4.754  0.2719  0.8496 -0.5878
10797TIP3   OH253881   3.938   0.533  16.916  0.4762  0.2630  0.2190
10797TIP3    H153882   3.843   0.522  16.924  0.7031 -2.0052  0.5363
10797TIP3    H253883   3.958   0.504  16.827  0.9000  0.6459  0.1855
10798TIP3   OH253884   3.226   4.257   6.493  0.0164 -0.3916  0.0559
10798TIP3    H153885   3.306   4.247   6.545  0.5651  1.6464 -0.3051
10798TIP3    H253886   3.171   4.183   6.519  0.7901 -0.1796  2.5766
10799TIP3   OH253887   4.919   2.622   4.169  0.0527  0.1511 -0.9005
10799TIP3    H153888   4.931   2.673   4.249  1.2566  0.2373 -1.1222
10799TIP3    H253889   4.880   2.540   4.199  0.0114  0.3868 -0.2897
10800TIP3   OH253890   2.361   5.301  17.139 -0.6502  0.2595 -0.7484
10800TIP3    H153891   2.285   5.293  17.196 -0.6376  0.6429 -0.6775
10800TIP3    H253892   2.333   5.260  17.056 -0.7714 -0.0187 -0.5733
10801TIP3   OH253893   5.798   6.604  13.658 -0.3356  0.4361  0.0889
10801TIP3    H153894   5.818   6.599  13.564 -0.1229  1.6150  0.0476
10801TIP3    H253895   5.784   6.514  13.685  1.6212 -0.1215 -0.6291
10802TIP3   OH253896   3.979   2.639  16.032 -0.2016  0.3337  0.0189
10802TIP3    H153897   4.033   2.699  15.981  0.1095 -0.0908 -0.1535
10802TIP3    H253898   4.039   2.568  16.058 -1.0770 -1.1727 -1.8431
10803TIP3   OH253899   6.221   1.652  10.658 -0.0869 -0.3155 -0.2004
10803TIP3    H153900   6.288   1.655  10.726 -0.6281 -0.5597  0.3487
10803TIP3    H253901   6.229   1.565  10.620 -1.1391 -0.9489  0.9523
10804TIP3   OH253902   2.620   5.107  12.466 -0.4440 -0.5508 -0.5533
10804TIP3    H153903   2.688   5.170  12.488 -0.8693  0.1787 -1.2632
10804TIP3    H253904   2.577   5.087  12.549 -0.2922  0.0777 -0.3205
10805TIP3   OH253905   1.051   5.070   0.120 -0.5342 -0.1573 -0.8440
10805TIP3    H153906   1.070   4.976   0.119  1.2427  0.1027  1.2529
10805TIP3    H253907   1.042   5.093   0.027  1.3134 -1.9884 -1.5699
10806TIP3   OH253908   0.067   3.275  10.663 -0.4703 -0.4862 -0.6633
10806TIP3    H153909   0.057   3.346  10.726  1.1407 -0.5336 -0.3071
10806TIP3    H253910   0.100   3.201  10.715 -1.4596 -1.2879 -1.1487
10807TIP3   OH253911   5.984   5.790  15.677  0.0913  0.1528  0.3035
10807TIP3    H153912   6.050   5.858  15.692  0.5383 -0.4852  1.3375
10807TIP3    H253913   5.975   5.747  15.762 -1.0816 -0.2893 -0.0405
10808TIP3   OH253914   0.125   5.375  13.342 -0.2610  0.0864  0.1052
10808TIP3    H153915   0.145   5.298  13.396  0.5135 -1.2222 -1.9221
10808TIP3    H253916   0.206   5.426  13.344  0.1642 -0.5257 -0.6485
10809TIP3   OH253917   0.051   3.452  16.576  0.2489  0.4149  0.4768
10809TIP3    H153918  -0.000   3.372  16.581 -0.0023  0.6373  1.5619
10809TIP3    H253919   0.141   3.422  16.560 -0.3031  0.0601 -2.7050
10810TIP3   OH253920   0.650   6.172   5.855 -0.0737  0.6757 -0.3184
10810TIP3    H153921   0.722   6.115   5.828 -1.3558  0.1929 -3.1187
10810TIP3    H253922   0.642   6.158   5.949  1.2074 -1.9813 -0.5127
10811TIP3   OH253923   4.921   2.365  15.510 -0.0899 -0.1098  0.1142
10811TIP3    H153924   4.976   2.440  15.533  1.1445 -1.2927  1.2768
10811TIP3    H253925   4.887   2.386  15.423 -0.5517  2.1768  0.7681
10812TIP3   OH253926   0.192   5.685   0.560  0.6533 -0.0179 -0.2990
10812TIP3    H153927   0.102   5.653   0.570  0.7754 -0.4663 -0.5857
10812TIP3    H253928   0.228   5.682   0.649 -0.0444  1.5141  0.0572
10813TIP3   OH253929   5.932   5.426   4.601 -0.1449  0.5232  0.4446
10813TIP3    H153930   5.947   5.342   4.557 -3.1352  0.4514 -0.6865
10813TIP3    H253931   5.949   5.492   4.533 -0.7017  0.6521  0.4260
10814TIP3   OH253932   2.589   1.517   2.687  0.4062  0.1603  0.0488
10814TIP3    H153933   2.570   1.435   2.641  0.1116 -0.8461  1.8473
10814TIP3    H253934   2.508   1.568   2.679 -0.1387 -0.5922  0.6168
10815TIP3   OH253935   5.412   3.694  15.424 -0.2006 -0.1609  0.4054
10815TIP3    H153936   5.396   3.663  15.335  3.3685  0.4259 -0.6000
10815TIP3    H253937   5.449   3.618  15.470  0.8207  0.3335  0.4293
10816TIP3   OH253938   5.775   2.112  15.122 -0.5532 -0.4496 -0.5488
10816TIP3    H153939   5.784   2.158  15.206 -2.0611 -1.0114 -0.0452
10816TIP3    H253940   5.729   2.031  15.144  1.3700 -1.8882 -1.5379
10817TIP3   OH253941   5.419   0.298   5.145  0.1268  0.5668  0.1339
10817TIP3    H153942   5.341   0.309   5.199 -0.4586  0.5857 -0.6986
10817TIP3    H253943   5.424   0.204   5.129  1.5899  0.2389  2.0557
10818TIP3   OH253944   4.976   6.752  11.639  0.3450  0.2037  0.5112
10818TIP3    H153945   4.890   6.740  11.678 -0.2864  1.9662 -0.2512
10818TIP3    H253946   4.994   6.669  11.595 -2.1953  0.6823 -1.6452
10819TIP3   OH253947   6.463   6.710   5.081 -0.8170 -0.0858  0.3443
10819TIP3    H153948   6.513   6.630   5.101 -0.0803  0.4437  0.6585
10819TIP3    H253949   6.493   6.736   4.994 -0.5723  0.2102  0.5161
10820TIP3   OH253950   3.938   4.287  16.309 -0.7605 -0.3342 -0.1839
10820TIP3    H153951   3.998   4.317  16.240 -0.5824 -2.0266 -0.8213
10820TIP3    H253952   3.900   4.207  16.274 -1.1938 -0.8677  1.4251
10821TIP3   OH253953   0.432   0.565   4.111  0.9719  0.2027  0.0754
10821TIP3    H153954   0.426   0.590   4.204  0.2868 -0.3601  0.1879
10821TIP3    H253955   0.384   0.483   4.105 -1.9179  1.8397 -1.3713
10822TIP3   OH253956   2.902   6.135  16.304  0.2760  0.0976 -0.1534
10822TIP3    H153957   2.836   6.131  16.235  0.9913  0.0789 -0.8409
10822TIP3    H253958   2.855   6.172  16.379 -0.6422 -0.3624 -0.4821
10823TIP3   OH253959   4.023   2.327   1.253  0.2530  0.4069  0.3951
10823TIP3    H153960   4.081   2.394   1.288 -0.6430  1.9321 -0.9230
10823TIP3    H253961   3.960   2.375   1.200  0.0727 -1.5366 -1.2748
10824TIP3   OH253962   6.338   1.745   2.340 -0.9361  0.0869 -0.5178
10824TIP3    H153963   6.260   1.696   2.367 -0.2979 -0.3098  0.6792
10824TIP3    H253964   6.344   1.730   2.246 -2.8334  0.9138 -0.8107
10825TIP3   OH253965   5.416   5.301  16.537 -0.3518 -0.1445 -0.4449
10825TIP3    H153966   5.390   5.387  16.503 -0.9188 -0.7458 -1.5924
10825TIP3    H253967   5.473   5.321  16.611 -0.4636  1.2219 -0.6974
10826TIP3   OH253968   4.721   4.154   4.076 -0.5965  0.8930 -0.0700
10826TIP3    H153969   4.752   4.118   4.159  0.5846 -1.0627 -1.2576
10826TIP3    H253970   4.632   4.184   4.093 -0.8441 -0.6527  1.5863
10827TIP3   OH253971   2.206   1.593  11.679  0.4842 -0.0360  0.7256
10827TIP3    H153972   2.134   1.644  11.716  0.9987  0.4439  1.0879
10827TIP3    H253973   2.285   1.636  11.713  0.9293 -0.9882  0.9196
10828TIP3   OH253974   2.283   6.278   1.227  0.1331  0.1701  0.2703
10828TIP3    H153975   2.363   6.226   1.225  1.8244  2.5303  1.3583
10828TIP3    H253976   2.227   6.238   1.161  2.6199 -0.9700 -1.3272
10829TIP3   OH253977   4.488   2.914   3.968  0.5341  0.4410 -0.1968
10829TIP3    H153978   4.550   2.922   3.896 -0.8893 -0.4622 -1.5776
10829TIP3    H253979   4.506   2.828   4.006  1.7013  1.1716  0.9723
10830TIP3   OH253980   1.553   2.473   0.775 -0.1508  0.2149 -0.3065
10830TIP3    H153981   1.526   2.502   0.862  3.0813 -0.4192  1.0113
10830TIP3    H253982   1.499   2.526   0.715 -2.0589  1.0784  2.0038
10831TIP3   OH253983   5.089   6.371  15.425  0.0978  0.3543 -0.4621
10831TIP3    H153984   5.060   6.318  15.500  0.0828  1.2506  0.1732
10831TIP3    H253985   5.070   6.316  15.349 -1.1602 -0.0278  0.0985
10832TIP3   OH253986   1.207   2.773  13.250 -0.1116  0.1067  0.0512
10832TIP3    H153987   1.197   2.677  13.256  0.4895  0.0520  0.2069
10832TIP3    H253988   1.263   2.796  13.323  0.2289  0.5076 -0.3314
10833TIP3   OH253989   0.850   4.087  15.115 -0.3075  0.0306 -0.2307
10833TIP3    H153990   0.873   4.132  15.033 -0.2443 -0.8339 -0.7027
10833TIP3    H253991   0.908   4.012  15.117 -3.0166 -2.2895 -1.4873
10834TIP3   OH253992   1.963   5.658  15.695  0.0023 -0.1507  0.3172
10834TIP3    H153993   1.955   5.563  15.682 -0.5140  0.1061 -1.5345
10834TIP3    H253994   1.889   5.681  15.750  1.7625 -1.1873  3.3919
10835TIP3   OH253995   5.510   1.702   0.134 -0.2178 -0.0097  0.8656
10835TIP3    H153996   5.427   1.742   0.159  0.0274  0.1109  1.4882
10835TIP3    H253997   5.575   1.741   0.192  0.4425  0.6379 -0.2731
10836TIP3   OH253998   1.001   4.711   3.167  0.8586 -0.5358  0.2291
10836TIP3    H153999   1.086   4.719   3.125  0.4738  0.1425 -0.4653
10836TIP3    H254000   0.971   4.802   3.177  0.2965 -0.7585  0.6240
10837TIP3   OH254001   4.875   5.945  14.120 -0.4022 -0.3431 -0.0030
10837TIP3    H154002   4.933   5.932  14.045  1.5458  1.8643  0.9925
10837TIP3    H254003   4.793   5.977  14.081  0.5454  0.7047 -1.2150
10838TIP3   OH254004   6.320   3.958  17.173 -0.0870  0.6560  0.3875
10838TIP3    H154005   6.360   3.898  17.111 -2.0759  2.0774 -2.5207
10838TIP3    H254006   6.392   4.013  17.204  1.3088 -1.4593  1.0978
10839TIP3   OH254007   3.339   2.542   4.907  0.2506 -0.3488 -0.2708
10839TIP3    H154008   3.356   2.592   4.987 -3.3683 -0.6500  0.8454
10839TIP3    H254009   3.369   2.600   4.836  0.9898  1.1153  1.1779
10840TIP3   OH254010   3.841   4.011  12.875 -0.2030 -0.0902 -0.0318
10840TIP3    H154011   3.750   3.981  12.865  0.1424 -0.8894 -0.9327
10840TIP3    H254012   3.881   3.993  12.790  0.7020  0.6164  0.2358
10841TIP3   OH254013   5.531   5.862  13.147 -0.2184  0.1778 -0.5090
10841TIP3    H154014   5.526   5.925  13.075  0.6560  0.9818  0.1040
10841TIP3    H254015   5.561   5.781  13.107  1.1054  0.8485 -0.9524
10842TIP3   OH254016   0.330   5.142   4.648 -1.0213  0.1998  0.1051
10842TIP3    H154017   0.260   5.176   4.592  0.2515  0.5783 -1.3246
10842TIP3    H254018   0.303   5.052   4.668 -1.8712  0.3120 -0.4819
10843TIP3   OH254019   1.985   6.056   4.451  0.4698 -0.2387 -0.0313
10843TIP3    H154020   2.080   6.057   4.447  0.4647 -0.5096 -0.3047
10843TIP3    H254021   1.965   6.017   4.536  0.6048 -0.5956 -0.1606
10844TIP3   OH254022   4.479   0.533  15.974 -0.1838 -0.2765  0.4822
10844TIP3    H154023   4.555   0.559  15.923  0.4631  1.4131  2.1975
10844TIP3    H254024   4.433   0.614  15.993 -3.2309 -1.3200 -1.5401
10845TIP3   OH254025   3.999   3.272  14.461 -0.7159 -0.2755 -0.5761
10845TIP3    H154026   4.080   3.289  14.413  0.5975  0.1574  1.6365
10845TIP3    H254027   3.966   3.359  14.483 -2.1818 -0.4340 -2.0119
10846TIP3   OH254028   3.674   4.724   2.606  0.0915  0.2294  0.1588
10846TIP3    H154029   3.743   4.783   2.576 -1.2994  2.7168  1.5523
10846TIP3    H254030   3.593   4.773   2.594 -1.6237 -2.7921 -1.9278
10847TIP3   OH254031   5.949   2.482  15.566 -0.1294  0.7629 -0.0892
10847TIP3    H154032   5.932   2.520  15.652  0.5732  2.4191 -0.6276
10847TIP3    H254033   5.898   2.536  15.505 -0.6082 -0.3765 -0.7198
10848TIP3   OH254034   2.884   3.389   3.784 -0.3891  0.2974 -0.7744
10848TIP3    H154035   2.915   3.334   3.856 -1.7243  0.2497 -0.2145
10848TIP3    H254036   2.964   3.413   3.737  0.5803  0.7278  0.9848
10849TIP3   OH254037   0.889   5.951   0.483  0.2240  0.7066  0.1982
10849TIP3    H154038   0.922   5.876   0.532 -1.7687  0.1355  0.7627
10849TIP3    H254039   0.815   5.916   0.433  0.3936  1.9186 -0.9579
10850TIP3   OH254040   6.067   3.523   5.319  0.1312 -0.1934  0.1215
10850TIP3    H154041   5.987   3.478   5.292 -0.7036  0.1028  1.9354
10850TIP3    H254042   6.041   3.614   5.329  0.8731  0.0282  0.0870
10851TIP3   OH254043   6.147   2.843  15.938  0.4518 -0.0407  0.1168
10851TIP3    H154044   6.179   2.879  15.855  0.3407 -0.9302 -0.3235
10851TIP3    H254045   6.113   2.919  15.986  0.8226  0.5307 -0.5070
10852TIP3   OH254046   3.422   4.051   4.348 -0.4015  0.3166  0.1592
10852TIP3    H154047   3.368   3.974   4.328  0.2930 -0.4146  0.9601
10852TIP3    H254048   3.511   4.016   4.354  0.0594  1.3625 -0.3796
10853TIP3   OH254049   2.029   3.465  17.338 -0.7743 -0.5893  0.1230
10853TIP3    H154050   2.053   3.417  17.417 -0.6615  1.4391  1.4029
10853TIP3    H254051   1.935   3.482  17.347 -0.7053 -0.1023 -0.0278
10854TIP3   OH254052   4.403   4.994  14.377  0.0484 -0.5204 -0.1832
10854TIP3    H154053   4.307   4.996  14.371  0.0358 -2.0541 -1.2855
10854TIP3    H254054   4.432   4.986  14.286  1.2759  0.7865  0.0752
10855TIP3   OH254055   0.090   4.328  17.007 -0.2954  0.1064  0.6690
10855TIP3    H154056   0.167   4.384  16.997 -0.1665 -0.1002  0.5086
10855TIP3    H254057   0.086   4.277  16.926 -2.4277  2.3736 -0.8266
10856TIP3   OH254058   1.791   1.304   0.660  0.2361 -0.1921  0.3164
10856TIP3    H154059   1.870   1.356   0.642 -0.2193  0.3276 -0.2393
10856TIP3    H254060   1.804   1.272   0.749  1.7900 -1.4243 -0.2905
10857TIP3   OH254061   4.977   0.709  17.204 -0.0062 -0.0870  0.1979
10857TIP3    H154062   4.952   0.645  17.270 -1.6789  0.0358 -0.2722
10857TIP3    H254063   5.017   0.781  17.253  0.7845 -0.9395  0.8390
10858TIP3   OH254064   1.940   0.945   1.090 -0.4343 -0.3633 -0.4167
10858TIP3    H154065   1.991   0.928   1.169 -0.8936  0.6460  0.1042
10858TIP3    H254066   1.863   0.889   1.098  0.1150 -1.1796 -0.7492
10859TIP3   OH254067   5.779   3.027   3.139  0.6767 -0.1493 -0.4185
10859TIP3    H154068   5.774   3.102   3.198  0.0646 -1.0520  0.6992
10859TIP3    H254069   5.704   3.037   3.081  1.3577  0.8144 -1.1729
10860TIP3   OH254070   3.815   2.927  15.592 -0.1313  0.1638 -0.6275
10860TIP3    H154071   3.781   2.955  15.507 -0.3731  1.9577  0.0040
10860TIP3    H254072   3.867   2.849  15.573 -1.2195 -0.2208 -2.2141
10861TIP3   OH254073   6.660   5.521   1.446  0.2152 -0.1457  0.4037
10861TIP3    H154074   6.573   5.483   1.442  0.3871 -0.4046 -1.4889
10861TIP3    H254075   6.655   5.584   1.519 -1.9713  0.8875 -0.5318
10862TIP3   OH254076   1.737   2.367  15.568 -0.4547 -0.3205  0.2879
10862TIP3    H154077   1.831   2.381  15.578 -0.9319  5.5248  0.0265
10862TIP3    H254078   1.709   2.332  15.653  1.8176 -2.5871  0.2417
10863TIP3   OH254079   6.269   5.203  13.055  0.0125 -0.0340  0.0486
10863TIP3    H154080   6.298   5.254  13.130  0.7914  0.2734 -0.4501
10863TIP3    H254081   6.288   5.112  13.078  1.3639  0.1483 -0.2349
10864TIP3   OH254082   1.542   2.747   4.700 -0.4343 -0.0774 -0.2053
10864TIP3    H154083   1.450   2.761   4.726 -0.4058  1.8132 -0.9501
10864TIP3    H254084   1.587   2.825   4.731  1.0583 -1.2042  0.5793
10865TIP3   OH254085   1.512   1.418  12.459  0.2281 -0.2293  0.5185
10865TIP3    H154086   1.551   1.390  12.542  0.5060  0.2513  0.5509
10865TIP3    H254087   1.558   1.367  12.393 -0.5010 -1.1641  0.6988
10866TIP3   OH254088   0.536   4.875   1.713  0.3659 -0.2276  0.1914
10866TIP3    H154089   0.607   4.907   1.657  0.3868  0.3508  0.5449
10866TIP3    H254090   0.456   4.901   1.668  0.3745  1.2472  0.9741
10867TIP3   OH254091   0.239   2.111  15.272  0.0579  0.2383  0.1161
10867TIP3    H154092   0.202   2.199  15.264 -0.1209  0.1427 -0.1036
10867TIP3    H254093   0.230   2.073  15.185 -0.8271 -0.3819  0.4692
10868TIP3   OH254094   1.004   3.468   1.949 -0.2226  0.1622  0.3980
10868TIP3    H154095   0.952   3.486   2.028  1.3339 -0.5554  1.6561
10868TIP3    H254096   0.943   3.481   1.877 -1.5427  1.5099  1.6705
10869TIP3   OH254097   4.765   2.433   0.520 -0.0433 -0.4821  0.1241
10869TIP3    H154098   4.686   2.398   0.479  0.1554 -0.7811 -0.0061
10869TIP3    H254099   4.813   2.356   0.551  0.2545 -0.3113  0.0943
10870TIP3   OH254100   0.790   4.903   0.348 -0.1336  0.2629  0.3283
10870TIP3    H154101   0.858   4.919   0.413  0.0519  2.2311 -0.2962
10870TIP3    H254102   0.711   4.885   0.400  0.6265 -1.1277  1.0554
10871TIP3   OH254103   1.855   5.582   2.781 -0.4422 -0.4226  0.1962
10871TIP3    H154104   1.895   5.556   2.864  0.1189  0.0174  0.0637
10871TIP3    H254105   1.903   5.533   2.715 -0.3020 -0.0986  0.0581
10872TIP3   OH254106   1.035   4.790  11.222  0.1221  0.4222 -0.2957
10872TIP3    H154107   1.088   4.815  11.146  1.8580 -1.7141  0.1138
10872TIP3    H254108   1.059   4.699  11.239 -4.0759 -0.9193 -0.3334
10873TIP3   OH254109   3.223   6.680  11.653  0.1981  0.4364 -0.5206
10873TIP3    H154110   3.254   6.662  11.564  2.0359  1.1523 -0.0765
10873TIP3    H254111   3.289   6.641  11.710 -0.8202  0.2121  0.5401
10874TIP3   OH254112   4.445   0.661  15.322  0.1244  0.0635  0.5672
10874TIP3    H154113   4.532   0.631  15.347  0.7939 -0.2554 -1.8235
10874TIP3    H254114   4.434   0.745  15.365  1.8666  0.3495  0.4870
10875TIP3   OH254115   0.882   1.989   1.460  0.5367  0.1300 -0.1395
10875TIP3    H154116   0.819   1.945   1.403  0.0521  1.5615 -0.7733
10875TIP3    H254117   0.877   2.081   1.434  3.4000  0.2201 -0.7019
10876TIP3   OH254118   6.271   6.103  13.896 -0.1467 -0.1211  0.5844
10876TIP3    H154119   6.306   6.179  13.851 -0.9987  0.4101  0.8090
10876TIP3    H254120   6.347   6.065  13.941  0.4608  0.0443 -0.2774
10877TIP3   OH254121   1.223   4.977   4.340 -0.3637  0.4532  0.1034
10877TIP3    H154122   1.130   4.994   4.350  0.3009  3.2355  3.3701
10877TIP3    H254123   1.260   5.059   4.308  1.0334 -0.5395 -0.9697
10878TIP3   OH254124   2.744   4.658  12.564  0.0483 -0.1835  0.6951
10878TIP3    H154125   2.688   4.724  12.606 -0.3857 -0.5129  0.6360
10878TIP3    H254126   2.764   4.695  12.478 -0.3506 -0.2075  0.5894
10879TIP3   OH254127   0.194   1.356  14.794  0.7090 -0.0051  0.2834
10879TIP3    H154128   0.237   1.366  14.879 -1.7967  0.0608  1.6263
10879TIP3    H254129   0.256   1.305  14.742  2.4896  0.2857  2.0024
10880TIP3   OH254130   2.142   3.499   1.701  0.3604 -0.1851 -0.3971
10880TIP3    H154131   2.199   3.437   1.748  1.2430  0.0042 -1.1826
10880TIP3    H254132   2.095   3.545   1.770  0.5947 -0.8759  0.2460
10881TIP3   OH254133   4.343   2.636  17.092 -0.6136 -0.0954 -0.1044
10881TIP3    H154134   4.379   2.596  17.171  1.1703  0.4327 -0.6073
10881TIP3    H254135   4.352   2.568  17.025  1.6704  0.7624 -0.7670
10882TIP3   OH254136   2.371   5.915  11.447 -0.0261  0.1877  0.1103
10882TIP3    H154137   2.308   5.975  11.406  0.0888  1.4465  1.6873
10882TIP3    H254138   2.450   5.967  11.458  1.2802 -1.2781 -1.5453
10883TIP3   OH254139   4.154   5.878  15.766  0.5998 -0.4969 -0.7410
10883TIP3    H154140   4.066   5.912  15.784  1.1762  1.6574 -1.6864
10883TIP3    H254141   4.196   5.871  15.852  0.9935  2.9286 -0.5053
10884TIP3   OH254142   5.122   3.338   3.229  0.4375 -0.6206  0.2485
10884TIP3    H154143   5.051   3.283   3.196  0.0316  0.2446 -0.3630
10884TIP3    H254144   5.088   3.427   3.223  1.7294 -0.1467 -0.4799
10885TIP3   OH254145   4.239   3.600  12.856 -0.0044  0.0351 -0.0256
10885TIP3    H154146   4.306   3.650  12.811  0.3194 -0.1594  0.2382
10885TIP3    H254147   4.157   3.647  12.838  0.4575  1.3933  1.2712
10886TIP3   OH254148   5.727   3.414   3.781 -0.1969 -0.1864  0.2815
10886TIP3    H154149   5.681   3.488   3.821  0.6425  0.4941 -0.0012
10886TIP3    H254150   5.765   3.449   3.701  0.1262 -0.9539  0.0903
10887TIP3   OH254151   2.757   5.350  13.326  0.3169  0.5643 -0.4427
10887TIP3    H154152   2.670   5.358  13.288  0.2386  0.3957 -0.3000
10887TIP3    H254153   2.816   5.339  13.252  0.0208 -1.0916 -0.4532
10888TIP3   OH254154   5.413   6.003  13.492 -0.0953 -0.2587  0.3307
10888TIP3    H154155   5.456   6.024  13.575  0.4622  0.6521 -0.1750
10888TIP3    H254156   5.483   6.008  13.427 -0.3448 -1.7657 -0.1104
10889TIP3   OH254157   1.969   2.343   6.104  0.3490 -0.2409 -0.5586
10889TIP3    H154158   1.890   2.325   6.155 -0.3328  0.2372 -1.4081
10889TIP3    H254159   2.014   2.413   6.151  0.1423 -0.3555 -0.1920
10890TIP3   OH254160   1.253   5.769   3.257 -0.2986 -0.5461 -0.3097
10890TIP3    H154161   1.255   5.848   3.203 -1.9699  0.0125  0.4059
10890TIP3    H254162   1.338   5.727   3.240  1.6206  2.4742  0.9384
10891TIP3   OH254163   1.748   3.354   4.991  0.1955 -0.0237 -0.8315
10891TIP3    H154164   1.733   3.440   5.030  0.2840  1.0827 -3.0640
10891TIP3    H254165   1.786   3.301   5.061 -1.2587  1.2678  1.0379
10892TIP3   OH254166   6.331   4.891   0.377  0.1736 -0.3819  0.3411
10892TIP3    H154167   6.396   4.843   0.429  0.2075 -0.4598  0.2257
10892TIP3    H254168   6.374   4.974   0.356  0.0910 -0.2733  0.5957
10893TIP3   OH254169   2.956   1.714  12.482  0.0314 -0.6688 -0.0769
10893TIP3    H154170   3.038   1.745  12.520  1.9922 -4.5182 -0.6814
10893TIP3    H254171   2.925   1.788  12.428  1.1639  2.1234  2.7886
10894TIP3   OH254172   2.196   5.267   2.851 -0.2292 -0.1264  0.2741
10894TIP3    H154173   2.145   5.311   2.918 -1.8557  1.1524 -1.6741
10894TIP3    H254174   2.133   5.212   2.805  0.6009 -0.1635 -0.8727
10895TIP3   OH254175   0.536   6.228   2.785 -0.2968  0.3368 -0.8700
10895TIP3    H154176   0.593   6.158   2.817 -1.8917 -0.9374 -0.6770
10895TIP3    H254177   0.493   6.192   2.708 -0.8572  1.2630 -1.0130
10896TIP3   OH254178   6.123   6.505  17.205  0.4094  0.2252  0.1354
10896TIP3    H154179   6.195   6.453  17.169  0.1868  0.1234 -0.1653
10896TIP3    H254180   6.094   6.560  17.131  0.3221  0.4245  0.3160
10897TIP3   OH254181   4.196   2.595  13.390 -0.3914 -0.0539 -0.4093
10897TIP3    H154182   4.142   2.518  13.408  0.1550 -0.4336 -0.3547
10897TIP3    H254183   4.286   2.564  13.400 -0.0930  1.4806  3.4028
10898TIP3   OH254184   1.408   0.863   5.741  0.5016  0.6313 -0.5565
10898TIP3    H154185   1.478   0.897   5.687  1.8451 -1.6911 -0.3899
10898TIP3    H254186   1.451   0.801   5.800 -1.6363 -0.7026 -0.2917
10899TIP3   OH254187   1.866   6.095   1.741 -0.3619  0.2651 -0.2867
10899TIP3    H154188   1.829   6.007   1.730  0.4151  0.1354 -2.3725
10899TIP3    H254189   1.801   6.153   1.701 -1.1741  0.7727  1.6479
10900TIP3   OH254190   2.020   1.117  11.653  0.0906  0.7041  0.3285
10900TIP3    H154191   2.051   1.066  11.578  0.7970 -0.5244  1.4144
10900TIP3    H254192   2.085   1.186  11.663  1.2738 -0.4793  1.1625
10901TIP3   OH254193   0.116   1.963  12.904  0.1846 -0.1744  0.8987
10901TIP3    H154194   0.049   1.936  12.966 -1.5455 -2.0567 -1.6060
10901TIP3    H254195   0.086   2.048  12.872 -0.9496 -0.9072 -0.0430
10902TIP3   OH254196   4.956   5.524   0.289 -0.4638  0.2613  0.2172
10902TIP3    H154197   5.030   5.565   0.245 -0.4107 -0.0021  0.0587
10902TIP3    H254198   4.901   5.597   0.318 -0.4543  0.4349 -0.2028
10903TIP3   OH254199   4.361   5.726   3.123 -0.0478 -0.5845  0.2611
10903TIP3    H154200   4.363   5.645   3.071  1.8394 -1.1378  1.1076
10903TIP3    H254201   4.424   5.783   3.080  0.3020 -0.4275  0.9720
10904TIP3   OH254202   4.134   5.645  17.188 -0.5741 -0.0953  0.0080
10904TIP3    H154203   4.226   5.633  17.210 -0.6099 -1.4526 -0.4906
10904TIP3    H254204   4.127   5.738  17.166  0.6501  0.0495  0.1529
10905TIP3   OH254205   4.284   2.522   4.879  0.1510 -0.0449  0.0376
10905TIP3    H154206   4.204   2.569   4.857  0.1853 -0.6512 -1.4709
10905TIP3    H254207   4.355   2.578   4.848  0.2555 -0.2122 -0.0289
10906TIP3   OH254208   6.263   4.029  13.878 -0.8291  0.0559 -0.0751
10906TIP3    H154209   6.340   4.075  13.910 -0.2434 -0.5030 -0.6628
10906TIP3    H254210   6.230   4.084  13.807 -2.0462  1.2226  1.3207
10907TIP3   OH254211   3.263   2.142  15.917  0.2582 -0.1555  0.5299
10907TIP3    H154212   3.185   2.194  15.940  1.1017  1.7086 -0.5551
10907TIP3    H254213   3.230   2.075  15.857 -0.6294  0.1187  0.6957
10908TIP3   OH254214   6.375   2.447  13.546 -0.4097 -0.1540 -0.0759
10908TIP3    H154215   6.301   2.417  13.493 -0.0028  0.8111 -1.2667
10908TIP3    H254216   6.369   2.397  13.627 -0.8904 -1.9389 -1.1462
10909TIP3   OH254217   5.860   1.237  16.992 -0.2648  0.6878  0.2968
10909TIP3    H154218   5.946   1.218  16.955 -0.3587 -0.4596  0.6375
10909TIP3    H254219   5.879   1.276  17.078 -0.0864  0.8178  0.2005
10910TIP3   OH254220   3.235   5.523  13.543  0.2559 -0.6525 -0.1569
10910TIP3    H154221   3.179   5.465  13.594  0.4271  0.5424  1.4878
10910TIP3    H254222   3.303   5.551  13.604  0.8053  0.4117 -1.2047
10911TIP3   OH254223   0.596   1.581  12.762 -0.5789 -0.4199  0.4928
10911TIP3    H154224   0.665   1.569  12.827 -0.7604  0.8565  0.9371
10911TIP3    H254225   0.515   1.578  12.811 -0.7080  0.7644  0.3785
10912TIP3   OH254226   2.460   0.532   0.424 -0.3903 -0.3732 -0.4232
10912TIP3    H154227   2.511   0.606   0.459 -0.8044  0.0211 -0.6433
10912TIP3    H254228   2.418   0.567   0.346 -0.7010 -0.8060 -0.4506
10913TIP3   OH254229   3.104   2.835   5.804  0.3801 -0.4451  0.0962
10913TIP3    H154230   3.097   2.777   5.728 -1.6972  2.4036 -2.0964
10913TIP3    H254231   3.182   2.887   5.787  0.4920 -0.4914  0.4592
10914TIP3   OH254232   5.231   6.205   1.180  0.5633  0.0762 -0.2803
10914TIP3    H154233   5.325   6.221   1.175  0.7738 -0.0762  2.2393
10914TIP3    H254234   5.221   6.136   1.246 -1.2367 -0.9297 -1.5045
10915TIP3   OH254235   0.419   0.323   0.214 -0.2484 -0.3914  0.3417
10915TIP3    H154236   0.416   0.412   0.177 -2.1176 -0.9218 -0.9221
10915TIP3    H254237   0.476   0.332   0.291  1.5872  1.3471 -1.1028
10916TIP3   OH254238   3.585   3.242  13.895  0.3993  0.2734 -0.7701
10916TIP3    H154239   3.620   3.160  13.860  0.1376 -0.0208 -0.3590
10916TIP3    H254240   3.562   3.293  13.818  1.3548  0.3126 -1.0448
10917TIP3   OH254241   6.610   1.771  16.406 -0.0642 -0.2458  0.0137
10917TIP3    H154242   6.645   1.703  16.463 -1.5776 -2.2185 -1.2445
10917TIP3    H254243   6.673   1.778  16.334  0.0741 -0.3601  0.1251
10918TIP3   OH254244   0.417   0.923   0.561  0.0938  0.3511  0.6894
10918TIP3    H154245   0.451   0.899   0.647  2.2258  3.1278  0.7563
10918TIP3    H254246   0.345   0.983   0.580  0.5731  0.9747  0.5512
10919TIP3   OH254247   2.123   6.355  17.087  0.3330 -0.1366 -0.1358
10919TIP3    H154248   2.132   6.445  17.058  0.0367 -0.2820 -0.6770
10919TIP3    H254249   2.148   6.357  17.179  0.7630  0.4182 -0.2609
10920TIP3   OH254250   3.597   3.673  15.766 -0.1897  0.1280 -0.0116
10920TIP3    H154251   3.512   3.695  15.805 -0.1751 -0.0444  0.1197
10920TIP3    H254252   3.587   3.692  15.673 -0.4744 -0.1829 -0.0464
10921TIP3   OH254253   0.083   5.219   6.314 -0.0372 -0.0589 -0.1099
10921TIP3    H154254   0.049   5.133   6.335  1.3783 -0.0625  2.6028
10921TIP3    H254255   0.012   5.263   6.268 -2.1645 -1.4241  1.6934
10922TIP3   OH254256   1.023   4.363   2.960 -0.6792  0.0458  0.4628
10922TIP3    H154257   1.037   4.273   2.992 -0.3344  0.5210  1.6912
10922TIP3    H254258   0.932   4.362   2.929  0.2479 -1.5968 -2.6416
10923TIP3   OH254259   5.671   1.425  14.209  0.2369 -0.3077 -0.3899
10923TIP3    H154260   5.605   1.397  14.147 -0.5486 -1.2917  0.8302
10923TIP3    H254261   5.749   1.374  14.185  0.1154 -0.2526 -0.9122
10924TIP3   OH254262   4.308   0.403  12.406 -0.2755  0.5926  0.6965
10924TIP3    H154263   4.310   0.476  12.468 -1.8398  0.8691  0.4784
10924TIP3    H254264   4.297   0.325  12.460 -1.6221  0.8310  0.7987
10925TIP3   OH254265   4.695   1.824   0.674 -0.5466  0.0182 -0.4054
10925TIP3    H154266   4.756   1.867   0.614 -1.3004  1.9166  0.1283
10925TIP3    H254267   4.634   1.893   0.700 -1.1380 -1.1193  1.3912
10926TIP3   OH254268   0.938   2.502   3.935  0.0813 -0.4801  0.9326
10926TIP3    H154269   0.953   2.570   3.869 -2.6760  0.1706  0.8587
10926TIP3    H254270   0.909   2.426   3.885 -2.4899  0.1606  1.3069
10927TIP3   OH254271   5.153   2.681   1.531  0.2482 -0.2340 -0.4345
10927TIP3    H154272   5.159   2.607   1.470  0.7516  1.8750 -3.1851
10927TIP3    H254273   5.178   2.757   1.478  2.2749  1.6461  2.8619
10928TIP3   OH254274   6.741   5.886   3.944  0.5385 -0.5354 -0.7693
10928TIP3    H154275   6.747   5.833   3.864  2.3667  0.5064 -1.3645
10928TIP3    H254276   6.791   5.836   4.009  0.0269 -0.8094 -0.5765
10929TIP3   OH254277   5.282   1.716   3.884  0.3124  0.8526  0.3014
10929TIP3    H154278   5.291   1.799   3.930 -0.8977  0.8036  0.6603
10929TIP3    H254279   5.256   1.654   3.951  0.5768  0.3131 -0.0832
10930TIP3   OH254280   1.896   5.902   1.455  0.0772  0.7586  0.3077
10930TIP3    H154281   1.906   5.934   1.545 -2.4565  1.3998  0.4418
10930TIP3    H254282   1.862   5.813   1.465  0.8416  0.4186 -0.0477
10931TIP3   OH254283   2.976   5.092   4.951 -0.0723  0.9427 -0.0332
10931TIP3    H154284   2.988   5.187   4.958  0.7112  0.8622 -0.2780
10931TIP3    H254285   3.057   5.059   4.914 -0.5860  0.2451 -0.5792
10932TIP3   OH254286   1.859   0.066  12.413 -0.0432 -0.5978 -1.0525
10932TIP3    H154287   1.868  -0.009  12.472  0.7859 -1.4263 -2.1717
10932TIP3    H254288   1.838   0.027  12.328 -2.6325  0.6435 -1.0630
10933TIP3   OH254289   0.203   2.553  15.144  0.2695  0.1520 -0.0888
10933TIP3    H154290   0.255   2.477  15.115 -0.9322 -0.4030 -0.9110
10933TIP3    H254291   0.223   2.621  15.079  0.0347 -0.0364 -0.3625
10934TIP3   OH254292   0.333   5.028   4.272  0.0999 -0.4269  0.1199
10934TIP3    H154293   0.237   5.028   4.273  0.0721 -1.8989  1.7434
10934TIP3    H254294   0.358   5.027   4.364  1.6837 -0.5377 -0.2870
10935TIP3   OH254295   6.462   1.186   3.570  0.3323  0.2107  0.1339
10935TIP3    H154296   6.456   1.214   3.662 -3.3650 -0.1423  0.1582
10935TIP3    H254297   6.500   1.262   3.525  0.6693  1.0318  1.7061
10936TIP3   OH254298   5.051   6.504  11.503 -0.1934 -0.5951 -0.1337
10936TIP3    H154299   5.147   6.512  11.498 -0.0986 -1.7938 -0.6000
10936TIP3    H254300   5.024   6.490  11.412 -1.0653  1.8955 -0.3312
10937TIP3   OH254301   4.872   4.060   2.996 -0.1502  0.0005 -0.3824
10937TIP3    H154302   4.783   4.073   3.029  0.4936 -1.0636  1.9387
10937TIP3    H254303   4.902   4.148   2.974 -1.6405  0.4057 -0.9585
10938TIP3   OH254304   5.839   5.228   4.123 -0.0463 -0.3674  0.3004
10938TIP3    H154305   5.748   5.219   4.151  0.3084 -1.3669  1.1695
10938TIP3    H254306   5.873   5.138   4.121  0.3522 -0.2394 -2.0226
10939TIP3   OH254307   2.424   6.709  17.093 -0.6380  0.2409  0.3571
10939TIP3    H154308   2.371   6.696  17.015  0.3314 -0.3070 -0.2236
10939TIP3    H254309   2.388   6.788  17.134 -0.9510  0.7185 -0.8078
10940TIP3   OH254310   6.669   2.034   3.092  0.4544  0.3011 -0.0009
10940TIP3    H154311   6.641   2.106   3.035  2.6566  1.1528 -0.1332
10940TIP3    H254312   6.595   1.974   3.094 -0.0602  0.6824 -3.0493
10941TIP3   OH254313   6.095   5.899   5.489  0.0338  0.8074 -0.1799
10941TIP3    H154314   6.066   5.832   5.428 -0.0992  0.9848 -0.3104
10941TIP3    H254315   6.016   5.928   5.534 -0.1390  1.9215 -1.1627
10942TIP3   OH254316   0.827   1.751  11.736  0.8668  0.0390 -0.3524
10942TIP3    H154317   0.768   1.707  11.797  1.0384  1.0385  0.5636
10942TIP3    H254318   0.776   1.825  11.703  1.7288  1.2122  0.8334
10943TIP3   OH254319   6.086   4.830   1.077  0.0622  0.4217 -0.2780
10943TIP3    H154320   6.009   4.796   1.030  0.7338 -1.1873 -0.2769
10943TIP3    H254321   6.054   4.849   1.165 -0.3403 -0.2644 -0.2687
10944TIP3   OH254322   1.639   6.741   2.890  0.1797 -0.0975  0.3300
10944TIP3    H154323   1.631   6.706   2.979  0.4360  0.3509  0.5314
10944TIP3    H254324   1.718   6.700   2.855  0.4435  0.2221  0.5434
10945TIP3   OH254325   2.458   1.365  13.168  0.3419  0.3778  0.0567
10945TIP3    H154326   2.538   1.334  13.125  0.3978  2.7569 -1.7447
10945TIP3    H254327   2.476   1.355  13.261  2.7316  0.7965 -0.2948
10946TIP3   OH254328   1.623   1.283  13.732 -0.4754 -0.8640 -0.0595
10946TIP3    H154329   1.701   1.254  13.779  0.1819 -1.5287 -1.5021
10946TIP3    H254330   1.613   1.221  13.660 -2.3353 -0.7772  0.0688
10947TIP3   OH254331   6.737   3.017  13.954 -0.7956 -0.4873 -0.1394
10947TIP3    H154332   6.752   3.101  13.910  0.2811 -1.3895 -1.5716
10947TIP3    H254333   6.644   2.999  13.940 -0.8058 -0.0172 -0.7041
10948TIP3   OH254334   1.500   1.391  11.940 -0.0440  0.7926  0.3408
10948TIP3    H154335   1.435   1.461  11.942 -0.3998  0.4510  1.0862
10948TIP3    H254336   1.577   1.429  11.982 -0.3423  0.6472  1.0389
10949TIP3   OH254337   5.060   6.019   5.568  0.3198  0.5443  0.0668
10949TIP3    H154338   5.055   5.994   5.476 -0.1544 -0.8192  0.4445
10949TIP3    H254339   4.988   6.081   5.580  0.2988  0.6216 -0.4504
10950TIP3   OH254340   2.024   4.430  12.203  0.5491  0.0347  0.3154
10950TIP3    H154341   1.938   4.431  12.245 -0.8868  2.2772 -2.3672
10950TIP3    H254342   2.068   4.354  12.240 -2.8662 -1.6869  1.2080
10951TIP3   OH254343   2.038   1.986   3.461  0.3369  0.1408 -0.1655
10951TIP3    H154344   1.995   1.966   3.378 -0.6585  2.1937 -0.2190
10951TIP3    H254345   1.967   1.995   3.524  0.9031  0.7721  0.4033
10952TIP3   OH254346   5.448   3.069  13.447 -0.8287 -0.3066 -0.4755
10952TIP3    H154347   5.446   3.106  13.359  0.8483 -1.8426 -1.2424
10952TIP3    H254348   5.387   2.995  13.443  0.4541 -1.3902 -0.9155
10953TIP3   OH254349   5.425   3.975   1.060 -0.5810 -1.1272  0.0352
10953TIP3    H154350   5.391   4.040   1.120 -0.9406 -1.8768  0.6625
10953TIP3    H254351   5.420   4.017   0.974  0.7995  0.2934  0.6056
10954TIP3   OH254352   0.252   3.737   1.945 -0.2417 -0.7486 -0.1742
10954TIP3    H154353   0.325   3.749   2.006  0.1637  1.5476 -1.0238
10954TIP3    H254354   0.174   3.756   1.998  0.0473  0.4290 -0.1618
10955TIP3   OH254355   3.734   0.479  14.637 -0.1975 -0.3477 -0.0656
10955TIP3    H154356   3.811   0.527  14.665  0.3123 -1.5206  0.6130
10955TIP3    H254357   3.660   0.526  14.675  0.3615 -0.7241  1.5531
10956TIP3   OH254358   1.490   2.336   2.236  0.3669  0.1889  1.0683
10956TIP3    H154359   1.478   2.403   2.169 -0.8759 -0.9468  0.1207
10956TIP3    H254360   1.420   2.273   2.222 -0.4136  0.2538  3.9148
10957TIP3   OH254361   6.402   6.750   5.516 -0.5152  0.0640  0.0786
10957TIP3    H154362   6.376   6.740   5.608  1.1137  0.4789  0.6125
10957TIP3    H254363   6.371   6.671   5.473 -0.0365 -0.8043  1.2975
10958TIP3   OH254364   4.347   3.064   4.192 -0.9247  0.0705 -0.2936
10958TIP3    H154365   4.405   3.006   4.142 -0.1242 -0.0559  0.7620
10958TIP3    H254366   4.266   3.065   4.141 -0.1640 -0.1097 -1.5635
10959TIP3   OH254367   1.776   5.019   1.356  0.2143 -0.5181  0.3989
10959TIP3    H154368   1.717   5.049   1.288  1.0001  0.7337  0.2391
10959TIP3    H254369   1.723   4.961   1.411 -0.6452 -0.8717 -0.7823
10960TIP3   OH254370   6.708   3.938   2.128 -0.4368  0.4375  0.4143
10960TIP3    H154371   6.703   3.862   2.186  1.3613  0.9266  1.2778
10960TIP3    H254372   6.750   3.904   2.049 -3.4524 -0.3757 -0.9745
10961TIP3   OH254373   0.795   1.190  11.915 -0.3911  0.7686 -0.0168
10961TIP3    H154374   0.816   1.283  11.912  1.1801  0.4623  0.4459
10961TIP3    H254375   0.703   1.187  11.941 -0.1954  2.1761  0.9650
10962TIP3   OH254376   6.233   6.587   5.741  0.2897 -0.5786  0.1874
10962TIP3    H154377   6.144   6.555   5.730  0.4564 -0.8045 -0.5548
10962TIP3    H254378   6.224   6.670   5.788 -0.4667  0.4597 -1.7153
10963TIP3   OH254379   3.294   1.753   4.280  0.0364 -0.4974  0.1258
10963TIP3    H154380   3.293   1.683   4.215 -0.3652 -0.2588 -0.1250
10963TIP3    H254381   3.362   1.813   4.250 -1.7229  0.8456 -1.3936
10964TIP3   OH254382   2.021   3.728   0.983  0.4422  0.3131  0.0472
10964TIP3    H154383   2.074   3.779   1.044  2.5973 -0.5938 -0.9428
10964TIP3    H254384   2.081   3.661   0.949 -1.4653 -1.0260 -0.8918
10965TIP3   OH254385   1.238   2.894   3.538  0.1623  0.8844  0.7214
10965TIP3    H154386   1.223   2.988   3.527 -0.0069  0.8664  0.7990
10965TIP3    H254387   1.266   2.885   3.629 -1.8956  0.6083  1.3701
10966TIP3   OH254388   1.887   3.990  12.924 -0.1187 -0.7824  0.1310
10966TIP3    H154389   1.905   4.011  13.016 -0.2790 -2.6295  0.6213
10966TIP3    H254390   1.823   4.055  12.896  0.1379 -0.0298  1.2403
10967TIP3   OH254391   4.364   0.307   1.056  0.3106 -0.6183 -0.0631
10967TIP3    H154392   4.382   0.365   0.981  2.7729  1.1830  1.7564
10967TIP3    H254393   4.337   0.225   1.016  2.7506 -0.1771 -3.0572
10968TIP3   OH254394   5.278   6.322   4.006 -0.1122  0.3332 -0.3613
10968TIP3    H154395   5.308   6.237   3.973  0.2391 -0.0619  0.9424
10968TIP3    H254396   5.238   6.364   3.929  2.0789  0.1132 -1.6935
10969TIP3   OH254397   3.030   2.297  16.333  0.4294 -0.1967 -0.3303
10969TIP3    H154398   2.983   2.370  16.374  1.7539 -0.0728  1.0541
10969TIP3    H254399   3.071   2.336  16.255  1.1232  0.5668  0.3961
10970TIP3   OH254400   2.198   6.544   0.905  0.1228  0.0059  0.0933
10970TIP3    H154401   2.260   6.584   0.844  0.5297 -0.7132  0.0251
10970TIP3    H254402   2.254   6.501   0.971 -0.2691  1.8029  1.7085
10971TIP3   OH254403   3.370   5.008  17.393 -0.1499  0.1685 -0.5420
10971TIP3    H154404   3.337   4.995  17.481  1.3001  0.9037  0.1424
10971TIP3    H254405   3.306   4.965  17.336 -0.9989 -0.4742  0.8665
10972TIP3   OH254406   2.983   1.553   5.951  0.9108  0.2642 -0.1079
10972TIP3    H154407   3.030   1.636   5.953  0.5924  0.5239 -1.8657
10972TIP3    H254408   3.017   1.508   5.874  0.3494 -0.7968  0.2464
10973TIP3   OH254409   4.264   1.200   3.831  0.4473  0.1370 -0.2537
10973TIP3    H154410   4.302   1.221   3.916  0.0858  0.5802 -0.1943
10973TIP3    H254411   4.222   1.115   3.844  0.5886  0.0956 -0.0539
10974TIP3   OH254412   2.145   5.944   3.427 -0.0932 -0.0978 -0.3002
10974TIP3    H154413   2.142   6.012   3.494 -0.4125 -0.6972  0.3111
10974TIP3    H254414   2.212   5.883   3.459 -0.8063 -0.8021 -0.1043
10975TIP3   OH254415   3.058   4.236  14.992  0.0254  0.5972  0.3685
10975TIP3    H154416   2.997   4.216  15.062  1.6515  0.2599  1.7554
10975TIP3    H254417   3.144   4.236  15.034  1.1470 -0.3321 -1.7546
10976TIP3   OH254418   2.131   3.337  11.726  0.1645  0.2418 -0.1579
10976TIP3    H154419   2.226   3.339  11.714  0.4865 -2.1045  1.2111
10976TIP3    H254420   2.103   3.255  11.684 -0.9073 -0.1695  1.2502
10977TIP3   OH254421   1.273   0.703   1.102 -0.1635 -0.1589  0.3298
10977TIP3    H154422   1.261   0.608   1.093  1.9174 -0.3782 -0.5666
10977TIP3    H254423   1.301   0.716   1.192 -4.1409  0.1152  1.7176
10978TIP3   OH254424   3.230   3.167  12.100  0.6416  0.7039 -0.0258
10978TIP3    H154425   3.291   3.149  12.028  0.7292  1.7598 -0.2390
10978TIP3    H254426   3.272   3.236  12.150 -0.0729  0.9765  0.2087
10979TIP3   OH254427   3.038   3.506  16.368 -0.0471 -0.5218  0.0124
10979TIP3    H154428   2.977   3.456  16.315 -0.3103  0.0510 -0.2378
10979TIP3    H254429   3.029   3.470  16.456  0.2210 -1.3225 -0.2772
10980TIP3   OH254430   1.122   0.444  15.740 -0.5168  0.3021 -0.0224
10980TIP3    H154431   1.049   0.440  15.678 -0.3341  0.8375 -0.2786
10980TIP3    H254432   1.101   0.379  15.807 -0.0016 -1.3680 -1.4152
10981TIP3   OH254433   6.674   2.874  16.826  0.0371 -0.4461 -0.3214
10981TIP3    H154434   6.752   2.819  16.814  0.5137 -0.1666  1.2560
10981TIP3    H254435   6.636   2.881  16.739  1.1261 -1.5628 -0.9187
10982TIP3   OH254436   4.079   1.098   1.995  0.5939 -1.0709 -0.0074
10982TIP3    H154437   4.170   1.112   1.970  0.4214  1.3400  0.4580
10982TIP3    H254438   4.040   1.054   1.919  2.0001 -1.6217 -0.4376
10983TIP3   OH254439   4.766   3.840   3.369 -0.5955  0.3609 -0.0015
10983TIP3    H154440   4.750   3.883   3.285 -1.3210 -0.6752 -0.4227
10983TIP3    H254441   4.700   3.877   3.428  0.7080  2.0127  0.4941
10984TIP3   OH254442   5.774   3.001  12.309  0.0438  0.0699 -0.6494
10984TIP3    H154443   5.694   2.980  12.358  1.2221  0.7382  1.7235
10984TIP3    H254444   5.803   2.917  12.273 -0.8022 -0.4907 -0.0625
10985TIP3   OH254445   2.719   4.616  11.376  0.3179  0.7297 -0.1344
10985TIP3    H154446   2.693   4.707  11.394  0.6297  1.1921 -1.8402
10985TIP3    H254447   2.739   4.615  11.282 -0.1016 -1.2167 -0.2417
10986TIP3   OH254448   3.239   4.836  13.096  0.4190 -0.3914  0.7075
10986TIP3    H154449   3.332   4.823  13.079  0.5856 -0.6014  1.7282
10986TIP3    H254450   3.236   4.882  13.180 -0.3964 -0.2259  0.5986
10987TIP3   OH254451   4.687   4.239  13.658  0.0107  0.2371  0.1706
10987TIP3    H154452   4.615   4.294  13.690  0.1237  1.4768 -1.5761
10987TIP3    H254453   4.649   4.190  13.585  0.3776 -0.7416  0.6223
10988TIP3   OH254454   1.780   3.387   4.446 -0.1260  0.4019  0.6923
10988TIP3    H154455   1.808   3.366   4.535  2.7567  1.4426  0.1588
10988TIP3    H254456   1.862   3.392   4.396 -1.5765  0.7725 -1.8192
10989TIP3   OH254457   6.112   5.681   1.192  0.1578 -0.1468  0.2019
10989TIP3    H154458   6.147   5.616   1.253 -0.7656 -1.9511 -1.0911
10989TIP3    H254459   6.139   5.650   1.106  0.5562  1.7746 -0.4153
10990TIP3   OH254460   6.592   0.235   3.103 -0.2197 -0.2432 -0.5601
10990TIP3    H154461   6.536   0.283   3.043  0.7031  1.4469 -0.1608
10990TIP3    H254462   6.670   0.291   3.113  0.5389 -1.4314  0.6134
10991TIP3   OH254463   2.958   0.945  14.766  0.4312 -0.1628  0.3529
10991TIP3    H154464   2.897   0.879  14.798  0.5889  0.1607  1.3280
10991TIP3    H254465   3.025   0.895  14.720  0.8327 -0.7334  1.5315
10992TIP3   OH254466   0.750   4.330   5.519 -0.1759 -0.3727  0.0337
10992TIP3    H154467   0.669   4.382   5.520 -0.3768 -0.6885  0.4038
10992TIP3    H254468   0.819   4.395   5.514 -0.3673  0.0334  1.9199
10993TIP3   OH254469   4.099   0.714  10.710  0.0692  0.0636  0.2083
10993TIP3    H154470   4.143   0.768  10.775  2.1324 -0.8156 -0.3646
10993TIP3    H254471   4.167   0.693  10.646 -1.8219  0.7656 -2.2048
10994TIP3   OH254472   4.630   6.368  12.212  0.1662  0.4781 -0.0028
10994TIP3    H154473   4.637   6.282  12.170 -1.0389  1.4887 -2.5019
10994TIP3    H254474   4.694   6.422  12.165 -0.9174  1.5478 -0.3056
10995TIP3   OH254475   1.464   3.598   5.332  0.1453 -0.0467 -0.5473
10995TIP3    H154476   1.429   3.528   5.387  1.2500  1.5504  2.3520
10995TIP3    H254477   1.558   3.583   5.332  0.1889  0.0992 -1.9420
10996TIP3   OH254478   2.910   6.624  13.936  0.3538  0.2890  0.0039
10996TIP3    H154479   2.945   6.685  13.871  0.3689 -1.7999 -2.0784
10996TIP3    H254480   2.924   6.668  14.020  3.1982  1.8237 -1.1215
10997TIP3   OH254481   3.783   0.277  17.024 -0.0214 -0.0313  0.9229
10997TIP3    H154482   3.849   0.230  16.974 -0.4877  0.6130 -0.3393
10997TIP3    H254483   3.833   0.336  17.080  0.4899 -0.0309  0.4746
10998TIP3   OH254484   3.796   6.174  14.040  0.4186 -0.2311 -0.0779
10998TIP3    H154485   3.788   6.244  13.975  1.3516  0.9736  1.0499
10998TIP3    H254486   3.768   6.214  14.122 -1.2544 -1.8817  0.2272
10999TIP3   OH254487   6.370   6.652   2.968 -0.1636  0.2539 -0.7648
10999TIP3    H154488   6.361   6.717   3.037 -0.7339  0.1543 -0.7384
10999TIP3    H254489   6.280   6.625   2.948  0.1258 -1.8494  0.4823
11000TIP3   OH254490   1.794   1.171   4.296 -0.2728  0.0140  0.3324
11000TIP3    H154491   1.720   1.129   4.338 -0.0753  0.5992  1.3078
11000TIP3    H254492   1.819   1.241   4.356  0.6437  0.2543 -0.3017
11001TIP3   OH254493   6.493   3.519   0.219 -0.0645  0.3339  0.0506
11001TIP3    H154494   6.398   3.514   0.209 -0.4453 -0.3498  3.0742
11001TIP3    H254495   6.527   3.449   0.162 -1.7650 -2.4172  2.1587
11002TIP3   OH254496   1.464   5.104  15.478 -1.0190  0.3192  0.4926
11002TIP3    H154497   1.502   5.129  15.562  0.3500 -2.3157  0.7777
11002TIP3    H254498   1.539   5.093  15.420 -1.6157 -1.2484 -0.0474
11003TIP3   OH254499   4.220   3.573  16.797  0.0447  0.1333  0.2431
11003TIP3    H154500   4.233   3.563  16.892  0.0857  0.2338  0.2480
11003TIP3    H254501   4.215   3.483  16.764  0.7314  0.0916  0.2379
11004TIP3   OH254502   2.092   2.207   0.700  0.1541  0.4874 -0.0454
11004TIP3    H154503   2.137   2.134   0.658 -2.2660 -0.8920 -0.4065
11004TIP3    H254504   2.129   2.285   0.658  0.1317 -0.7035 -2.4776
11005TIP3   OH254505   6.497   4.268   3.061  0.0857  0.6310 -0.1553
11005TIP3    H154506   6.416   4.242   3.016 -0.2022  0.1885  0.5971
11005TIP3    H254507   6.486   4.362   3.076 -0.2317  0.5985 -0.1623
11006TIP3   OH254508   5.059   5.241  14.464 -0.3180  0.1437 -0.2877
11006TIP3    H154509   5.042   5.149  14.442 -1.9638  0.2641  0.3988
11006TIP3    H254510   5.133   5.238  14.524  0.8847 -0.5625 -1.7178
11007TIP3   OH254511   0.164   6.660  14.601  0.0490  0.5133  0.2587
11007TIP3    H154512   0.196   6.694  14.517  1.1481  2.6646  1.4531
11007TIP3    H254513   0.243   6.633  14.648 -0.5234 -0.4191  0.7176
11008TIP3   OH254514   1.576   4.908  11.626  0.0155 -0.3864 -0.6791
11008TIP3    H154515   1.633   4.851  11.575  3.5411  0.2008  2.1531
11008TIP3    H254516   1.529   4.849  11.686  1.0546 -0.6190 -0.0703
11009TIP3   OH254517   3.787   6.485  11.679  0.4641  0.3993  0.9515
11009TIP3    H154518   3.880   6.478  11.701  1.0401 -0.1797 -1.3807
11009TIP3    H254519   3.759   6.395  11.665 -0.3088  0.6218  0.9922
11010TIP3   OH254520   4.150   4.526  12.864 -0.9212 -0.5030  0.0888
11010TIP3    H154521   4.237   4.530  12.905 -0.9867 -0.5840  0.2388
11010TIP3    H254522   4.089   4.533  12.937 -1.0952  2.5387 -0.2399
11011TIP3   OH254523   2.752   1.661   1.419 -0.3167 -0.2697 -0.4807
11011TIP3    H154524   2.820   1.642   1.485 -1.0346 -0.7620  0.1375
11011TIP3    H254525   2.749   1.756   1.415 -1.3040 -0.1787  1.3454
11012TIP3   OH254526   4.315   4.731  10.591  0.5976 -0.3233  0.5089
11012TIP3    H154527   4.232   4.732  10.639  0.6097  0.3748  0.5202
11012TIP3    H254528   4.341   4.823  10.585  0.5429 -0.3842 -0.9324
11013TIP3   OH254529   3.305   4.628   3.745 -0.4930 -0.1769  0.0087
11013TIP3    H154530   3.312   4.552   3.687 -1.4771 -0.9993  0.9130
11013TIP3    H254531   3.236   4.681   3.706  0.5509  0.5429 -0.9097
11014TIP3   OH254532   0.207   6.103  17.078 -0.2602 -0.0522 -0.0116
11014TIP3    H154533   0.226   6.010  17.070 -1.7539 -0.3383 -0.5108
11014TIP3    H254534   0.248   6.129  17.161  0.1040 -1.1552  0.1679
11015TIP3   OH254535   5.262   0.656  15.002 -0.3107  0.0504  0.2318
11015TIP3    H154536   5.238   0.682  15.091 -0.0326 -1.4485  0.7679
11015TIP3    H254537   5.210   0.714  14.946 -1.2771  0.3332  1.3696
11016TIP3   OH254538   5.941   2.726   4.923  0.5130 -0.1418  0.2401
11016TIP3    H154539   5.863   2.684   4.957  0.6433  0.1640  0.9455
11016TIP3    H254540   5.956   2.800   4.982  1.9006 -0.7715  0.7371
11017TIP3   OH254541   3.902   0.304  12.996  0.4732 -0.0758  0.4152
11017TIP3    H154542   3.901   0.376  13.060  1.4944  0.7434 -0.4501
11017TIP3    H254543   3.816   0.308  12.954  1.0985  1.7366 -0.7770
11018TIP3   OH254544   3.615   0.956  13.738 -0.3548 -0.0057 -0.3684
11018TIP3    H154545   3.603   1.041  13.695  0.5508  1.1159  1.4731
11018TIP3    H254546   3.530   0.913  13.729 -0.8188  1.0525 -1.3952
11019TIP3   OH254547   3.283   6.135  11.792  0.6085 -0.3296  0.4469
11019TIP3    H154548   3.305   6.054  11.744  1.3516  0.3675 -0.4364
11019TIP3    H254549   3.366   6.183  11.797  0.3341  0.0470  1.6284
11020TIP3   OH254550   5.352   5.994  15.328  0.6445  0.1601 -0.3876
11020TIP3    H154551   5.445   5.973  15.337  0.4093 -0.5500  0.5269
11020TIP3    H254552   5.351   6.087  15.305  1.5813  0.1630 -0.4793
11021TIP3   OH254553   4.048   6.518   0.580  0.0224  0.6330 -0.0049
11021TIP3    H154554   4.057   6.594   0.637  0.8555 -0.8220  1.8950
11021TIP3    H254555   4.009   6.553   0.500 -1.0877  2.7802  1.3809
11022TIP3   OH254556   4.548   5.871  15.500 -0.0081  0.1207  0.1388
11022TIP3    H154557   4.471   5.924  15.484  0.2153  0.5018  0.3102
11022TIP3    H254558   4.617   5.934  15.523 -0.3191 -0.3578  2.6493
11023TIP3   OH254559   3.752   0.863   5.618  0.3464 -0.0310  0.8595
11023TIP3    H154560   3.820   0.913   5.573  0.7616 -1.5713 -0.3365
11023TIP3    H254561   3.757   0.892   5.709  1.8305  0.7182  0.5767
11024TIP3   OH254562   0.095   6.497   5.696  0.3807 -0.1505 -0.4300
11024TIP3    H154563   0.038   6.477   5.770  0.7485  1.8496  0.4719
11024TIP3    H254564   0.068   6.437   5.627 -2.6706  0.5431  0.0426
11025TIP3   OH254565   3.814   3.758   1.988 -0.2640  0.0894  0.0301
11025TIP3    H154566   3.796   3.793   1.901  0.1830 -1.8061 -0.8734
11025TIP3    H254567   3.775   3.670   1.987  1.2521 -0.6389  1.1325
11026TIP3   OH254568   1.569   4.417   3.416 -0.4368  0.6028  0.7359
11026TIP3    H154569   1.570   4.496   3.362  0.1260 -0.1739 -0.4386
11026TIP3    H254570   1.558   4.346   3.353 -4.9034 -0.1097  2.0208
11027TIP3   OH254571   2.554   5.675   5.858  0.1958  0.5375 -0.1810
11027TIP3    H154572   2.511   5.600   5.899  0.6153 -0.2765 -1.1920
11027TIP3    H254573   2.550   5.744   5.925 -1.6179  0.1358  0.1924
11028TIP3   OH254574   2.608   3.130   1.720 -0.1012  0.5204  0.3761
11028TIP3    H154575   2.613   3.124   1.625 -1.7264  0.7578  0.2462
11028TIP3    H254576   2.681   3.187   1.744  0.7909 -0.1648 -0.6475
11029TIP3   OH254577   3.320   6.277   3.724 -0.1980 -0.0854 -0.1576
11029TIP3    H154578   3.234   6.288   3.765 -0.2059 -1.2772  0.1632
11029TIP3    H254579   3.376   6.339   3.770 -1.3480  2.4547 -1.9252
11030TIP3   OH254580   1.413   0.725   0.806 -0.1112  0.3363  0.2820
11030TIP3    H154581   1.480   0.663   0.776 -0.9165 -1.0824  1.3006
11030TIP3    H254582   1.448   0.759   0.888 -1.2923 -1.6592  1.6917
11031TIP3   OH254583   6.747   4.081  13.020  0.1277 -0.0076 -0.2244
11031TIP3    H154584   6.729   4.133  13.098 -1.7173  0.3479 -0.8318
11031TIP3    H254585   6.765   4.145  12.951 -0.0905 -0.2434 -0.5077
11032TIP3   OH254586   4.187   0.290   2.452 -0.2788 -0.5878 -0.0333
11032TIP3    H154587   4.124   0.224   2.480 -0.7732  0.5720  1.7583
11032TIP3    H254588   4.133   0.366   2.429  0.3878 -0.1078 -0.0429
11033TIP3   OH254589   5.616   4.012   5.941  0.5307  0.3592 -0.8144
11033TIP3    H154590   5.592   3.998   6.033  1.5182 -0.3856 -0.6557
11033TIP3    H254591   5.695   3.960   5.929 -0.0298 -0.1842 -2.3090
11034TIP3   OH254592   4.887   2.124   5.524  0.3509  0.3138  0.6091
11034TIP3    H154593   4.815   2.134   5.586  1.2285 -0.8758  1.8997
11034TIP3    H254594   4.943   2.200   5.540  0.1985  0.3955  0.7612
11035TIP3   OH254595   4.505   3.145   0.413  0.3925 -0.0613  0.3104
11035TIP3    H154596   4.502   3.237   0.386 -2.0139 -0.5518 -1.3339
11035TIP3    H254597   4.575   3.107   0.359 -0.6795  0.1748 -1.3010
11036TIP3   OH254598   3.519   2.337  16.157 -0.7212  0.2875 -0.4042
11036TIP3    H154599   3.563   2.403  16.104  0.9427  0.6348  1.2867
11036TIP3    H254600   3.576   2.326  16.233 -1.1381 -2.8271 -0.4223
11037TIP3   OH254601   3.726   0.266   0.684  0.2768  0.2974  0.2089
11037TIP3    H154602   3.725   0.185   0.736  1.9934  0.1410  0.0487
11037TIP3    H254603   3.814   0.269   0.645  0.2718  2.2658  0.2456
11038TIP3   OH254604   5.413   1.525   6.477 -0.2026  0.5936 -0.3600
11038TIP3    H154605   5.368   1.607   6.499  0.0073  0.5556  0.2408
11038TIP3    H254606   5.496   1.554   6.438  0.6668  0.7164  1.4507
11039TIP3   OH254607   3.609   3.699   1.040 -0.0641 -0.1528  0.6447
11039TIP3    H154608   3.583   3.679   0.950 -0.1922  0.6126  0.5082
11039TIP3    H254609   3.527   3.721   1.084  0.2028  1.1381  0.5109
11040TIP3   OH254610   0.685   1.398   4.623  0.0614  0.1971  0.1840
11040TIP3    H154611   0.615   1.463   4.624 -0.6091 -0.4829 -0.4862
11040TIP3    H254612   0.708   1.386   4.715  0.7807  1.9602  0.2665
11041TIP3   OH254613   6.400   5.266  15.629  0.1577 -0.3804  0.0159
11041TIP3    H154614   6.330   5.281  15.693 -0.1736  1.3540 -0.6977
11041TIP3    H254615   6.411   5.171  15.627  0.9811 -0.4948  3.4838
11042TIP3   OH254616   4.704   5.642   4.010 -0.7093  0.4075  0.7097
11042TIP3    H154617   4.623   5.610   3.971 -0.9212 -0.0749  1.5265
11042TIP3    H254618   4.730   5.716   3.955 -1.6614  0.5256  0.4064
11043TIP3   OH254619   3.873   3.769  10.815  0.0670 -0.1409  0.0658
11043TIP3    H154620   3.926   3.698  10.852  0.7743  0.2748 -0.1178
11043TIP3    H254621   3.893   3.766  10.721 -1.4906 -1.0069 -0.2607
11044TIP3   OH254622   6.680   4.907   2.956  0.8082 -0.8337 -0.0703
11044TIP3    H154623   6.644   4.942   2.875 -1.0631 -1.4920  0.4203
11044TIP3    H254624   6.754   4.853   2.929  0.5334 -0.6188 -1.2884
11045TIP3   OH254625   6.324   4.571  16.751  0.1415  0.0132  0.0618
11045TIP3    H154626   6.392   4.504  16.737 -0.2389 -0.4502  0.3931
11045TIP3    H254627   6.305   4.566  16.844  1.4766  1.9289  0.5101
11046TIP3   OH254628   2.925   5.622  15.411  0.5475  0.6125  0.4055
11046TIP3    H154629   2.867   5.581  15.475  1.0724  0.4381  0.7755
11046TIP3    H254630   2.997   5.560  15.400  1.1369  1.2403  0.6558
11047TIP3   OH254631   5.646   6.074  13.372  0.0387  0.3128 -0.1161
11047TIP3    H154632   5.738   6.047  13.372 -0.1260 -0.2986 -1.0158
11047TIP3    H254633   5.627   6.094  13.281 -1.2172 -1.3659 -0.2866
11048TIP3   OH254634   0.565   0.941   4.172  0.2369 -0.1341 -0.9361
11048TIP3    H154635   0.509   0.993   4.230  0.2475  1.5315 -2.3337
11048TIP3    H254636   0.619   0.889   4.231 -1.3739 -0.3020  0.4932
11049TIP3   OH254637   0.666   5.839  11.853 -0.0552 -0.1599 -0.1485
11049TIP3    H154638   0.627   5.821  11.939 -2.6512  1.6945 -0.8536
11049TIP3    H254639   0.709   5.756  11.829 -2.1745 -1.8292  1.4305
11050TIP3   OH254640   3.324   5.963   4.549  0.0718 -0.3786  0.1986
11050TIP3    H154641   3.393   6.029   4.542  0.8757 -1.0910  1.1314
11050TIP3    H254642   3.251   6.009   4.592  0.2882  0.1416  0.0151
11051TIP3   OH254643   6.038   6.027   3.239  0.6470  0.5215  0.0457
11051TIP3    H154644   6.014   5.971   3.312  1.5204  0.0581 -0.0075
11051TIP3    H254645   5.996   6.111   3.258 -1.5287 -0.4149 -0.3859
11052TIP3   OH254646   5.101   4.922  15.436 -0.4085 -0.1497  0.2283
11052TIP3    H154647   5.132   4.850  15.491 -0.2872  0.2084  0.6340
11052TIP3    H254648   5.019   4.950  15.477  0.6579  1.4118  1.4096
11053TIP3   OH254649   4.449   5.117   4.419  0.3383 -0.1946  0.2532
11053TIP3    H154650   4.506   5.136   4.344 -0.5817 -0.4828 -0.5377
11053TIP3    H254651   4.505   5.069   4.480  0.7635 -1.1104 -0.8265
11054TIP3   OH254652   0.702   4.905  11.796  0.2917 -0.2385  0.1646
11054TIP3    H154653   0.724   4.933  11.885  0.0004 -1.5572  0.6736
11054TIP3    H254654   0.772   4.942  11.742  1.2021 -0.5043  1.1230
11055TIP3   OH254655   5.847   2.787   6.525  0.2737  0.1783  0.3490
11055TIP3    H154656   5.915   2.776   6.591  0.5436 -2.0051 -0.2161
11055TIP3    H254657   5.768   2.807   6.574  1.2640  2.9566  1.0135
11056TIP3   OH254658   5.704   0.851  13.071 -0.0559 -0.0717 -0.0575
11056TIP3    H154659   5.717   0.767  13.116  0.5231 -1.1188 -2.0927
11056TIP3    H254660   5.618   0.844  13.031 -0.4188  0.7193  0.5418
11057TIP3   OH254661   6.634   6.450  12.382  0.3209  0.3214  0.1798
11057TIP3    H154662   6.560   6.437  12.323  0.0087  0.9943  0.4165
11057TIP3    H254663   6.682   6.524  12.344  0.6917  0.1010  0.2100
11058TIP3   OH254664   4.597   4.817   1.011 -0.0790 -0.3567  0.0437
11058TIP3    H154665   4.627   4.802   1.101  0.1200 -1.1760 -0.1431
11058TIP3    H254666   4.640   4.898   0.984 -1.3813  0.7712  1.2145
11059TIP3   OH254667   6.744   2.601  11.719  0.5240 -0.0659  0.4120
11059TIP3    H154668   6.831   2.638  11.733  0.7024 -0.0689 -0.5950
11059TIP3    H254669   6.760   2.517  11.675  0.0021  0.2547 -0.4261
11060TIP3   OH254670   4.371   2.892   5.500 -0.2749 -0.5930 -0.4360
11060TIP3    H154671   4.318   2.813   5.509  1.2391 -1.8096 -1.6626
11060TIP3    H254672   4.323   2.958   5.551 -0.6864 -2.7004  2.1751
11061TIP3   OH254673   3.882   1.117  16.301  0.3703  0.5283 -0.8012
11061TIP3    H154674   3.865   1.204  16.337 -0.5558  0.2062 -0.4483
11061TIP3    H254675   3.798   1.089  16.264  0.7990  0.0132 -1.4220
11062TIP3   OH254676   1.346   5.441  15.817 -0.0634 -0.7142  0.2555
11062TIP3    H154677   1.342   5.517  15.760 -1.7327 -1.0192 -0.1027
11062TIP3    H254678   1.280   5.457  15.884  1.1256 -0.8533  1.5066
11063TIP3   OH254679   3.037   4.332   4.403 -0.1514  0.0224  0.2767
11063TIP3    H154680   3.133   4.332   4.411  0.0017 -0.2706 -1.3133
11063TIP3    H254681   3.018   4.263   4.340 -1.3033  1.1402 -0.6330
11064TIP3   OH254682   4.338   2.163  12.883 -0.2881  0.0287 -0.4520
11064TIP3    H154683   4.271   2.226  12.907  0.6108  1.1702 -0.8670
11064TIP3    H254684   4.384   2.203  12.809  0.9468 -0.6489 -0.0825
11065TIP3   OH254685   4.206   3.179   1.590  0.5531  0.2534 -0.1687
11065TIP3    H154686   4.203   3.251   1.653 -0.5679  0.6132 -0.6150
11065TIP3    H254687   4.266   3.115   1.630  0.9022  1.0516  0.6272
11066TIP3   OH254688   4.552   5.243   2.751  0.3073  0.6137 -0.7019
11066TIP3    H154689   4.551   5.266   2.658  0.1271 -0.9906 -1.1258
11066TIP3    H254690   4.473   5.190   2.763  1.0083 -0.2929  0.0562
11067TIP3   OH254691   3.572   3.210  15.985  0.3686 -0.1029  0.5608
11067TIP3    H154692   3.609   3.275  15.925 -0.4113 -0.0227  0.1543
11067TIP3    H254693   3.514   3.260  16.041  1.7283 -0.0366  1.9682
11068TIP3   OH254694   5.930   6.373   2.582 -0.3271  0.4414 -0.4905
11068TIP3    H154695   6.018   6.377   2.543 -0.7237 -0.0054 -1.4554
11068TIP3    H254696   5.930   6.292   2.632 -0.4738 -0.0019 -1.2043
11069TIP3   OH254697   6.310   1.102   6.200 -0.4538 -0.5825 -0.9354
11069TIP3    H154698   6.361   1.097   6.281  0.6199 -0.6292 -1.5960
11069TIP3    H254699   6.348   1.176   6.152 -2.6113  0.9955 -0.3913
11070TIP3   OH254700   4.464   3.436   3.662 -0.0872  0.0363 -0.3224
11070TIP3    H154701   4.473   3.469   3.573 -0.8239 -0.7294 -0.7058
11070TIP3    H254702   4.542   3.466   3.707  0.3447  0.3609 -1.2531
11071TIP3   OH254703   2.068   0.489   2.196 -0.0468 -0.2368 -0.3121
11071TIP3    H154704   2.117   0.566   2.169  0.1877 -0.9045 -1.8652
11071TIP3    H254705   1.999   0.524   2.253  2.3746  0.7014  2.3049
11072TIP3   OH254706   2.587   1.360   6.325  0.3030  0.1591  0.1491
11072TIP3    H154707   2.677   1.384   6.303  0.4056 -0.4386 -0.0851
11072TIP3    H254708   2.559   1.429   6.385  0.3775  1.2325 -1.0085
11073TIP3   OH254709   5.242   6.402   1.701  0.3977  0.3103 -0.1353
11073TIP3    H154710   5.274   6.432   1.616  0.8521  0.6430  0.1465
11073TIP3    H254711   5.198   6.319   1.683 -0.5820  0.9805 -0.8816
11074TIP3   OH254712   5.258   0.825   0.439 -0.5310  0.4049  0.7576
11074TIP3    H154713   5.343   0.836   0.483 -0.7855 -0.6468  1.5570
11074TIP3    H254714   5.199   0.797   0.509 -1.5715  1.2059  0.2277
11075TIP3   OH254715   2.531   0.601   4.942 -0.2558 -0.1052  0.4545
11075TIP3    H154716   2.623   0.576   4.938  0.0973  1.1355  0.4214
11075TIP3    H254717   2.529   0.677   4.999 -0.7881  1.7992 -1.9147
11076TIP3   OH254718   1.180   0.614  14.558 -0.2345  0.1496 -0.4020
11076TIP3    H154719   1.221   0.565  14.486 -2.5956 -0.1705 -1.6132
11076TIP3    H254720   1.222   0.580  14.637  0.6431 -1.3245 -1.4540
11077TIP3   OH254721   1.848   4.706  15.844  0.5209  0.1314  0.0964
11077TIP3    H154722   1.834   4.770  15.914 -1.2609 -1.1277  0.9822
11077TIP3    H254723   1.788   4.733  15.775 -1.9842 -1.6873  1.3599
11078TIP3   OH254724   3.951   0.743  11.685  0.1103 -0.0702 -0.4994
11078TIP3    H154725   3.975   0.773  11.772  2.1806  1.3758 -1.5031
11078TIP3    H254726   3.908   0.818  11.645  0.8640 -0.0811 -1.3545
11079TIP3   OH254727   4.316   5.962  11.058 -0.0261  0.1836  0.0415
11079TIP3    H154728   4.267   5.912  11.124 -1.1558 -0.6478 -1.3675
11079TIP3    H254729   4.248   6.012  11.012  0.9914  2.5578  0.9624
11080TIP3   OH254730   6.206   1.996   5.389  0.0523 -0.1541 -0.6481
11080TIP3    H154731   6.248   2.055   5.452  0.1611 -1.7839  0.8688
11080TIP3    H254732   6.278   1.964   5.334  0.7157 -2.0251  1.1932
11081TIP3   OH254733   3.431   1.910  12.797  0.3031 -0.5961  0.0978
11081TIP3    H154734   3.408   1.832  12.848  0.1312  0.5071  1.7824
11081TIP3    H254735   3.347   1.945  12.768  0.1161  0.6032  1.9295
11082TIP3   OH254736   4.530   6.657   1.365  0.0085 -0.0378  0.5343
11082TIP3    H154737   4.606   6.700   1.326  0.3804  0.1132  1.4054
11082TIP3    H254738   4.458   6.720   1.352  0.1832  0.1213  0.3306
11083TIP3   OH254739   6.332   3.016   1.003  0.0911 -0.3239 -0.4107
11083TIP3    H154740   6.308   3.100   0.963  0.3745 -0.3302 -0.5957
11083TIP3    H254741   6.338   2.956   0.929 -0.6623 -0.6435 -0.2242
11084TIP3   OH254742   0.420   5.912   1.353 -0.1409 -0.2582  0.1702
11084TIP3    H154743   0.451   5.822   1.351  1.2210  0.2027 -0.1133
11084TIP3    H254744   0.356   5.913   1.425  0.4913 -1.2396  0.7730
11085TIP3   OH254745   0.055   4.895  13.852 -0.1021  0.1329 -0.2402
11085TIP3    H154746   0.139   4.856  13.828  0.6547  1.1023  0.7572
11085TIP3    H254747   0.058   4.982  13.812 -1.1182 -0.2218 -1.1334
11086TIP3   OH254748   5.271   0.760   3.370 -0.1663  0.1244 -0.1724
11086TIP3    H154749   5.343   0.823   3.365  0.4996 -0.6825 -1.5835
11086TIP3    H254750   5.241   0.764   3.460 -0.2016  2.4978 -0.2499
11087TIP3   OH254751   1.017   0.734   0.791 -0.5788  0.8333 -0.3558
11087TIP3    H154752   0.971   0.792   0.731 -1.3087  0.2469 -0.3746
11087TIP3    H254753   0.949   0.677   0.827  0.4573 -2.1189 -2.6850
11088TIP3   OH254754   3.267   1.071  14.969  0.5416 -0.1287  0.4344
11088TIP3    H154755   3.346   1.060  14.916  0.8274  1.6653  0.4359
11088TIP3    H254756   3.300   1.079  15.059  0.1116 -2.3875  0.8595
11089TIP3   OH254757   5.975   1.593   6.623 -0.0360 -0.1076  0.0119
11089TIP3    H154758   5.895   1.576   6.672  0.6963 -1.1597  0.9021
11089TIP3    H254759   5.945   1.618   6.536 -1.3540  0.8174  0.6945
11090TIP3   OH254760   0.210   2.009  16.860 -0.2241  0.4647  0.1280
11090TIP3    H154761   0.211   2.085  16.918 -0.1903  0.8901 -0.4108
11090TIP3    H254762   0.168   1.940  16.910  0.0108  0.7571  0.7333
11091TIP3   OH254763   3.789   0.050   2.530  0.1105 -0.3936  0.4490
11091TIP3    H154764   3.792   0.048   2.435  0.5112 -0.7160  0.4630
11091TIP3    H254765   3.858   0.111   2.555 -0.6907  0.5179  0.5131
11092TIP3   OH254766   1.621   5.455   0.706 -0.2313 -0.3341 -0.8909
11092TIP3    H154767   1.648   5.414   0.624  0.8107 -0.8988 -0.2795
11092TIP3    H254768   1.598   5.382   0.763 -0.4912  0.0344 -0.5179
11093TIP3   OH254769   4.952   3.513   4.543 -0.4349  0.2396 -0.2453
11093TIP3    H154770   5.026   3.455   4.564  0.5737  1.9446  1.2606
11093TIP3    H254771   4.982   3.563   4.467 -0.5969 -0.0070 -0.4722
11094TIP3   OH254772   5.647   0.635   4.847  0.2370 -0.0595  0.1622
11094TIP3    H154773   5.617   0.705   4.904 -3.3553 -0.4725 -1.0165
11094TIP3    H254774   5.633   0.555   4.897  0.4936 -0.2069  0.0044
11095TIP3   OH254775   5.686   4.488  13.861  0.7198  0.1556 -0.3203
11095TIP3    H154776   5.623   4.436  13.810  1.0374  0.5980 -1.1922
11095TIP3    H254777   5.644   4.573  13.871  1.3897  0.6419 -1.4049
11096TIP3   OH254778   2.924   2.288  14.662  0.1047 -0.1323 -0.2151
11096TIP3    H154779   2.915   2.285  14.567  0.1924 -2.0229 -0.1872
11096TIP3    H254780   2.835   2.309  14.693 -1.0888 -3.9450 -0.5915
11097TIP3   OH254781   3.900   1.402   3.920  0.1486 -0.4423  0.4871
11097TIP3    H154782   3.951   1.369   3.846  1.3447 -0.6293  1.3789
11097TIP3    H254783   3.937   1.359   3.997 -0.4399  0.4676  1.3085
11098TIP3   OH254784   2.576   5.222  16.513 -0.3381  0.4900 -0.1440
11098TIP3    H154785   2.519   5.284  16.467 -1.1173  1.5049  2.0677
11098TIP3    H254786   2.531   5.138  16.506  0.3215  0.2619 -2.4684
11099TIP3   OH254787   2.731   6.050   1.590 -0.4873  0.0090 -0.7485
11099TIP3    H154788   2.761   5.993   1.661 -0.2791  1.8150  0.6921
11099TIP3    H254789   2.770   6.136   1.610 -1.8658  1.0030 -2.0706
11100TIP3   OH254790   3.415   2.621   2.700 -0.8399 -0.0609 -0.3535
11100TIP3    H154791   3.380   2.706   2.728  1.6538  0.8436  0.3387
11100TIP3    H254792   3.442   2.579   2.782  2.3204  0.6350 -0.8850
11101TIP3   OH254793   4.248   3.617  13.612  0.4096  0.2503  0.0123
11101TIP3    H154794   4.224   3.638  13.521 -1.4301  0.8607  0.5813
11101TIP3    H254795   4.199   3.681  13.664 -1.9742 -2.6245  1.6431
11102TIP3   OH254796   3.667   0.381   3.521 -0.1323 -0.2008  0.1264
11102TIP3    H154797   3.687   0.289   3.537 -1.6974 -0.5643  0.1544
11102TIP3    H254798   3.631   0.383   3.432 -2.2451 -0.0198  0.9226
11103TIP3   OH254799   3.702   1.772  14.558 -0.0400  0.1683 -0.2726
11103TIP3    H154800   3.760   1.705  14.521 -1.2338 -0.6542 -0.7456
11103TIP3    H254801   3.616   1.730  14.557 -0.6962  1.4849  0.0652
11104TIP3   OH254802   4.098   1.961   6.564 -0.2008  0.3515 -0.4214
11104TIP3    H154803   4.185   2.002   6.562 -0.1990  0.4017 -2.8916
11104TIP3    H254804   4.039   2.031   6.592  0.4940  0.3602  1.1305
11105TIP3   OH254805   2.076   1.482  16.406  0.2077  0.1839 -0.4207
11105TIP3    H154806   2.137   1.411  16.425 -1.0955 -0.0019  4.5650
11105TIP3    H254807   1.989   1.444  16.422 -0.7642  2.0596 -0.9326
11106TIP3   OH254808   4.936   4.500   3.410 -0.5766  0.2790 -0.0801
11106TIP3    H154809   4.950   4.548   3.492 -1.8740  1.9403 -0.7738
11106TIP3    H254810   4.842   4.481   3.409 -0.4739 -0.2362 -0.9228
11107TIP3   OH254811   2.956   4.550  17.040 -0.1133  0.2196  0.1248
11107TIP3    H154812   2.953   4.463  17.080  0.7603  0.2546  0.2805
11107TIP3    H254813   2.949   4.534  16.946  1.3406 -0.1275  0.0535
11108TIP3   OH254814   4.843   4.415  13.079  0.2723 -0.3216  0.0863
11108TIP3    H154815   4.832   4.320  13.089 -2.4734 -0.2234 -1.2336
11108TIP3    H254816   4.822   4.432  12.988  0.2228  1.6404  0.4342
11109TIP3   OH254817   2.302   0.530  11.891 -0.0080  0.1679 -0.1965
11109TIP3    H154818   2.289   0.550  11.984  0.0688  1.9269 -0.5323
11109TIP3    H254819   2.386   0.485  11.888 -0.2878 -0.4386  0.6489
11110TIP3   OH254820   6.598   4.954  13.727  0.0980 -0.4095 -0.3707
11110TIP3    H154821   6.516   4.917  13.759 -1.9231  1.1846 -3.2447
11110TIP3    H254822   6.660   4.943  13.800 -2.2123 -2.9552  1.4062
11111TIP3   OH254823   4.247   2.961   3.832 -0.4085 -0.2625  0.3386
11111TIP3    H154824   4.196   3.018   3.890 -0.2586 -1.0157  1.2262
11111TIP3    H254825   4.326   2.941   3.882  0.4039  0.2558 -0.7117
11112TIP3   OH254826   3.912   3.373   3.913 -0.3849  0.2035 -0.0319
11112TIP3    H154827   3.879   3.290   3.948  0.5840 -0.9208 -1.6641
11112TIP3    H254828   3.986   3.348   3.858  0.4381  2.2524  0.0766
11113TIP3   OH254829   4.829   2.713   0.475  0.2814 -0.5456 -0.4568
11113TIP3    H154830   4.914   2.718   0.431 -0.0120  0.1922 -0.9688
11113TIP3    H254831   4.803   2.621   0.466 -0.2999 -0.2090 -2.9001
11114TIP3   OH254832   5.122   5.281   2.876 -0.0232 -0.0645  0.3470
11114TIP3    H154833   5.138   5.204   2.821 -0.1134  0.3251 -0.2222
11114TIP3    H254834   5.075   5.342   2.820  0.2106  0.4840  0.7394
11115TIP3   OH254835   1.543   4.726  15.254  0.0482  0.4013 -0.1525
11115TIP3    H154836   1.507   4.668  15.186 -0.7186  0.9470 -0.2185
11115TIP3    H254837   1.494   4.703  15.333  2.0407 -1.3845  0.6628
11116TIP3   OH254838   3.714   5.911   1.418 -0.3384  0.0272  0.3381
11116TIP3    H154839   3.720   5.937   1.326 -1.8035  2.5564  0.8641
11116TIP3    H254840   3.636   5.855   1.422  1.4697 -2.6994 -0.3992
11117TIP3   OH254841   4.271   4.544   1.367 -0.2962  0.1203  0.0548
11117TIP3    H154842   4.343   4.584   1.416 -0.1537 -1.4432  1.1967
11117TIP3    H254843   4.297   4.453   1.354 -0.9672  0.1374 -1.7686
11118TIP3   OH254844   4.533   4.333  10.421  0.5246 -0.0933  0.7573
11118TIP3    H154845   4.591   4.403  10.452 -0.4814  1.7433 -1.2580
11118TIP3    H254846   4.587   4.282  10.361 -0.3949  3.2642 -3.3441
11119TIP3   OH254847   3.172   4.133  13.777  0.1462 -0.3534 -0.2963
11119TIP3    H154848   3.117   4.194  13.826  1.4365  0.2124  0.4994
11119TIP3    H254849   3.150   4.149  13.685  0.5094  1.3859 -0.1094
11120TIP3   OH254850   2.712   6.547   5.653 -0.5151  0.7300 -0.2497
11120TIP3    H154851   2.709   6.611   5.724  3.2992  0.8975  0.0032
11120TIP3    H254852   2.709   6.462   5.697 -1.1819  0.7872 -0.1812
11121TIP3   OH254853   2.828   4.669  15.526 -0.3311  0.0946  0.1530
11121TIP3    H154854   2.746   4.653  15.573 -0.7138 -0.4282 -0.6705
11121TIP3    H254855   2.819   4.619  15.445  0.2397  1.1141 -0.5573
11122TIP3   OH254856   1.938   4.430   4.074 -0.9598 -0.3647  0.7621
11122TIP3    H154857   1.997   4.458   4.005 -0.4169 -1.2162  0.8671
11122TIP3    H254858   1.900   4.511   4.108  0.0145  0.1803  0.5824
11123TIP3   OH254859   3.486   6.614   2.462 -0.1314  0.1411 -0.4397
11123TIP3    H154860   3.490   6.671   2.386  0.9750 -0.2249 -0.6808
11123TIP3    H254861   3.547   6.543   2.442  0.8007  0.4550  1.1023
11124TIP3   OH254862   4.335   2.246  16.223  0.1272  0.3334 -0.1579
11124TIP3    H154863   4.373   2.170  16.179  0.1910  0.6244 -0.6164
11124TIP3    H254864   4.322   2.217  16.313 -1.4668 -0.8225 -0.7009
11125TIP3   OH254865   2.088   1.942   0.360  0.1616 -0.3673  0.4357
11125TIP3    H154866   2.092   1.847   0.362  0.7413 -0.3986 -0.9998
11125TIP3    H254867   2.123   1.970   0.445  2.3526 -1.3982 -0.0753
11126TIP3   OH254868   0.610   3.287  16.595  0.6232 -0.3924  0.4659
11126TIP3    H154869   0.650   3.236  16.664 -0.9850 -0.3620  1.4856
11126TIP3    H254870   0.678   3.296  16.528  2.0128 -0.9538  1.7548
11127TIP3   OH254871   5.587   4.129  13.741 -0.6471 -0.1401  0.4276
11127TIP3    H154872   5.539   4.175  13.672 -0.4143  0.0201  0.3709
11127TIP3    H254873   5.525   4.125  13.814 -0.3898  1.0330  0.7393
11128TIP3   OH254874   0.127   6.337   3.385  0.3982 -0.4196  0.4623
11128TIP3    H154875   0.050   6.356   3.439  0.8239  3.9438 -0.0636
11128TIP3    H254876   0.099   6.361   3.296  1.2392 -2.6030 -0.4416
11129TIP3   OH254877   3.017   0.841   2.320  0.5603  0.0123  0.1890
11129TIP3    H154878   2.994   0.793   2.241 -0.6597 -1.7229  1.5217
11129TIP3    H254879   3.063   0.919   2.288 -2.1451  0.7414 -2.3521
11130TIP3   OH254880   4.814   5.559   3.550 -0.5285  0.0363  0.0913
11130TIP3    H154881   4.773   5.608   3.479  0.8478  1.8171  0.4599
11130TIP3    H254882   4.757   5.573   3.625 -0.1518  1.1106  0.1902
11131TIP3   OH254883   0.625   6.158   4.982 -0.6807 -0.4487 -0.4726
11131TIP3    H154884   0.719   6.142   4.988 -0.7052 -0.1172  1.4866
11131TIP3    H254885   0.614   6.248   5.013 -1.5318  0.0348 -2.0347
11132TIP3   OH254886   6.594   3.181   0.269 -0.3076 -0.2297  0.0212
11132TIP3    H154887   6.501   3.160   0.263  0.1131 -1.9903 -1.1269
11132TIP3    H254888   6.626   3.173   0.179  0.8826  0.7820  0.3317
11133TIP3   OH254889   3.949   4.612   3.681  0.1414 -0.6462 -0.1167
11133TIP3    H154890   3.920   4.525   3.709  0.6300 -0.1971  1.9932
11133TIP3    H254891   3.893   4.634   3.607 -1.2362 -1.9963  0.4726
11134TIP3   OH254892   2.003   2.591  12.847 -0.0660  0.0882  0.5833
11134TIP3    H154893   2.070   2.565  12.911  0.2270  2.1590  1.1763
11134TIP3    H254894   1.923   2.599  12.899 -0.0066  0.9712  0.5462
11135TIP3   OH254895   5.402   6.760   4.119  0.6294  0.0222  1.1039
11135TIP3    H154896   5.326   6.707   4.145 -1.6310  1.7911 -1.3729
11135TIP3    H254897   5.477   6.714   4.157 -1.4077 -3.3523  1.4358
11136TIP3   OH254898   3.192   5.430  12.674  0.2284 -0.5261  0.6461
11136TIP3    H154899   3.235   5.355  12.715  0.7247 -1.0026 -0.6972
11136TIP3    H254900   3.100   5.419  12.695  0.1816 -1.9911 -0.2426
11137TIP3   OH254901   4.344   3.284   2.689 -0.1476 -0.2888 -0.3214
11137TIP3    H154902   4.292   3.360   2.715  0.0593 -0.0221 -0.6828
11137TIP3    H254903   4.415   3.281   2.754 -1.6172 -1.7530  1.3114
11138TIP3   OH254904   4.090   4.648  10.385 -0.1256 -0.1281  0.0403
11138TIP3    H154905   4.170   4.596  10.391  0.6920  1.1459  0.9282
11138TIP3    H254906   4.020   4.584  10.379  0.7163 -1.3889  2.3167
11139TIP3   OH254907   5.302   4.896   4.064  0.3859  0.3071  0.0169
11139TIP3    H154908   5.224   4.863   4.021  0.7585 -1.8458  0.8743
11139TIP3    H254909   5.304   4.851   4.149  1.6680  1.5836  0.7109
11140TIP3   OH254910   2.865   1.221  15.618 -0.3337  0.0039  0.4600
11140TIP3    H154911   2.808   1.270  15.677 -1.6999 -1.1157  0.1128
11140TIP3    H254912   2.952   1.259  15.632 -0.8614  0.6801  2.1639
11141TIP3   OH254913   0.435   1.856   4.255 -0.2235 -0.2765  0.0366
11141TIP3    H154914   0.459   1.940   4.295 -0.3693  0.8469 -2.1026
11141TIP3    H254915   0.424   1.797   4.329 -2.3231  2.1380  1.8343
11142TIP3   OH254916   1.849   6.315  17.051  0.5821  0.0283  1.4448
11142TIP3    H154917   1.943   6.313  17.063  0.8173 -1.7405 -0.1992
11142TIP3    H254918   1.819   6.229  17.081 -0.3253  0.1197  0.8425
11143TIP3   OH254919   4.344   1.727   4.403 -0.1612  0.1872 -0.3070
11143TIP3    H154920   4.300   1.657   4.355 -0.3087  1.5208 -2.2027
11143TIP3    H254921   4.428   1.688   4.429 -0.9629 -1.2494  0.2884
11144TIP3   OH254922   4.505   4.708   5.697  0.2497  0.0296 -0.1918
11144TIP3    H154923   4.525   4.625   5.740  1.7242  0.8123  0.7160
11144TIP3    H254924   4.498   4.771   5.769 -0.3633  0.7861 -0.8992
11145TIP3   OH254925   0.500   1.248   0.937 -0.0185  0.1394  0.2425
11145TIP3    H154926   0.592   1.229   0.921 -0.1659 -1.0486  0.7392
11145TIP3    H254927   0.494   1.344   0.930  0.8038  0.0988 -2.1205
11146TIP3   OH254928   0.257   5.720  13.005 -0.0384 -0.3146  0.0483
11146TIP3    H154929   0.198   5.645  12.996 -0.8470  0.0513  1.9275
11146TIP3    H254930   0.334   5.696  12.953 -0.6466 -2.0441 -0.1205
11147TIP3   OH254931   3.103   5.047  11.932  0.2010  0.6527  0.2608
11147TIP3    H154932   3.009   5.058  11.922 -0.0483  0.6814  2.2303
11147TIP3    H254933   3.117   5.048  12.027  2.1582  0.4366  0.0096
11148TIP3   OH254934   1.069   0.880   5.485  0.2516 -0.1883  0.8569
11148TIP3    H154935   1.103   0.956   5.533 -0.3800  0.2070  0.6944
11148TIP3    H254936   1.006   0.917   5.423 -1.2899 -0.9724  1.8832
11149TIP3   OH254937   0.174   5.526   1.439 -0.0757 -0.3612  0.0574
11149TIP3    H154938   0.130   5.490   1.362 -0.2587  0.1479 -0.0783
11149TIP3    H254939   0.253   5.566   1.404 -0.1043 -0.2252  0.1504
11150TIP3   OH254940   5.535   2.871  11.484  0.1478 -0.2495 -0.5503
11150TIP3    H154941   5.625   2.878  11.516  0.1193 -2.1813  0.1347
11150TIP3    H254942   5.489   2.823  11.554 -1.1555 -0.2039 -1.3441
11151TIP3   OH254943   3.084   4.640   5.102 -0.2883  0.6158  0.1039
11151TIP3    H154944   3.059   4.589   5.025  0.0053  1.3773 -0.4974
11151TIP3    H254945   3.021   4.711   5.106  0.3584  1.2122 -0.0816
11152TIP3   OH254946   3.842   1.857  17.054 -0.4550  0.2884  0.3257
11152TIP3    H154947   3.860   1.767  17.078  1.0297  0.4152 -0.2326
11152TIP3    H254948   3.770   1.851  16.990 -1.4409 -0.3557  1.4656
11153TIP3   OH254949   0.381   6.271  15.641 -0.0180 -0.0828 -0.3010
11153TIP3    H154950   0.327   6.202  15.680 -0.3027  0.2960 -0.0260
11153TIP3    H254951   0.333   6.352  15.657  0.0257  0.1167 -1.1521
11154TIP3   OH254952   6.422   1.891  17.293 -0.5296  0.3350 -0.4353
11154TIP3    H154953   6.506   1.887  17.337 -1.2208  1.4846  1.0817
11154TIP3    H254954   6.368   1.825  17.338 -1.1880  1.3884  0.3633
11155TIP3   OH254955   0.318   6.160  16.792  0.5068  0.1275  0.1081
11155TIP3    H154956   0.347   6.184  16.880  0.7029  0.3424 -0.0126
11155TIP3    H254957   0.390   6.187  16.735  0.0434  0.7363 -0.2020
11156TIP3   OH254958   2.894   3.703   5.102 -0.5453 -0.1136 -0.1826
11156TIP3    H154959   2.834   3.692   5.027 -0.5753  0.5137 -0.2578
11156TIP3    H254960   2.981   3.701   5.063 -0.5788  1.5538 -0.4533
11157TIP3   OH254961   0.645   1.950  16.677  0.0970 -0.3417  0.6204
11157TIP3    H154962   0.717   1.983  16.623  0.3252 -2.1046 -0.2323
11157TIP3    H254963   0.568   2.000  16.648  0.1420 -1.4540 -1.6636
11158TIP3   OH254964   5.166   5.313  12.942 -0.3082 -0.3275 -0.0626
11158TIP3    H154965   5.212   5.310  12.858  0.0412  0.0824  0.1065
11158TIP3    H254966   5.213   5.380  12.993 -1.2374  0.2847  0.0285
11159TIP3   OH254967   4.377   4.528   0.050  0.7037 -0.2352 -0.5978
11159TIP3    H154968   4.428   4.587  -0.005  0.8640 -0.8495 -1.1266
11159TIP3    H254969   4.345   4.461  -0.010  0.6903 -0.7936  0.0197
11160TIP3   OH254970   6.497   2.089  12.168  0.6510  0.3964 -0.2837
11160TIP3    H154971   6.462   2.021  12.110  3.8278 -1.2766 -0.4379
11160TIP3    H254972   6.494   2.169  12.116 -1.3895  0.0434 -0.7962
11161TIP3   OH254973   1.479   0.422  11.712  0.3482  0.0864 -0.0945
11161TIP3    H154974   1.411   0.465  11.763  1.4753  0.8601  0.8208
11161TIP3    H254975   1.479   0.332  11.744  0.2197  0.2569  0.4002
11162TIP3   OH254976   0.410   3.453  15.408  0.2925  0.1864 -0.1483
11162TIP3    H154977   0.445   3.372  15.370  0.7831 -0.5941  1.8192
11162TIP3    H254978   0.315   3.439  15.408  0.3156 -0.0013 -0.6262
11163TIP3   OH254979   3.963   3.560   1.684 -0.1446  0.0657  0.2127
11163TIP3    H154980   3.988   3.553   1.592 -0.7864  2.0343 -0.1543
11163TIP3    H254981   4.045   3.576   1.730 -0.0230  0.7771 -0.2420
11164TIP3   OH254982   1.104   4.593  12.432  0.7823 -0.4522  0.1544
11164TIP3    H154983   1.138   4.682  12.427 -0.3463  0.0665  1.3982
11164TIP3    H254984   1.168   4.541  12.382  2.0257  0.8617  0.3049
11165TIP3   OH254985   2.561   1.149   4.916  0.3649 -0.2922  0.0509
11165TIP3    H154986   2.615   1.091   4.862 -2.1438 -1.4603 -1.3676
11165TIP3    H254987   2.606   1.234   4.912  3.0857 -1.5789  0.5791
11166TIP3   OH254988   3.066   4.444   3.810 -0.1021  0.2400 -0.0302
11166TIP3    H154989   3.085   4.461   3.903  1.4741  0.2839 -0.3289
11166TIP3    H254990   3.105   4.358   3.794 -1.3748 -0.2823 -0.3840
11167TIP3   OH254991   0.561   1.250  12.014  0.4571 -0.7663  0.3194
11167TIP3    H154992   0.500   1.298  11.959  1.0214  0.4530  0.7169
11167TIP3    H254993   0.544   1.282  12.103 -1.3944 -3.6845  1.1450
11168TIP3   OH254994   3.454   2.167   5.303  0.2889  0.4476 -0.1609
11168TIP3    H154995   3.407   2.206   5.229  0.4266  0.2167 -0.3692
11168TIP3    H254996   3.396   2.099   5.336  0.3471  0.3665 -0.2270
11169TIP3   OH254997   1.003   1.032  16.073  0.1232  0.2517 -0.2609
11169TIP3    H154998   0.947   0.998  16.003 -0.0681  0.8688 -0.4154
11169TIP3    H254999   0.954   1.106  16.109 -1.6110 -2.2364  3.1246
11170TIP3   OH255000   3.792   3.041   3.292 -0.3312  0.5681  0.6847
11170TIP3    H155001   3.817   3.022   3.382 -0.7230 -0.5234  0.5761
11170TIP3    H255002   3.875   3.058   3.246 -0.2351  3.4241  1.7032
11171TIP3   OH255003   4.328   3.569   1.358 -0.6500 -0.8442  0.3938
11171TIP3    H155004   4.353   3.577   1.450 -0.5305  1.6305  0.2136
11171TIP3    H255005   4.243   3.525   1.360 -2.3624  2.2242  2.0296
11172TIP3   OH255006   2.591   0.936   3.264  0.1519 -0.8910  0.5874
11172TIP3    H155007   2.594   1.032   3.258  0.7104 -0.9710 -2.7023
11172TIP3    H255008   2.504   0.913   3.231  1.5500 -1.4960 -3.2233
11173TIP3   OH255009   4.217   0.172   5.175 -0.2401 -0.3866  0.0857
11173TIP3    H155010   4.213   0.113   5.100  0.8697  0.1941 -0.4573
11173TIP3    H255011   4.213   0.260   5.137  1.7176 -0.0438  0.5310
11174TIP3   OH255012   5.336   6.000   4.570 -0.3814 -0.4459 -0.1343
11174TIP3    H155013   5.333   5.920   4.518 -0.0597 -0.9639  0.6215
11174TIP3    H255014   5.424   6.001   4.608 -0.3737  0.2821 -0.1551
11175TIP3   OH255015   1.959   1.408   0.914  0.1909 -0.2551  0.2457
11175TIP3    H155016   1.874   1.430   0.952 -0.3722 -0.3776 -0.8891
11175TIP3    H255017   1.987   1.488   0.870  1.3569  0.2266  1.7926
11176TIP3   OH255018   4.698   3.155  12.736  0.2392  0.8952 -0.0827
11176TIP3    H155019   4.695   3.216  12.662 -1.3353  0.6721 -0.2364
11176TIP3    H255020   4.697   3.068  12.696  2.5493  0.6861  0.1308
11177TIP3   OH255021   3.008   6.502   2.349  0.2098  1.2781  0.1051
11177TIP3    H155022   2.930   6.522   2.296  0.2124  0.2434 -0.3191
11177TIP3    H255023   3.082   6.521   2.291  0.1993 -1.7790 -1.0925
11178TIP3   OH255024   4.097   3.086   1.190 -0.6786  0.1811  0.3372
11178TIP3    H155025   4.095   3.002   1.236 -1.3449 -0.3933 -0.6944
11178TIP3    H255026   4.134   3.148   1.253  2.7002 -1.4484  0.1723
11179TIP3   OH255027   5.315   5.976   2.102 -0.1998  0.0377 -0.2293
11179TIP3    H155028   5.377   6.041   2.134  0.8389 -1.1735  0.2999
11179TIP3    H255029   5.249   5.968   2.171  0.2435 -0.2126  0.1682
11180TIP3   OH255030   4.651   6.416  15.572 -0.1634  0.1546 -0.2787
11180TIP3    H155031   4.696   6.425  15.656  0.4164 -0.7743 -0.4733
11180TIP3    H255032   4.564   6.453  15.587  0.4712  1.5241  0.2602
11181TIP3   OH255033   5.351   4.508   2.909 -0.0109 -0.1141 -0.1839
11181TIP3    H155034   5.443   4.501   2.886 -0.0818 -1.5829 -0.1252
11181TIP3    H255035   5.346   4.480   3.000 -0.4824  0.2149 -0.1018
11182TIP3   OH255036   3.042   3.259   5.025 -0.0873  0.1420 -0.7920
11182TIP3    H155037   2.981   3.215   5.084  0.7222 -1.2532 -0.9478
11182TIP3    H255038   3.126   3.253   5.069  0.5339 -0.9439 -2.0627
11183TIP3   OH255039   1.121   5.117   5.418  0.0262  0.1621 -0.2340
11183TIP3    H155040   1.037   5.114   5.373  0.8045 -1.9223 -1.6940
11183TIP3    H255041   1.182   5.152   5.354  0.7297 -0.7154 -0.0595
11184TIP3   OH255042   5.629   4.779  13.844 -0.4482 -0.5237 -0.7855
11184TIP3    H155043   5.649   4.839  13.916 -0.2088 -0.3615 -0.9874
11184TIP3    H255044   5.538   4.754  13.858  0.4872 -3.2229  1.6220
11185TIP3   OH255045   3.263   4.127   0.771  0.0984 -0.3449 -0.2778
11185TIP3    H155046   3.217   4.192   0.717  0.0718  0.9949  1.2721
11185TIP3    H255047   3.199   4.057   0.784 -1.0300  0.8015  0.6145
11186TIP3   OH255048   5.851   6.600  11.337 -0.4453  0.1283 -0.3017
11186TIP3    H155049   5.867   6.683  11.382  0.3491  0.2136 -0.7164
11186TIP3    H255050   5.839   6.624  11.245 -0.3767 -0.1991 -0.4001
11187TIP3   OH255051   5.824   4.847  13.663 -0.5355  0.4253 -0.2355
11187TIP3    H155052   5.791   4.883  13.580 -0.3849  1.1057 -0.0002
11187TIP3    H255053   5.745   4.831  13.715 -0.6734 -0.5573 -0.7250
11188TIP3   OH255054   6.280   1.096  11.621 -0.2433 -0.1236  0.5057
11188TIP3    H155055   6.250   1.011  11.589 -0.7787  0.4256 -0.4742
11188TIP3    H255056   6.272   1.090  11.716 -0.0623 -1.2458  0.4579
11189TIP3   OH255057   6.386   0.651   0.205 -0.2783 -0.1851  0.1685
11189TIP3    H155058   6.392   0.728   0.262 -0.8656 -0.0600  0.0718
11189TIP3    H255059   6.462   0.657   0.148 -0.4426  0.4623  0.0030
11190TIP3   OH255060   2.993   5.177  13.751  0.1740  0.0762 -0.1844
11190TIP3    H155061   2.926   5.137  13.807  0.0330 -0.1438 -0.5076
11190TIP3    H255062   2.968   5.152  13.662  0.7665 -0.1346 -0.2970
11191TIP3   OH255063   0.398   1.215   1.641  0.5303 -0.9356  0.5998
11191TIP3    H155064   0.416   1.234   1.549  1.1058  0.7391  1.0363
11191TIP3    H255065   0.459   1.145   1.664  0.2165 -1.5337 -0.3427
11192TIP3   OH255066   0.106   4.267   4.486  0.6048 -0.3018 -0.1313
11192TIP3    H155067   0.115   4.362   4.485 -0.2355 -0.2174 -1.0499
11192TIP3    H255068   0.012   4.252   4.475  0.3929 -1.2148  2.2222
11193TIP3   OH255069   0.650   5.518  12.555  0.7482  0.4839 -0.3669
11193TIP3    H155070   0.559   5.522  12.526  0.6292  2.3345  0.1713
11193TIP3    H255071   0.696   5.580  12.499  1.6089 -0.1267 -0.3507
11194TIP3   OH255072   1.125   3.130   4.295 -0.3051 -0.3174  0.4569
11194TIP3    H155073   1.211   3.092   4.278  0.0205  0.7044 -0.2812
11194TIP3    H255074   1.077   3.120   4.213  0.6463  2.9936 -0.6657
11195TIP3   OH255075   6.470   5.554   3.775  0.0841 -0.0600 -0.0509
11195TIP3    H155076   6.409   5.604   3.829 -0.2058 -1.3253  0.8444
11195TIP3    H255077   6.430   5.553   3.688 -0.4692  0.3133  0.1915
11196TIP3   OH255078   2.028   4.598  15.063 -0.6352  0.1765  0.0904
11196TIP3    H155079   2.102   4.546  15.033 -1.7578  0.0630 -2.8349
11196TIP3    H255080   1.963   4.533  15.090  0.4228  0.2769  3.2968
11197TIP3   OH255081   2.233   4.988   5.430 -0.6550  0.2620  0.3346
11197TIP3    H155082   2.305   4.978   5.493 -1.1985  0.9533  1.0762
11197TIP3    H255083   2.274   5.029   5.353  0.2323 -1.5372 -0.2094
11198TIP3   OH255084   2.151   4.106   6.123  0.2318 -0.4394  0.3651
11198TIP3    H155085   2.225   4.073   6.071 -0.1039 -1.1021  0.3090
11198TIP3    H255086   2.077   4.051   6.099 -0.0217 -0.5129  1.2640
11199TIP3   OH255087   3.478   1.095  10.979  0.2473  0.1375  0.5959
11199TIP3    H155088   3.509   1.041  11.052  0.8621  0.1887  0.3789
11199TIP3    H255089   3.502   1.184  11.003  0.0662  0.2058  0.5259
11200TIP3   OH255090   6.170   1.333  16.210 -0.0685  0.6123  0.2561
11200TIP3    H155091   6.124   1.331  16.294 -1.3666 -0.2926 -0.4576
11200TIP3    H255092   6.104   1.363  16.147 -0.6048 -3.2915 -1.2811
11201TIP3   OH255093   6.001   0.015   2.766  0.2606 -0.7541 -0.4999
11201TIP3    H155094   6.073   0.058   2.721 -0.5700  1.9113  0.5243
11201TIP3    H255095   5.930   0.012   2.701  0.3997 -0.7917 -0.6487
11202TIP3   OH255096   3.907   0.172  16.483  0.3317 -0.3809  0.3716
11202TIP3    H155097   3.901   0.117  16.561  2.9583  0.0842  0.9944
11202TIP3    H255098   3.946   0.114  16.417 -0.8810 -0.4575 -0.2996
11203TIP3   OH255099   0.576   0.740   0.735 -0.2328  0.0849  0.1451
11203TIP3    H155100   0.660   0.778   0.708 -0.5611  1.1775  0.6023
11203TIP3    H255101   0.600   0.674   0.801  0.2209  1.2127  1.1526
11204TIP3   OH255102   6.346   3.696   6.731  0.3945  0.0822  0.1859
11204TIP3    H155103   6.279   3.707   6.664  2.2641  0.6569 -1.6806
11204TIP3    H255104   6.330   3.767   6.793  0.1435  1.1018 -1.0119
11205TIP3   OH255105   4.189   1.743   2.454 -0.3462 -0.0417 -0.2519
11205TIP3    H155106   4.152   1.663   2.491 -0.3589 -0.5146 -1.2595
11205TIP3    H255107   4.276   1.717   2.424  0.1151  0.6209  0.4552
11206TIP3   OH255108   1.242   6.240   4.378  0.0834  0.3058  0.3055
11206TIP3    H155109   1.255   6.273   4.289 -1.7400  0.8382  0.1997
11206TIP3    H255110   1.275   6.310   4.434  0.4218  0.3437  0.0676
11207TIP3   OH255111   0.313   6.717   3.304  0.2905 -0.1846  0.4681
11207TIP3    H155112   0.362   6.731   3.223  0.1531 -1.0678  0.2272
11207TIP3    H255113   0.376   6.738   3.374  0.5165  0.2247  0.1495
11208TIP3   OH255114   3.228   3.302  12.719  0.0630 -0.0181 -0.1064
11208TIP3    H155115   3.157   3.239  12.711  0.4598 -0.3651 -1.0842
11208TIP3    H255116   3.186   3.387  12.701 -0.1329 -0.2033 -0.5411
11209TIP3   OH255117   1.757   1.854   5.641 -0.2159 -0.2523 -0.3509
11209TIP3    H155118   1.684   1.911   5.666  2.1279  2.2494  1.4216
11209TIP3    H255119   1.805   1.840   5.722  2.9059  0.7936 -1.8461
11210TIP3   OH255120   2.382   6.415   4.553  0.3412 -0.4121  0.1370
11210TIP3    H155121   2.362   6.327   4.584 -0.7723 -0.3494 -0.3546
11210TIP3    H255122   2.353   6.415   4.462 -0.2167  0.6378  0.3009
11211TIP3   OH255123   5.431   4.624  17.426 -0.1201  0.0975  0.1803
11211TIP3    H155124   5.355   4.664  17.384 -0.0646 -0.3488 -0.3568
11211TIP3    H255125   5.429   4.532  17.398  0.2120 -0.0886  0.7386
11212TIP3   OH255126   2.063   5.904   1.671 -0.2480  0.0946 -0.7055
11212TIP3    H155127   2.111   5.948   1.601  0.3935  1.1836  0.3754
11212TIP3    H255128   2.038   5.974   1.731 -0.2322 -0.8676  0.4730
11213TIP3   OH255129   2.254   2.263  13.851 -0.6310  0.1635  0.7775
11213TIP3    H155130   2.287   2.318  13.781  1.7232  0.2117  1.8464
11213TIP3    H255131   2.182   2.314  13.889 -3.2873 -0.6370 -2.6090
11214TIP3   OH255132   5.971   6.025   3.837  0.0172  0.1093  0.4043
11214TIP3    H155133   6.038   5.957   3.837 -1.0621 -0.9983 -0.0627
11214TIP3    H255134   5.911   6.000   3.768  1.0193  3.0710 -1.7467
11215TIP3   OH255135   3.753   4.678   4.293 -0.8299  0.5628  0.2532
11215TIP3    H155136   3.815   4.707   4.226 -0.8012  1.5662  0.6827
11215TIP3    H255137   3.801   4.689   4.376 -0.0318 -2.8255  0.3625
11216TIP3   OH255138   2.647   5.459   0.009 -0.3388 -0.0228 -0.2522
11216TIP3    H155139   2.654   5.465  -0.086  0.0651 -1.4673 -0.3389
11216TIP3    H255140   2.663   5.548   0.040 -0.0440  0.3818 -1.5032
11217TIP3   OH255141   2.849   1.371  13.652  0.2700  0.6807  0.0007
11217TIP3    H155142   2.794   1.317  13.709 -0.2499  0.7924 -0.3880
11217TIP3    H255143   2.938   1.350  13.679  0.0380  0.7084  0.8364
11218TIP3   OH255144   5.782   2.847  17.091 -0.8745  0.1133  0.2835
11218TIP3    H155145   5.845   2.909  17.129 -2.1460  1.2849  0.5451
11218TIP3    H255146   5.699   2.894  17.092 -1.9070 -1.6408  0.5656
11219TIP3   OH255147   5.471   6.142   0.099  1.0198 -0.4028  0.0470
11219TIP3    H155148   5.380   6.113   0.090  1.0165 -0.3624 -0.0582
11219TIP3    H255149   5.518   6.065   0.128  0.9479 -0.4181  0.1252
11220TIP3   OH255150   4.632   2.817   2.374 -0.1422  0.2394  0.2732
11220TIP3    H155151   4.713   2.767   2.388  0.4674  1.1447  0.0371
11220TIP3    H255152   4.658   2.908   2.385 -1.4234  0.4826  1.5998
11221TIP3   OH255153   2.897   2.143  16.934 -0.4708 -0.9399  0.3256
11221TIP3    H155154   2.971   2.148  16.994  0.9523 -0.0019 -1.4029
11221TIP3    H255155   2.858   2.057  16.951  1.9750 -2.1610  0.2538
11222TIP3   OH255156   1.204   6.033  10.254  0.1758 -0.2400  0.0219
11222TIP3    H155157   1.161   6.060  10.336 -0.5832 -1.1741 -0.0570
11222TIP3    H255158   1.153   6.077  10.186  1.3419  1.2481  0.0629
11223TIP3   OH255159   6.626   2.579   2.346 -0.1135 -0.5661  0.0545
11223TIP3    H155160   6.669   2.512   2.399  1.2936 -0.1286 -0.4792
11223TIP3    H255161   6.538   2.545   2.330  0.6171 -2.3834 -0.3679
11224TIP3   OH255162   3.312   1.385  10.976  0.7863  0.3181  0.2186
11224TIP3    H155163   3.262   1.390  11.058  0.1779 -0.1912 -0.1096
11224TIP3    H255164   3.396   1.347  11.002  0.9859  1.1064  0.7642
11225TIP3   OH255165   0.785   3.786  15.239  0.1888  0.2409 -0.1700
11225TIP3    H155166   0.784   3.823  15.151  0.4661 -0.0794 -0.3079
11225TIP3    H255167   0.704   3.735  15.243  0.9112 -1.0061 -0.7898
11226TIP3   OH255168   5.222   0.513   6.790  0.3857 -0.2739  1.1061
11226TIP3    H155169   5.130   0.537   6.803  0.2444  0.1410 -0.3968
11226TIP3    H255170   5.222   0.418   6.786 -0.1281 -0.2518  0.2848
11227TIP3   OH255171   3.671   2.866  14.314  0.4829 -0.1073 -0.0170
11227TIP3    H155172   3.660   2.772  14.328 -1.5357 -0.7305 -4.1112
11227TIP3    H255173   3.757   2.873  14.274 -0.1586 -0.5960 -1.5652
11228TIP3   OH255174   3.148   4.712  14.203 -0.1210  0.6319 -0.5632
11228TIP3    H155175   3.110   4.787  14.248  1.4445  0.2301  1.6020
11228TIP3    H255176   3.225   4.748  14.158 -0.0769  0.5387 -0.5619
11229TIP3   OH255177   5.289   2.552  14.251  0.8386  0.3797  0.0846
11229TIP3    H155178   5.234   2.597  14.316 -0.8776 -0.4334 -0.7245
11229TIP3    H255179   5.349   2.498  14.302 -0.2781 -0.0209  1.0072
11230TIP3   OH255180   5.395   6.067   3.235  0.0072  0.3275 -0.1218
11230TIP3    H155181   5.342   6.023   3.169 -0.2230  0.8912 -0.3153
11230TIP3    H255182   5.341   6.139   3.266 -0.3896 -0.6498  1.5887
11231TIP3   OH255183   4.761   6.365  14.544  0.1409  0.1344 -0.1945
11231TIP3    H155184   4.689   6.427  14.555 -0.1761 -0.3065  0.2606
11231TIP3    H255185   4.793   6.381  14.455 -1.2963 -0.4577 -0.8567
11232TIP3   OH255186   4.342   3.738   6.647 -0.1787  0.3243 -0.0615
11232TIP3    H155187   4.293   3.813   6.616  0.2706  1.4747  1.8321
11232TIP3    H255188   4.399   3.714   6.573 -2.6809 -0.3400 -1.8876
11233TIP3   OH255189   4.456   0.557  16.806  0.0045  0.8596 -0.1476
11233TIP3    H155190   4.444   0.602  16.890 -1.0156 -0.8032  0.6406
11233TIP3    H255191   4.395   0.600  16.747 -0.1172  1.2769  0.2751
11234TIP3   OH255192   3.000   5.618   4.881  0.7035 -0.5172 -0.4854
11234TIP3    H155193   3.003   5.673   4.960 -0.8879 -1.5064  0.3316
11234TIP3    H255194   2.917   5.642   4.840  0.8378 -1.0564 -1.0722
11235TIP3   OH255195   1.144   3.679  13.552  0.3777  0.9752 -0.4798
11235TIP3    H155196   1.112   3.731  13.626 -1.1794  0.1420 -0.5175
11235TIP3    H255197   1.132   3.736  13.476 -0.7841  0.8002 -0.4485
11236TIP3   OH255198   1.903   0.770   5.923  0.7506 -0.0444 -0.3940
11236TIP3    H155199   1.864   0.730   6.001 -2.1796  1.1050 -1.1588
11236TIP3    H255200   1.941   0.853   5.955  1.1675 -0.4025  0.0717
11237TIP3   OH255201   1.417   6.615   5.699  0.6074 -0.2476 -0.5323
11237TIP3    H155202   1.350   6.562   5.744  1.8721 -0.8850  0.6772
11237TIP3    H255203   1.395   6.705   5.722  1.9300 -0.5836  2.5745
11238TIP3   OH255204   5.441   0.090  12.129  0.4765 -0.1037 -0.0341
11238TIP3    H155205   5.439   0.139  12.047  0.1179  0.9889  0.6086
11238TIP3    H255206   5.524   0.113  12.170  0.4341 -0.2627  0.1457
11239TIP3   OH255207   4.163   2.592   4.326  0.0515  0.0081  0.4483
11239TIP3    H155208   4.152   2.670   4.381  1.3669  0.8541 -0.4494
11239TIP3    H255209   4.189   2.626   4.241  3.3851 -1.4507  0.7371
11240TIP3   OH255210   4.326   2.455  12.273  0.4223 -0.1187  0.5425
11240TIP3    H155211   4.284   2.541  12.282 -1.5491 -0.4444 -3.4410
11240TIP3    H255212   4.410   2.473  12.232  0.7163 -0.0051  1.1881
11241TIP3   OH255213   0.453   0.803  16.902 -0.4268 -0.1561 -0.4075
11241TIP3    H155214   0.519   0.757  16.850 -1.9890  0.1483 -2.8626
11241TIP3    H255215   0.475   0.784  16.993  2.0795 -1.3175 -1.1885
11242TIP3   OH255216   6.721   2.575  12.202 -0.2361 -0.3307  0.1225
11242TIP3    H155217   6.793   2.534  12.249  0.9779  0.2093 -1.1946
11242TIP3    H255218   6.665   2.611  12.271  0.0748 -1.8418  1.2035
11243TIP3   OH255219   3.501   4.828  14.491  0.1837  0.1730  0.2311
11243TIP3    H155220   3.584   4.836  14.443 -0.0624  0.7596 -0.1105
11243TIP3    H255221   3.463   4.916  14.487 -0.0113  0.1423  1.1968
11244TIP3   OH255222   1.621   4.937   4.819  0.8263  0.3413 -0.6084
11244TIP3    H155223   1.648   5.028   4.803 -2.1573  1.8885  1.9296
11244TIP3    H255224   1.653   4.918   4.907  1.7939 -1.2760 -1.2822
11245TIP3   OH255225   4.767   4.623   5.371  0.1165 -0.2539 -0.4404
11245TIP3    H155226   4.765   4.529   5.354 -0.7233 -0.3394  0.0802
11245TIP3    H255227   4.860   4.642   5.386  0.2972 -0.9886 -0.5727
11246TIP3   OH255228   0.001   1.854  13.714  0.0809 -0.4770  0.0982
11246TIP3    H155229  -0.003   1.822  13.804  0.8867  0.0654  0.3375
11246TIP3    H255230  -0.056   1.795  13.664 -0.7663 -0.4855  1.0422
11247TIP3   OH255231   3.919   0.515  16.184  0.3350  0.6945 -0.2897
11247TIP3    H155232   3.836   0.484  16.147  0.1119 -0.3176  0.9946
11247TIP3    H255233   3.920   0.608  16.165 -1.7248  0.9892  0.7508
11248TIP3   OH255234   5.450   3.139  15.321  0.3886  0.2046  0.1323
11248TIP3    H155235   5.408   3.222  15.346 -0.1967 -0.5593  1.8765
11248TIP3    H255236   5.408   3.115  15.238 -0.0056  1.2570  0.0074
11249TIP3   OH255237   6.612   4.689  15.461 -0.5264  0.0828 -0.2823
11249TIP3    H155238   6.678   4.685  15.392 -0.4236 -1.7074 -0.1448
11249TIP3    H255239   6.529   4.670  15.416 -0.9707  2.1078 -0.4189
11250TIP3   OH255240   0.365   0.368  13.352 -0.7489  0.9272  0.9145
11250TIP3    H155241   0.402   0.291  13.310 -0.9988  0.9065  0.7274
11250TIP3    H255242   0.375   0.438  13.287 -0.7739  0.9872  0.9745
11251TIP3   OH255243   1.394   2.188  14.001 -0.1680  0.5653 -0.0532
11251TIP3    H155244   1.329   2.258  13.994 -2.2502 -1.3579 -1.2291
11251TIP3    H255245   1.412   2.182  14.095 -1.8172  1.0997  0.3346
11252TIP3   OH255246   6.333   0.220   4.574 -0.3161  0.0013  0.2731
11252TIP3    H155247   6.293   0.284   4.515 -0.2791  0.1492  0.4072
11252TIP3    H255248   6.260   0.166   4.604 -0.2307 -0.5416 -0.4826
11253TIP3   OH255249   4.807   0.365  16.612 -0.2378 -0.0818  0.3759
11253TIP3    H155250   4.861   0.314  16.672 -0.4301 -0.8607 -0.0986
11253TIP3    H255251   4.786   0.304  16.541 -0.5418  0.6333 -0.1632
11254TIP3   OH255252   0.956   4.351  16.859  0.0270  0.4058 -0.2402
11254TIP3    H155253   0.874   4.332  16.904  1.3398 -1.1185  1.6751
11254TIP3    H255254   0.995   4.265  16.842  0.7161  1.0546 -2.1681
11255TIP3   OH255255   6.109   0.682   5.344  0.4044  0.3928  0.1206
11255TIP3    H155256   6.202   0.669   5.364  0.4344  0.0996 -0.2206
11255TIP3    H255257   6.063   0.624   5.404  0.4153  0.9229  0.6543
11256TIP3   OH255258   5.845   1.291   2.267  0.1280 -0.1348 -0.2175
11256TIP3    H155259   5.825   1.381   2.291 -0.1496 -0.6159  1.5350
11256TIP3    H255260   5.913   1.297   2.201 -0.9185  1.3860 -1.2004
11257TIP3   OH255261   5.799   3.572   1.633  0.4370 -0.1648 -0.1350
11257TIP3    H155262   5.813   3.661   1.667 -1.6479 -0.3762  1.4830
11257TIP3    H255263   5.873   3.522   1.665  0.7042  0.6047  0.4838
11258TIP3   OH255264   2.108   3.929   0.595  0.5672  0.0259 -0.5443
11258TIP3    H155265   2.165   3.922   0.672 -0.3240 -2.0616  0.0173
11258TIP3    H255266   2.168   3.941   0.522  1.4410  2.0111  0.4330
11259TIP3   OH255267   3.675   5.889   4.844  0.5537  0.4666 -0.7422
11259TIP3    H155268   3.607   5.955   4.834  0.4653  0.1685 -2.2122
11259TIP3    H255269   3.752   5.928   4.803  2.1312  1.8868  3.0306
11260TIP3   OH255270   3.378   4.332  11.386  0.3902  0.4720  0.1083
11260TIP3    H155271   3.291   4.310  11.420 -0.8711  3.3791 -0.9531
11260TIP3    H255272   3.435   4.333  11.463 -0.4874 -1.3227  0.8392
11261TIP3   OH255273   6.756   2.019   5.814  0.0893  0.2028 -0.1761
11261TIP3    H155274   6.787   1.933   5.786  0.3269  0.1500  0.2490
11261TIP3    H255275   6.673   2.002   5.859  1.6591 -0.2113  2.7914
11262TIP3   OH255276   5.164   0.321   0.594  0.3081 -0.4795  0.5091
11262TIP3    H155277   5.250   0.347   0.628 -0.1509  0.8104  0.7463
11262TIP3    H255278   5.173   0.228   0.576  1.7526 -0.3767  0.5505
11263TIP3   OH255279   4.417   3.915   4.501 -0.3829  0.1380 -0.0598
11263TIP3    H155280   4.444   3.992   4.551  0.6014 -0.4995  0.4250
11263TIP3    H255281   4.482   3.907   4.431 -0.3025 -0.4196  0.0720
11264TIP3   OH255282   0.583   1.362  10.991 -0.0562  0.3494 -0.0249
11264TIP3    H155283   0.563   1.345  10.899  1.1328  1.5644 -0.5355
11264TIP3    H255284   0.541   1.289  11.038 -0.1729 -0.6300 -1.5584
11265TIP3   OH255285   3.976   5.222  14.705 -0.1933  0.1981 -0.2520
11265TIP3    H155286   4.054   5.172  14.730 -0.4920  0.2766  0.8625
11265TIP3    H255287   3.955   5.189  14.617  0.4419 -0.6204 -0.1169
11266TIP3   OH255288   1.026   6.418   5.497 -0.2717  0.9667  0.0034
11266TIP3    H155289   1.049   6.506   5.524 -2.2639  1.0117  1.8486
11266TIP3    H255290   0.966   6.430   5.423 -1.0473  1.2132  0.6606
11267TIP3   OH255291   3.473   5.846  16.033  0.0575  0.5410 -0.0649
11267TIP3    H155292   3.485   5.906  15.959  2.7242  1.7744  1.2359
11267TIP3    H255293   3.540   5.779  16.020 -1.3590 -0.9090 -0.2276
11268TIP3   OH255294   5.957   1.776  11.287  0.2625 -0.1855 -0.1080
11268TIP3    H155295   5.994   1.732  11.210  1.8945  1.3520 -0.2515
11268TIP3    H255296   6.023   1.763  11.356 -0.3083  0.0725  0.4983
11269TIP3   OH255297   0.495   4.136   3.106 -0.3989 -0.1887 -0.6173
11269TIP3    H155298   0.410   4.126   3.149 -0.8554 -2.3454 -1.8538
11269TIP3    H255299   0.521   4.047   3.083  3.5777  0.0077  2.1639
11270TIP3   OH255300   4.191   0.489  14.886  0.2053 -0.0114  0.3751
11270TIP3    H155301   4.249   0.529  14.951  0.4767  0.5923 -0.2229
11270TIP3    H255302   4.250   0.441  14.828  0.1168  0.5955 -0.2293
11271TIP3   OH255303   5.482   3.831  12.164  0.4415  0.1615  0.4425
11271TIP3    H155304   5.516   3.828  12.075  1.9251 -0.8564  1.0042
11271TIP3    H255305   5.514   3.914  12.200 -2.5811  2.0556 -0.7935
11272TIP3   OH255306   0.644   2.253   1.002  0.3705  0.5206 -0.1049
11272TIP3    H155307   0.681   2.331   1.043  0.3490 -0.8047  2.6354
11272TIP3    H255308   0.549   2.265   1.009  0.3590  0.5173 -0.2468
11273TIP3   OH255309   4.422   4.661   1.909 -0.2378 -0.3492 -0.0661
11273TIP3    H155310   4.431   4.585   1.851  0.6646 -0.4240  0.1528
11273TIP3    H255311   4.422   4.736   1.849  0.0357 -0.4582 -0.2038
11274TIP3   OH255312   2.362   6.515   6.090 -0.1205 -0.3548 -0.0508
11274TIP3    H155313   2.414   6.590   6.061 -0.7614 -0.4653 -1.5972
11274TIP3    H255314   2.271   6.544   6.080 -0.3768 -0.5765  1.4747
11275TIP3   OH255315   1.681   3.094   3.195 -0.3997 -0.0590 -0.6583
11275TIP3    H155316   1.660   3.165   3.134 -1.7400 -0.1000 -0.2608
11275TIP3    H255317   1.641   3.120   3.278  1.9426  0.3225  0.4638
11276TIP3   OH255318   1.225   4.369   0.426  0.2350 -0.1834 -0.4039
11276TIP3    H155319   1.281   4.293   0.409  0.0680 -0.1838 -0.9961
11276TIP3    H255320   1.279   4.429   0.477  0.3136 -0.7702  0.2210
11277TIP3   OH255321   0.250   4.014  11.618  0.1600 -0.3576 -0.3575
11277TIP3    H155322   0.201   4.096  11.622  0.4074 -0.2593  2.9162
11277TIP3    H255323   0.184   3.947  11.603 -0.3201  0.2043 -0.8353
11278TIP3   OH255324   1.878   2.124   5.534 -0.1275 -0.3131  0.3553
11278TIP3    H155325   1.955   2.178   5.516 -0.1089 -0.5611 -0.3140
11278TIP3    H255326   1.914   2.040   5.562 -0.1569 -0.0159  1.3124
11279TIP3   OH255327   3.216   5.205   3.981 -0.2315  0.5512  0.7390
11279TIP3    H155328   3.287   5.210   4.045 -0.5262  0.4594  1.0784
11279TIP3    H255329   3.256   5.233   3.899 -0.1150  1.6958  1.1735
11280TIP3   OH255330   1.843   3.582   3.967  0.0800  0.5255  0.0494
11280TIP3    H155331   1.876   3.638   3.896 -0.6225 -1.4764 -1.9994
11280TIP3    H255332   1.907   3.511   3.973  0.0508  0.5835  1.3800
11281TIP3   OH255333   2.651   3.856   0.980 -0.4732  0.4955 -0.1919
11281TIP3    H155334   2.697   3.854   0.896 -1.0788  2.0034 -0.5918
11281TIP3    H255335   2.720   3.852   1.046  0.4287  3.9123 -0.7565
11282TIP3   OH255336   6.058   1.675   5.362 -0.6379 -0.6130 -0.2334
11282TIP3    H155337   5.968   1.653   5.386 -1.2499  0.2757 -1.6306
11282TIP3    H255338   6.052   1.708   5.273  1.1155 -0.7613 -0.4408
11283TIP3   OH255339   5.134   5.762   2.016  0.4611  0.2563 -0.0082
11283TIP3    H155340   5.208   5.716   2.054 -0.1418  0.1681  1.1042
11283TIP3    H255341   5.058   5.708   2.038 -0.1810  1.4262  0.7623
11284TIP3   OH255342   2.562   0.366  15.451  0.4652  0.0601 -0.6670
11284TIP3    H155343   2.598   0.295  15.397 -0.6424  0.2217 -1.6519
11284TIP3    H255344   2.517   0.320  15.522 -2.3579 -0.4210 -2.6015
11285TIP3   OH255345   4.267   2.541   1.426  0.4198 -0.2449 -0.0127
11285TIP3    H155346   4.202   2.588   1.375  0.4164 -0.8180 -0.5367
11285TIP3    H255347   4.338   2.605   1.438 -0.4782  0.6035  1.1109
11286TIP3   OH255348   1.778   4.685   4.146 -0.0959  0.1170 -0.4760
11286TIP3    H155349   1.848   4.721   4.092 -1.4585  1.4242 -1.4618
11286TIP3    H255350   1.708   4.666   4.085 -0.6447 -1.1203  0.4942
11287TIP3   OH255351   0.303   1.936  15.479  0.0530  0.0870  0.2320
11287TIP3    H155352   0.281   1.988  15.401 -0.2816 -1.0713 -0.4756
11287TIP3    H255353   0.282   1.993  15.553 -0.0728  1.0429 -0.5179
11288TIP3   OH255354   4.802   5.670  13.706 -0.1558  0.1144 -0.6516
11288TIP3    H155355   4.886   5.652  13.663 -0.4140  1.6375 -1.8908
11288TIP3    H255356   4.818   5.653  13.799  1.5742  0.5648 -0.8379
11289TIP3   OH255357   1.143   2.877   0.837 -0.2084  0.2050 -0.3063
11289TIP3    H155358   1.143   2.969   0.862 -2.5504  0.0097  0.6142
11289TIP3    H255359   1.191   2.833   0.908  0.1206  0.5850 -0.2862
11290TIP3   OH255360   5.230   2.354  12.054  0.0159  0.0656  0.4472
11290TIP3    H155361   5.296   2.422  12.037  0.6994 -0.8564 -0.7376
11290TIP3    H255362   5.192   2.336  11.968 -1.2500  0.0168  0.9958
11291TIP3   OH255363   2.532   5.849   1.491  0.2682 -0.3964  0.1660
11291TIP3    H155364   2.563   5.787   1.557 -0.2792 -0.1749  0.6476
11291TIP3    H255365   2.573   5.932   1.515 -1.0140  0.0071  1.0919
11292TIP3   OH255366   0.447   3.421   1.189  0.5983  0.0728  0.2345
11292TIP3    H155367   0.405   3.492   1.141 -0.4405 -0.4453  0.3497
11292TIP3    H255368   0.539   3.426   1.163  0.1294 -0.0179 -1.5928
11293TIP3   OH255369   4.621   6.028  16.708 -0.3463 -0.5616  0.2106
11293TIP3    H155370   4.649   6.117  16.730  0.6301 -1.0387  1.0264
11293TIP3    H255371   4.687   5.972  16.749 -1.3874 -1.6921  0.4082
11294TIP3   OH255372   5.417   5.786   5.724  0.8095 -0.8776 -0.3260
11294TIP3    H155373   5.376   5.859   5.679  0.4881 -0.9485 -0.1561
11294TIP3    H255374   5.348   5.719   5.730 -0.5023  0.5186  3.6423
11295TIP3   OH255375   2.116   1.418  12.138 -0.6468 -0.0229 -0.0068
11295TIP3    H155376   2.160   1.333  12.144  0.1860  0.2869 -1.4107
11295TIP3    H255377   2.187   1.481  12.128 -1.3589  0.5787 -1.4716
11296TIP3   OH255378   6.649   3.485  13.730 -0.2706 -0.0983  0.0631
11296TIP3    H155379   6.557   3.464  13.715 -0.7330  1.6191  0.2261
11296TIP3    H255380   6.669   3.555  13.667  0.9459 -0.4980 -0.0288
11297TIP3   OH255381   6.377   2.219  13.072  0.7118  0.2301 -0.1088
11297TIP3    H155382   6.391   2.312  13.055  3.2876  0.0051  0.4726
11297TIP3    H255383   6.447   2.194  13.132 -1.0668 -1.6768  1.3472
11298TIP3   OH255384   5.135   1.380   2.242 -0.2720 -0.3702  0.2237
11298TIP3    H155385   5.116   1.288   2.257  0.2404 -0.2561  1.7005
11298TIP3    H255386   5.076   1.427   2.301  0.2543  0.2102  0.3013
11299TIP3   OH255387   6.483   1.476  17.279 -0.1093 -0.7610  0.0000
11299TIP3    H155388   6.517   1.422  17.350  0.3948  1.3268  1.4251
11299TIP3    H255389   6.555   1.534  17.256 -0.5835 -0.7457 -1.5993
11300TIP3   OH255390   1.263   2.702  15.066  0.2991 -0.2746 -0.1220
11300TIP3    H155391   1.208   2.684  14.989  0.6555  0.0903 -0.4679
11300TIP3    H255392   1.237   2.636  15.130 -1.4921  0.7185  0.2236
11301TIP3   OH255393   0.118   0.466   5.749 -0.5789 -0.3265  0.1847
11301TIP3    H155394   0.053   0.482   5.817 -0.2143  0.2111  0.4096
11301TIP3    H255395   0.195   0.515   5.778  0.9697 -3.2483  1.4807
11302TIP3   OH255396   1.460   5.196   3.848 -0.1189 -0.5378  0.2923
11302TIP3    H155397   1.496   5.250   3.918 -0.2336  0.1608 -0.1704
11302TIP3    H255398   1.376   5.166   3.882  0.4027 -1.2720  0.9482
11303TIP3   OH255399   3.751   5.067  11.495 -0.1693  0.2072 -0.7446
11303TIP3    H155400   3.789   5.117  11.423  0.0626  0.4719 -0.4412
11303TIP3    H255401   3.710   4.992  11.453 -0.3689  0.5593 -1.1871
11304TIP3   OH255402   4.989   5.853   7.055 -0.2613 -0.1604 -0.1242
11304TIP3    H155403   5.009   5.849   6.961  1.2152  2.0910  0.0197
11304TIP3    H255404   5.000   5.763   7.085  2.7326 -0.3930 -1.5176
11305TIP3   OH255405   0.265   4.354  13.394 -0.0755 -0.7639 -0.5645
11305TIP3    H155406   0.250   4.260  13.407 -0.6986 -0.5302  0.6398
11305TIP3    H255407   0.356   4.368  13.420 -0.3229 -0.8624  0.3959
11306TIP3   OH255408   3.186   1.214   6.526 -0.5432 -0.3143  0.6583
11306TIP3    H155409   3.165   1.306   6.545  0.5768 -0.1333  1.1135
11306TIP3    H255410   3.117   1.185   6.466 -0.3880  1.1102 -0.2625
11307TIP3   OH255411   5.264   1.510  11.656 -0.0442 -0.3500  0.2115
11307TIP3    H155412   5.285   1.417  11.647 -0.0761 -0.2345 -1.3040
11307TIP3    H255413   5.211   1.515  11.736  1.0178 -1.4306  1.0124
11308TIP3   OH255414   3.163   4.623   2.534 -0.6210 -0.0581 -0.3206
11308TIP3    H155415   3.077   4.629   2.575 -0.3525  0.3122  0.2050
11308TIP3    H255416   3.212   4.697   2.571 -0.5412  0.6132 -1.7201
11309TIP3   OH255417   2.165   1.161   1.391 -0.3560  0.5697  0.4897
11309TIP3    H155418   2.209   1.149   1.307 -2.1230 -1.9404 -0.1795
11309TIP3    H255419   2.212   1.104   1.452 -1.3095 -0.4904  0.2689
11310TIP3   OH255420   3.805   5.334   0.824  0.7469 -0.2136 -0.0474
11310TIP3    H155421   3.804   5.255   0.878  2.3131 -0.8301 -0.8487
11310TIP3    H255422   3.716   5.339   0.788  0.5994 -1.5909  0.0620
11311TIP3   OH255423   6.106   3.475   4.084 -0.0545 -0.3184 -0.1528
11311TIP3    H155424   6.142   3.389   4.063  0.5446 -0.6330  1.8609
11311TIP3    H255425   6.017   3.456   4.116  0.5218 -0.3979  1.5134
11312TIP3   OH255426   6.694   4.643  11.927  0.1039  0.0033  0.1443
11312TIP3    H155427   6.740   4.561  11.947 -0.0711 -0.3309 -0.7888
11312TIP3    H255428   6.734   4.674  11.846 -1.7374 -0.6333 -1.0637
11313TIP3   OH255429   0.175   0.631  16.157  0.3925 -0.0784 -0.1502
11313TIP3    H155430   0.113   0.571  16.117  0.3984  0.7239 -1.4309
11313TIP3    H255431   0.120   0.697  16.200  0.3787 -0.3087  0.1898
11314TIP3   OH255432   5.264   0.797  11.195 -0.1403 -0.2035 -0.1245
11314TIP3    H155433   5.251   0.749  11.113 -1.5378  1.0592 -0.6832
11314TIP3    H255434   5.357   0.785  11.215 -0.0794 -1.7158 -1.1208
11315TIP3   OH255435   4.475   3.167   2.158  0.0473  0.0969 -0.0824
11315TIP3    H155436   4.419   3.213   2.095  2.8721  1.3782 -1.8575
11315TIP3    H255437   4.431   3.179   2.242 -3.2291 -0.5884 -1.5599
11316TIP3   OH255438   4.528   4.265  14.917  0.3967  0.4598  0.1917
11316TIP3    H155439   4.540   4.264  15.012 -0.5172  2.1544  0.3553
11316TIP3    H255440   4.464   4.195  14.901 -1.0457  1.5247  1.0992
11317TIP3   OH255441   4.431   5.982   4.180  0.0503  0.7802 -0.0013
11317TIP3    H155442   4.370   6.001   4.250 -0.4873  0.2928 -0.3255
11317TIP3    H255443   4.416   6.050   4.114  0.7013  1.3597  0.4417
11318TIP3   OH255444   0.598   5.077   4.661 -0.2411 -0.0947  0.0835
11318TIP3    H155445   0.507   5.106   4.650  0.3993  1.8475 -0.4968
11318TIP3    H255446   0.627   5.056   4.572  0.1944  0.3147  0.1269
11319TIP3   OH255447   0.914   4.642   4.281  0.3616 -0.0102 -0.2596
11319TIP3    H155448   0.929   4.609   4.370  0.3956  0.9805  0.1147
11319TIP3    H255449   0.998   4.628   4.236  0.3468 -0.5070 -0.1335
11320TIP3   OH255450   6.534   6.178  11.496 -0.0176 -0.1326  0.3432
11320TIP3    H155451   6.541   6.269  11.466  2.6843 -0.0230  1.0308
11320TIP3    H255452   6.582   6.128  11.431 -1.8042 -1.1761 -0.2298
11321TIP3   OH255453   4.174   6.429   5.687  0.1913 -0.1427  0.0223
11321TIP3    H155454   4.149   6.342   5.717  0.7886  0.3314  2.0526
11321TIP3    H255455   4.106   6.453   5.624 -0.0527 -1.9912 -0.4872
11322TIP3   OH255456   0.785   3.773  16.588  0.6412  0.0521  0.9212
11322TIP3    H155457   0.771   3.714  16.663  0.5626 -0.6599  0.3550
11322TIP3    H255458   0.784   3.715  16.512  0.5233  0.7978  0.3503
11323TIP3   OH255459   0.672   1.016  13.341  0.6373  0.1203  0.1245
11323TIP3    H155460   0.720   1.097  13.357  0.4756  0.1151  0.6600
11323TIP3    H255461   0.623   1.001  13.422 -0.1209  0.0249 -0.3442
11324TIP3   OH255462   5.102   4.654   1.273  0.0913  0.2562  0.4059
11324TIP3    H155463   5.065   4.597   1.206  1.3989  1.4486 -1.3985
11324TIP3    H255464   5.195   4.634   1.273  0.1537  0.4565  1.7096
11325TIP3   OH255465   4.382   0.767  13.962  0.1726 -0.7210  0.0751
11325TIP3    H155466   4.411   0.799  13.877  0.8749  1.0260  0.9189
11325TIP3    H255467   4.296   0.807  13.976  1.2676  1.3917  1.3508
11326TIP3   OH255468   5.951   0.310   4.660  0.0369  0.2646  0.4053
11326TIP3    H155469   5.897   0.387   4.644 -2.1374 -0.9269  1.5917
11326TIP3    H255470   6.037   0.345   4.683 -0.4865  2.2654 -0.4899
11327TIP3   OH255471   3.209   4.786   3.479  0.1303 -0.5893  0.9485
11327TIP3    H155472   3.303   4.765   3.479  0.2800  0.0595  0.7421
11327TIP3    H255473   3.206   4.880   3.497 -0.4214 -0.3459 -0.3659
11328TIP3   OH255474   0.189   4.475  13.822  0.4817  0.7931  0.2832
11328TIP3    H155475   0.102   4.516  13.824  0.1695  0.1249  1.3389
11328TIP3    H255476   0.249   4.547  13.806 -0.2295  1.3264 -0.0599
11329TIP3   OH255477   3.030   1.173  17.155 -0.2062  0.3720 -0.0824
11329TIP3    H155478   3.035   1.269  17.158  0.6114  0.3260  0.1389
11329TIP3    H255479   3.047   1.145  17.245  1.0802 -0.0429 -0.4393
11330TIP3   OH255480   0.720   3.032   1.055  0.0175 -0.2755  0.0136
11330TIP3    H155481   0.733   3.126   1.056 -0.6587 -0.1750  1.1223
11330TIP3    H255482   0.644   3.019   0.999  0.3191 -0.2012 -0.4184
11331TIP3   OH255483   1.799   4.026   6.674 -0.2856  0.1024 -0.4119
11331TIP3    H155484   1.871   4.029   6.738 -0.0826  1.0827 -0.6762
11331TIP3    H255485   1.841   3.996   6.593 -0.6422 -1.6717  0.0112
11332TIP3   OH255486   0.792   5.313  15.214 -0.1954  0.2661  0.3505
11332TIP3    H155487   0.867   5.259  15.191 -2.7807 -2.9540 -1.4479
11332TIP3    H255488   0.752   5.269  15.289 -1.8936  0.0674 -0.6027
11333TIP3   OH255489   0.385   2.236   1.530  0.4775 -0.1818 -0.2077
11333TIP3    H155490   0.399   2.215   1.623  2.3840 -1.0519 -0.6476
11333TIP3    H255491   0.298   2.276   1.528  0.2396 -0.4528  1.9031
11334TIP3   OH255492   1.862   5.696  11.134  0.1385 -0.3401 -0.7125
11334TIP3    H155493   1.857   5.623  11.073 -2.4194 -0.1789 -0.8009
11334TIP3    H255494   1.852   5.656  11.220  2.2029 -0.4017 -0.4534
11335TIP3   OH255495   3.851   3.915  14.165  0.3171  0.0253  0.7693
11335TIP3    H155496   3.800   3.990  14.135  1.5477  0.9598  0.9399
11335TIP3    H255497   3.809   3.888  14.246 -1.6245 -1.0534 -0.4969
11336TIP3   OH255498   2.999   5.919  13.551 -0.1652  0.3908  0.3361
11336TIP3    H155499   2.908   5.929  13.522  0.3189  0.7516 -1.1976
11336TIP3    H255500   3.033   6.009  13.553  0.3440  0.2035  0.2165
11337TIP3   OH255501   3.896   5.775  11.114  0.0237 -0.5995  0.4710
11337TIP3    H155502   3.862   5.863  11.099  1.7121  0.0901  0.3478
11337TIP3    H255503   3.939   5.780  11.200 -1.6718 -1.9294  1.4580
11338TIP3   OH255504   1.155   0.969   5.854  0.1137 -0.0187  0.4354
11338TIP3    H155505   1.155   1.025   5.776  0.8673  0.9355  1.1071
11338TIP3    H255506   1.240   0.925   5.852  0.6064  0.8645  1.3068
11339TIP3   OH255507   2.520   2.474  12.201 -0.5033 -0.0265 -0.7112
11339TIP3    H155508   2.565   2.397  12.167  0.4625  0.8357 -1.4495
11339TIP3    H255509   2.520   2.462  12.296  0.5280 -0.4553 -0.7516
11340TIP3   OH255510   1.738   4.690  16.317  0.1026 -0.2199  0.0919
11340TIP3    H155511   1.678   4.617  16.328  0.3202 -0.2705  0.9505
11340TIP3    H255512   1.694   4.748  16.254 -0.5774 -0.5363  0.2738
11341TIP3   OH255513   5.506   1.993   4.620  0.5471  0.6855 -0.2770
11341TIP3    H155514   5.573   1.940   4.663 -1.0664 -0.8098  0.4865
11341TIP3    H255515   5.553   2.071   4.590  2.9154 -0.9518 -1.0872
11342TIP3   OH255516   2.608   0.327  15.088 -0.1209  0.2538  0.1497
11342TIP3    H155517   2.642   0.264  15.151  0.5706  2.8231  2.5584
11342TIP3    H255518   2.618   0.285  15.003  0.7448 -2.6112  1.5526
11343TIP3   OH255519   2.477   3.804  14.424 -0.0104  0.2433  0.2075
11343TIP3    H155520   2.562   3.809  14.468  0.2932 -0.1295 -0.3360
11343TIP3    H255521   2.484   3.866  14.352  0.2824 -0.7444 -0.6385
11344TIP3   OH255522   2.084   4.598  16.625 -0.4197 -0.3358  0.5108
11344TIP3    H155523   2.126   4.514  16.610  0.4724  0.2079 -0.0827
11344TIP3    H255524   2.048   4.591  16.714  1.5160 -0.5934  1.3345
11345TIP3   OH255525   4.560   2.987  16.846 -0.0229  0.0415 -0.2611
11345TIP3    H155526   4.648   3.010  16.814 -0.0839 -0.6859 -0.9741
11345TIP3    H255527   4.562   2.892  16.853 -0.3236  0.1120  1.0337
11346TIP3   OH255528   2.873   1.308  16.008 -0.0882 -0.0239  0.3768
11346TIP3    H155529   2.961   1.346  16.012  0.4791 -1.3221  0.6324
11346TIP3    H255530   2.885   1.216  16.032 -1.3941 -0.4345 -0.4459
11347TIP3   OH255531   1.032   3.753  15.637 -0.2240  0.3188 -0.0413
11347TIP3    H155532   1.072   3.828  15.680  1.0796 -0.4565  0.1649
11347TIP3    H255533   1.051   3.765  15.544  0.3253  0.0486  0.0352
11348TIP3   OH255534   4.373   0.531  14.538  0.5058 -0.0880  0.7054
11348TIP3    H155535   4.370   0.508  14.445  0.4612 -0.9560  0.9175
11348TIP3    H255536   4.414   0.618  14.539  0.9071 -0.2547 -0.0900
11349TIP3   OH255537   6.209   1.272   0.982 -0.3179  0.8633  0.8477
11349TIP3    H155538   6.239   1.244   1.069  0.3268  1.6866  0.9010
11349TIP3    H255539   6.283   1.322   0.946 -0.6494  0.6913 -0.0987
11350TIP3   OH255540   3.942   2.558   0.820 -0.0078  0.4015  0.0910
11350TIP3    H155541   3.945   2.483   0.760  1.2339  0.0940  0.5014
11350TIP3    H255542   3.878   2.617   0.781 -0.2603 -0.4207 -0.7888
11351TIP3   OH255543   0.125   3.803  11.509  0.6430 -0.0660 -0.1232
11351TIP3    H155544   0.061   3.777  11.575  0.6433 -0.9557 -0.4559
11351TIP3    H255545   0.085   3.779  11.425  0.5659  1.2111 -0.4747
11352TIP3   OH255546   3.536   1.583  17.188 -0.3019  0.4480  0.0044
11352TIP3    H155547   3.496   1.498  17.205  0.2740  0.5100  1.9353
11352TIP3    H255548   3.616   1.563  17.140 -0.7394 -0.0008 -0.5429
11353TIP3   OH255549   4.630   2.540   4.437  0.6054 -0.1551  0.0069
11353TIP3    H155550   4.715   2.581   4.454 -0.0549  1.0495  0.5391
11353TIP3    H255551   4.568   2.595   4.485 -0.2852 -2.0142  1.0698
11354TIP3   OH255552   2.081   5.306  11.902  0.0753  0.2814  0.0604
11354TIP3    H155553   2.073   5.381  11.962 -2.4289  0.1410  0.0112
11354TIP3    H255554   2.032   5.236  11.945  0.8066 -0.7817 -0.7864
11355TIP3   OH255555   4.813   0.281   2.034 -0.0619 -0.6090  0.0208
11355TIP3    H155556   4.829   0.187   2.046  0.4413 -0.3511  1.7087
11355TIP3    H255557   4.718   0.290   2.043 -0.2128 -1.0528 -1.0305
11356TIP3   OH255558   5.711   1.964   3.633  0.0596  0.3260 -0.1062
11356TIP3    H155559   5.655   1.989   3.559 -1.6442  2.1692  1.6913
11356TIP3    H255560   5.761   2.043   3.652 -0.6318  0.3898  1.6011
11357TIP3   OH255561   1.533   0.618  16.648 -0.2494 -0.2866  0.1307
11357TIP3    H155562   1.588   0.541  16.631  0.0722 -0.4697  1.8832
11357TIP3    H255563   1.444   0.584  16.650 -0.1332 -0.5762  0.6025
11358TIP3   OH255564   3.440   4.566  15.283 -0.6304  0.2723  0.1219
11358TIP3    H155565   3.428   4.531  15.195  0.3356  0.3062 -0.0401
11358TIP3    H255566   3.394   4.505  15.340 -2.3951  0.9675 -0.5060
11359TIP3   OH255567   0.414   5.101   3.093 -0.3313 -0.2355  0.1199
11359TIP3    H155568   0.414   5.124   3.186 -2.1528 -0.0267  0.1035
11359TIP3    H255569   0.454   5.014   3.090  2.3129  0.8419  0.7206
11360TIP3   OH255570   0.404   6.493   3.963 -0.4467 -0.4478 -1.2289
11360TIP3    H155571   0.452   6.416   3.931  0.3648  0.5033 -2.3996
11360TIP3    H255572   0.451   6.519   4.042 -2.0191 -2.3813  0.4373
11361TIP3   OH255573   2.369   4.514   6.282  0.2834  0.1554  0.1423
11361TIP3    H155574   2.312   4.452   6.328 -0.7025  1.4945  0.7835
11361TIP3    H255575   2.432   4.542   6.348  1.3201 -0.8166 -0.3912
11362TIP3   OH255576   4.867   1.075  12.832 -0.1067 -0.2181  0.6823
11362TIP3    H155577   4.774   1.076  12.812 -0.2314  0.7462  1.2821
11362TIP3    H255578   4.889   1.166  12.854  1.0737 -0.3320  0.0993
11363TIP3   OH255579   1.082   2.732   3.204 -0.0973 -0.0339 -0.0490
11363TIP3    H155580   1.081   2.638   3.221 -0.8804 -0.1933 -0.9045
11363TIP3    H255581   1.168   2.747   3.163 -0.2121 -0.4862 -0.4703
11364TIP3   OH255582   6.445   1.648   2.968  0.0070 -0.2294  0.2482
11364TIP3    H155583   6.487   1.572   3.010 -0.2197  0.2654  1.4148
11364TIP3    H255584   6.437   1.712   3.039 -2.5331 -0.2243  0.0375
11365TIP3   OH255585   0.916   0.193  13.336  0.1044  0.0695  0.5415
11365TIP3    H155586   0.876   0.280  13.340 -0.0931  0.0492 -0.7365
11365TIP3    H255587   1.008   0.208  13.355  0.3273  0.7608 -0.9629
11366TIP3   OH255588   3.419   3.262   5.769 -0.2632  0.0822 -0.5956
11366TIP3    H155589   3.334   3.258   5.725  0.5165 -2.5197 -2.0682
11366TIP3    H255590   3.461   3.341   5.734 -1.6589  0.8924 -0.5358
11367TIP3   OH255591   3.607   4.453  14.583 -0.1070  0.8132 -0.1040
11367TIP3    H155592   3.686   4.481  14.537  0.3592 -1.6489 -0.9402
11367TIP3    H255593   3.537   4.467  14.520  0.2488 -0.6479 -0.8625
11368TIP3   OH255594   0.714   4.404  16.563 -0.0093  0.4038 -0.2474
11368TIP3    H155595   0.761   4.463  16.622  1.0197 -0.5324 -0.0769
11368TIP3    H255596   0.782   4.345  16.530 -1.2099 -1.6861  0.8055
11369TIP3   OH255597   1.783   5.402   3.930  0.1048 -0.4478  1.0885
11369TIP3    H155598   1.779   5.351   3.849 -1.9909 -0.3310  1.0538
11369TIP3    H255599   1.861   5.370   3.974  0.3058 -1.8048 -0.1539
11370TIP3   OH255600   6.483   2.137   6.326  0.0616 -0.1833 -0.1877
11370TIP3    H155601   6.534   2.088   6.391 -1.0337 -0.5563  0.4083
11370TIP3    H255602   6.451   2.214   6.373 -1.5340 -0.9346  0.0261
11371TIP3   OH255603   0.466   1.744   2.960 -0.3379  0.0092  0.8232
11371TIP3    H155604   0.488   1.818   2.904 -0.1084 -0.0619  0.8191
11371TIP3    H255605   0.458   1.782   3.048  1.4741 -0.2273  1.1255
11372TIP3   OH255606   1.758   3.612   6.292 -0.2977 -0.5332 -0.2957
11372TIP3    H155607   1.761   3.704   6.265 -1.5310 -0.8070 -1.4962
11372TIP3    H255608   1.849   3.582   6.287  0.1360  0.6455  0.2337
11373TIP3   OH255609   5.146   1.381   3.850 -0.0614  0.8337  0.1365
11373TIP3    H155610   5.219   1.402   3.909 -0.4960  1.6017  0.4086
11373TIP3    H255611   5.189   1.357   3.767  0.5901 -1.0177  0.9505
11374TIP3   OH255612   0.329   2.639  17.431  0.4164  0.0595  0.2753
11374TIP3    H155613   0.295   2.614  17.517  0.2137  0.8527  0.4356
11374TIP3    H255614   0.418   2.604  17.429  1.0914  1.5636  1.5623
11375TIP3   OH255615   1.533   0.977  12.145 -0.1832  0.2093  0.6623
11375TIP3    H155616   1.444   0.997  12.173 -0.1909 -0.7141  1.3899
11375TIP3    H255617   1.537   0.881  12.145  1.0417  0.2239  1.4997
11376TIP3   OH255618   2.304   5.948  12.771  0.6784  0.4255 -0.2907
11376TIP3    H155619   2.323   6.005  12.846 -1.8413  1.8615 -0.6204
11376TIP3    H255620   2.211   5.927  12.780  1.2689 -2.8432 -0.8155
11377TIP3   OH255621   2.176   0.247  17.436  0.3946  0.1029  0.7817
11377TIP3    H155622   2.083   0.225  17.446  0.3752  0.1285  0.6548
11377TIP3    H255623   2.222   0.168  17.467  0.3070 -0.9713 -1.6444
11378TIP3   OH255624   6.518   3.566  11.478 -0.3963  0.5729  0.5512
11378TIP3    H155625   6.449   3.501  11.466  1.0695 -0.7661 -1.2815
11378TIP3    H255626   6.552   3.581  11.389  2.5679  0.0809  1.4976
11379TIP3   OH255627   5.520   1.775  12.058 -0.2557 -0.0963 -0.3535
11379TIP3    H155628   5.574   1.742  12.130 -1.8424  0.2227  1.0266
11379TIP3    H255629   5.433   1.786  12.096 -1.5772 -1.4969 -2.7392
11380TIP3   OH255630   4.507   0.618   5.017 -0.4415  0.6897 -0.3723
11380TIP3    H155631   4.502   0.711   4.994  1.2797  0.8985 -0.0347
11380TIP3    H255632   4.581   0.612   5.078 -0.8625 -0.8249  0.0305
11381TIP3   OH255633   1.670   6.532   5.729  0.3506  0.4237  0.4623
11381TIP3    H155634   1.655   6.438   5.729 -0.9204  0.6045 -0.9356
11381TIP3    H255635   1.583   6.571   5.736  0.6523  1.4991 -1.2960
11382TIP3   OH255636   5.495   3.783   0.022  0.4518  0.1235  0.2979
11382TIP3    H155637   5.441   3.709  -0.007  0.0355  0.7152 -0.4625
11382TIP3    H255638   5.571   3.742   0.063  1.7181 -0.8247 -2.7005
11383TIP3   OH255639   5.121   4.411  17.318  0.1201 -0.9907  0.5564
11383TIP3    H155640   5.066   4.484  17.347  3.4041  1.0945  2.1455
11383TIP3    H255641   5.066   4.334  17.330 -3.4393  1.0442 -0.8436
11384TIP3   OH255642   5.578   1.644   3.935 -0.0917  0.3845 -0.7593
11384TIP3    H155643   5.633   1.722   3.931 -0.2668  0.5628  0.0339
11384TIP3    H255644   5.543   1.634   3.847  1.1887  0.2762 -1.2815
11385TIP3   OH255645   3.105   4.477  17.306  0.1911 -0.1085  0.2377
11385TIP3    H155646   3.150   4.463  17.222  1.0393 -0.9501  0.8129
11385TIP3    H255647   3.172   4.516  17.362 -0.3062  0.2224  0.6015
11386TIP3   OH255648   6.561   6.111   2.597 -0.1253 -0.3284 -0.3268
11386TIP3    H155649   6.512   6.043   2.644  1.2192  0.0725  1.8084
11386TIP3    H255650   6.628   6.064   2.548 -0.1435 -0.6459 -0.0543
11387TIP3   OH255651   3.706   0.722  15.680  0.5022  0.4415  0.3816
11387TIP3    H155652   3.704   0.802  15.732 -0.9264  0.5293  0.2410
11387TIP3    H255653   3.615   0.708  15.655  0.9782 -0.2533 -1.0920
11388TIP3   OH255654   6.218   3.611   1.816 -0.3531 -0.6723  0.5549
11388TIP3    H155655   6.125   3.622   1.838  0.0629  0.7627  1.7792
11388TIP3    H255656   6.254   3.558   1.887 -0.1305 -0.8079  0.3424
11389TIP3   OH255657   5.810   4.952  16.025  0.3865  0.2561  0.3345
11389TIP3    H155658   5.829   5.044  16.046  0.9491  0.3273 -0.4158
11389TIP3    H255659   5.715   4.946  16.026  0.3707  0.5911  1.4348
11390TIP3   OH255660   1.164   5.306  14.845  0.4429 -0.6813  0.1969
11390TIP3    H155661   1.167   5.211  14.850  1.0973 -0.6496  0.5951
11390TIP3    H255662   1.077   5.330  14.879  0.1091 -1.1540 -0.3201
11391TIP3   OH255663   3.207   1.099  16.955 -0.4057  0.2017  0.1474
11391TIP3    H155664   3.167   1.020  16.919 -0.1372  0.8030 -1.5807
11391TIP3    H255665   3.147   1.127  17.024 -2.0915  0.1176 -1.2070
11392TIP3   OH255666   4.229   6.576  12.894 -0.2224 -0.1873 -0.1574
11392TIP3    H155667   4.296   6.574  12.826  0.4608 -1.0368  0.5193
11392TIP3    H255668   4.190   6.489  12.892 -0.6744  0.0079  0.0758
11393TIP3   OH255669   2.044   2.662  12.461  0.1205  0.1449 -0.5070
11393TIP3    H155670   2.056   2.732  12.397  0.7598  0.2877 -0.2374
11393TIP3    H255671   2.115   2.600  12.442  0.5581  0.3761  0.2951
11394TIP3   OH255672   0.289   3.558   4.238 -0.2687  0.0835 -0.5048
11394TIP3    H155673   0.248   3.570   4.323 -0.3916  0.5328 -0.6217
11394TIP3    H255674   0.328   3.644   4.218  0.7681 -0.3444 -0.3681
11395TIP3   OH255675   1.101   4.139  14.581  0.1147 -0.6457 -0.1657
11395TIP3    H155676   1.040   4.212  14.574 -0.3593 -0.9172  0.9140
11395TIP3    H255677   1.046   4.063  14.601  0.6614 -1.1832 -0.6623
11396TIP3   OH255678   4.270   2.387   2.245 -0.2154 -0.6142 -0.3626
11396TIP3    H155679   4.312   2.371   2.160  2.8006  0.9857  0.6764
11396TIP3    H255680   4.183   2.418   2.222  0.6999  0.3819 -2.9489
11397TIP3   OH255681   2.349   2.580  13.969  0.3626  0.3735 -0.6521
11397TIP3    H155682   2.327   2.673  13.963 -0.6592  0.1454 -0.7034
11397TIP3    H255683   2.271   2.535  13.935  1.1091 -0.4865 -1.2780
11398TIP3   OH255684   5.105   1.256  16.306 -0.2450 -0.0831 -0.4264
11398TIP3    H155685   5.013   1.230  16.304  0.0938 -1.2960 -0.9478
11398TIP3    H255686   5.136   1.225  16.390 -0.6085  1.5131  0.3482
11399TIP3   OH255687   4.132   2.176  11.682 -0.5446 -0.7604 -0.0197
11399TIP3    H155688   4.053   2.143  11.724 -1.9012 -0.0466 -1.8737
11399TIP3    H255689   4.127   2.143  11.593  1.9547 -1.7635  0.1427
11400TIP3   OH255690   0.873   1.504   0.049 -0.8512  0.0235 -0.2429
11400TIP3    H155691   0.891   1.595   0.072 -1.2444 -0.0438  0.3470
11400TIP3    H255692   0.949   1.455   0.082 -0.4187  0.1948 -0.9792
11401TIP3   OH255693   5.376   0.205   3.613 -0.0338  0.3957  0.1616
11401TIP3    H155694   5.382   0.168   3.525 -1.2387  2.0552 -0.6833
11401TIP3    H255695   5.325   0.141   3.663  2.7662 -1.7989  0.4771
11402TIP3   OH255696   0.099   2.678   3.066  0.3728  0.2698 -0.5553
11402TIP3    H155697   0.102   2.670   3.161  0.3648 -0.7044 -0.6257
11402TIP3    H255698   0.075   2.590   3.036  3.9425 -0.4696 -1.6389
11403TIP3   OH255699   2.756   1.872   4.627  0.4765 -0.1883 -0.0259
11403TIP3    H155700   2.714   1.956   4.646 -1.8743 -1.2311 -0.2716
11403TIP3    H255701   2.788   1.842   4.711 -2.2790 -0.8449  0.8921
11404TIP3   OH255702   2.571   3.853   2.021 -0.2462 -0.3792  0.4860
11404TIP3    H155703   2.504   3.809   2.073 -0.3487 -1.4264 -0.5052
11404TIP3    H255704   2.525   3.926   1.979 -0.2211  0.3166  1.5996
11405TIP3   OH255705   5.414   4.498   3.589 -0.1800 -1.0392 -0.3044
11405TIP3    H155706   5.429   4.421   3.644 -0.5655 -1.0490 -0.2104
11405TIP3    H255707   5.331   4.534   3.619  0.6394  0.2202  0.5789
11406TIP3   OH255708   1.332   1.347  14.070  0.3669 -0.0200 -0.7023
11406TIP3    H155709   1.383   1.300  14.135  0.3095 -0.7333 -1.1608
11406TIP3    H255710   1.297   1.279  14.012 -0.7879  0.4843 -0.6268
11407TIP3   OH255711   1.302   4.796  12.128  0.5805 -0.7708  0.2128
11407TIP3    H155712   1.302   4.700  12.134 -0.3715 -0.7890  0.0324
11407TIP3    H255713   1.298   4.814  12.034  0.4706 -0.5603  0.2565
11408TIP3   OH255714   0.526   2.720  16.288 -0.2053  0.0927  0.1375
11408TIP3    H155715   0.533   2.814  16.306 -0.5300  0.5657 -1.9736
11408TIP3    H255716   0.432   2.704  16.281 -0.1060 -0.0519 -1.0093
11409TIP3   OH255717   3.198   3.274   2.629 -0.0806  0.4256  0.4367
11409TIP3    H155718   3.251   3.204   2.669  0.1603  0.8769  0.9257
11409TIP3    H255719   3.155   3.316   2.703 -1.1378  0.0616  0.0384
11410TIP3   OH255720   0.231   5.719  15.689 -0.0188 -0.8750  0.0175
11410TIP3    H155721   0.302   5.657  15.706  0.4123 -0.5778 -0.6279
11410TIP3    H255722   0.172   5.672  15.630 -0.0882 -0.9374  0.1364
11411TIP3   OH255723   1.597   2.220  12.221 -0.0398 -0.0975  0.5426
11411TIP3    H155724   1.595   2.256  12.310 -1.1397 -0.9012  0.8670
11411TIP3    H255725   1.531   2.150  12.222  0.2624 -0.4283 -0.7766
11412TIP3   OH255726   0.917   1.259   0.721 -0.0318  0.4895 -0.4638
11412TIP3    H155727   0.992   1.317   0.707 -1.4217  2.9814  1.5138
11412TIP3    H255728   0.869   1.261   0.638  0.9271  0.6634 -1.0274
11413TIP3   OH255729   6.184   1.286  16.771  0.1408  0.4399  0.1092
11413TIP3    H155730   6.253   1.295  16.837 -0.8024 -0.5473  1.2837
11413TIP3    H255731   6.159   1.194  16.776 -2.8480  1.2258  1.3935
11414TIP3   OH255732   0.947   5.930  12.064 -0.3048  0.2706  0.3106
11414TIP3    H155733   1.039   5.907  12.079 -0.5145  0.1313  1.4816
11414TIP3    H255734   0.934   5.917  11.970  0.7571 -0.1214  0.2032
11415TIP3   OH255735   5.692   3.069  14.602  0.1338 -0.9684 -0.3846
11415TIP3    H155736   5.727   2.980  14.599  0.7940 -0.6985 -1.2901
11415TIP3    H255737   5.607   3.064  14.558 -1.4549 -1.7923  2.5381
11416TIP3   OH255738   6.333   1.457  13.169 -0.3117  0.8449 -0.2374
11416TIP3    H155739   6.295   1.372  13.148 -0.8127  1.0718 -0.2760
11416TIP3    H255740   6.428   1.443  13.168 -0.3345  0.6402 -1.7525
11417TIP3   OH255741   3.858   3.388   1.875  0.3886 -1.0484  0.5844
11417TIP3    H155742   3.909   3.441   1.814 -0.3503  0.2932  1.0830
11417TIP3    H255743   3.816   3.321   1.821  1.8964 -1.5723  0.0399
11418TIP3   OH255744   2.818   3.533   0.223  0.0526 -0.0201 -0.5655
11418TIP3    H155745   2.740   3.482   0.205 -0.9999  2.2358 -3.1004
11418TIP3    H255746   2.890   3.469   0.222 -1.3431 -1.6556 -1.9318
11419TIP3   OH255747   0.390   6.017   3.265  0.0566 -0.6290  0.3836
11419TIP3    H155748   0.394   5.981   3.354 -1.1064 -0.0836  0.6766
11419TIP3    H255749   0.466   5.979   3.220  0.7260 -0.8241  1.6353
11420TIP3   OH255750   2.118   6.350   5.213 -0.5652 -0.5653 -0.0787
11420TIP3    H155751   2.179   6.395   5.155 -1.0784 -0.9187 -0.9081
11420TIP3    H255752   2.170   6.327   5.290  0.5066 -1.3783 -1.0115
11421TIP3   OH255753   3.712   5.932  17.270 -0.4524 -0.4245  0.3356
11421TIP3    H155754   3.648   5.885  17.217 -0.6699  0.5578 -0.3165
11421TIP3    H255755   3.754   5.992  17.208 -0.1251  0.1613  1.1135
11422TIP3   OH255756   2.732   3.061  11.694 -0.0542  0.4553  0.0964
11422TIP3    H155757   2.743   3.152  11.722  1.0731 -0.4503  3.0315
11422TIP3    H255758   2.637   3.046  11.696 -0.2291  1.4918 -0.1582
11423TIP3   OH255759   4.995   3.347   2.874 -0.1965  0.8785 -0.3552
11423TIP3    H155760   5.082   3.306   2.881 -0.4387  0.4611  0.3217
11423TIP3    H255761   5.011   3.439   2.894  0.1869  0.9293 -0.8561
11424TIP3   OH255762   0.416   5.642   1.377 -0.1638  0.3164 -0.1405
11424TIP3    H155763   0.413   5.590   1.296 -1.3200 -0.9275  0.6677
11424TIP3    H255764   0.463   5.588   1.439 -2.3363 -0.3264  1.0487
11425TIP3   OH255765   4.734   6.323   1.109 -0.1681  0.6718 -0.0829
11425TIP3    H155766   4.721   6.260   1.038 -1.7148  2.6693 -1.6661
11425TIP3    H255767   4.765   6.402   1.066 -1.0525  1.9141  1.4611
11426TIP3   OH255768   1.506   0.265  12.841 -0.0362 -0.1806 -0.1880
11426TIP3    H155769   1.508   0.180  12.798 -0.0367 -1.2478  1.7902
11426TIP3    H255770   1.598   0.283  12.862 -0.1950 -0.5934  0.9681
11427TIP3   OH255771   1.109   3.640   4.672 -0.0292 -0.0958  0.1556
11427TIP3    H155772   1.166   3.601   4.739  0.4415  0.3638  0.0305
11427TIP3    H255773   1.116   3.734   4.686 -0.6787 -0.0260  0.0628
11428TIP3   OH255774   3.622   2.249   4.966 -0.0002  0.1112  0.7548
11428TIP3    H155775   3.651   2.177   4.910 -0.8376 -1.1658  1.9092
11428TIP3    H255776   3.704   2.293   4.992  0.7802 -2.0058  2.0864
11429TIP3   OH255777   1.664   4.919   0.617 -0.3301  0.1389  0.2392
11429TIP3    H155778   1.572   4.940   0.635  0.0596  1.2355  1.0671
11429TIP3    H255779   1.683   4.844   0.673 -0.2429  1.0393  1.4700
11430TIP3   OH255780   1.284   5.797   6.732  0.0439 -0.5880 -0.3472
11430TIP3    H155781   1.273   5.849   6.812 -0.6777 -1.0072 -0.1603
11430TIP3    H255782   1.211   5.824   6.676  1.8992  1.4843 -1.9013
11431TIP3   OH255783   2.449   4.263   1.389 -0.0113 -0.2884  0.1033
11431TIP3    H155784   2.535   4.230   1.416  0.5940  3.1273  3.2083
11431TIP3    H255785   2.458   4.358   1.391 -3.3509  0.2238 -1.5399
11432TIP3   OH255786   4.118   5.460  13.818  0.1939 -0.0572 -0.2689
11432TIP3    H155787   4.144   5.432  13.731 -0.6101 -0.1845 -0.4704
11432TIP3    H255788   4.049   5.525  13.804 -0.6021 -0.7670  0.2850
11433TIP3   OH255789   6.418   0.101  12.685  0.3273  0.0534  0.0387
11433TIP3    H155790   6.463   0.082  12.768  0.5617  2.1252  0.4323
11433TIP3    H255791   6.369   0.021  12.665  2.1188 -1.3261  0.9501
11434TIP3   OH255792   5.423   4.310  13.364 -0.7528  0.2639 -0.1602
11434TIP3    H155793   5.339   4.317  13.319 -2.5344 -0.5467  2.7352
11434TIP3    H255794   5.466   4.234  13.325 -1.4409  0.5488 -1.5211
11435TIP3   OH255795   1.902   4.606   2.979 -0.3859 -0.2885  0.0156
11435TIP3    H155796   1.992   4.638   2.967 -0.7356  1.0716  0.8350
11435TIP3    H255797   1.892   4.539   2.911  1.0845 -0.1360 -0.4027
11436TIP3   OH255798   1.280   5.142   1.778  0.1691  0.0785 -0.0156
11436TIP3    H155799   1.331   5.208   1.825 -2.1045  1.3587  0.8153
11436TIP3    H255800   1.315   5.058   1.809  0.7629  0.8951  1.6390
11437TIP3   OH255801   1.877   4.215   0.092 -0.2253 -0.3450  0.0125
11437TIP3    H155802   1.955   4.254   0.131  0.1669 -1.3160  0.2300
11437TIP3    H255803   1.873   4.126   0.129 -0.7802 -0.7085 -0.8794
11438TIP3   OH255804   5.722   3.844  13.674  0.0171 -0.3508  0.6114
11438TIP3    H155805   5.684   3.917  13.724 -0.8807 -0.2351 -0.2041
11438TIP3    H255806   5.662   3.771  13.690 -1.1678  0.0909 -1.4579
11439TIP3   OH255807   2.249   3.202  12.267  0.3269  0.1506  0.1764
11439TIP3    H155808   2.287   3.289  12.280  0.1712  0.1578  0.5807
11439TIP3    H255809   2.155   3.215  12.275  0.2879 -0.0143 -0.0061
11440TIP3   OH255810   4.494   0.899   5.164 -0.0114  0.1930  0.4297
11440TIP3    H155811   4.504   0.864   5.252 -1.8890  0.2449  0.7154
11440TIP3    H255812   4.583   0.922   5.137  1.5632 -4.9648  0.0725
11441TIP3   OH255813   2.381   0.375  14.275  0.1455 -0.6318 -0.1009
11441TIP3    H155814   2.399   0.454  14.325 -0.6814 -0.0167 -0.7304
11441TIP3    H255815   2.465   0.331  14.267  0.8183  0.6654 -0.5286
11442TIP3   OH255816   4.538   1.678  15.881 -0.1439 -0.6774 -0.2889
11442TIP3    H155817   4.626   1.662  15.916  0.1339  1.3985  0.0974
11442TIP3    H255818   4.479   1.659  15.954  0.1310 -0.2622  0.0449
11443TIP3   OH255819   3.018   3.422  14.354  0.7829  0.2632  0.0050
11443TIP3    H155820   3.014   3.357  14.425 -1.5804 -0.8434 -1.0003
11443TIP3    H255821   3.017   3.369  14.274 -2.6846  1.4073 -0.8858
11444TIP3   OH255822   0.593   2.455   2.894  0.4839 -0.7295 -0.7196
11444TIP3    H155823   0.606   2.452   2.989 -0.7654 -2.1121 -0.5574
11444TIP3    H255824   0.668   2.504   2.861  0.7513  0.1063  1.0123
11445TIP3   OH255825   2.712   1.685  14.681  0.0141  0.0569 -0.2696
11445TIP3    H155826   2.656   1.714  14.752  2.2911  1.4099  1.1007
11445TIP3    H255827   2.706   1.755  14.615  0.0193  0.1436 -0.1776
11446TIP3   OH255828   6.248   6.687  11.419 -0.2112  0.9330  0.4714
11446TIP3    H155829   6.216   6.639  11.343 -1.6907  1.4165  0.7659
11446TIP3    H255830   6.282   6.769  11.382 -0.3403  0.8963  0.2720
11447TIP3   OH255831   2.573   6.494   2.962  0.5620  0.2674  0.3669
11447TIP3    H155832   2.565   6.418   3.019  0.6479  0.5684  0.7835
11447TIP3    H255833   2.597   6.457   2.877 -0.3599 -0.2432  0.3184
11448TIP3   OH255834   1.802   5.710  11.437 -0.0140  0.1718 -0.6662
11448TIP3    H155835   1.815   5.616  11.446  1.0803  0.3314 -0.5380
11448TIP3    H255836   1.880   5.749  11.474 -0.5777  1.1483 -0.4694
11449TIP3   OH255837   4.076   4.466   5.072 -0.1817  0.5689  0.3144
11449TIP3    H155838   4.049   4.539   5.128  1.2749  1.3687  0.0450
11449TIP3    H255839   3.997   4.439   5.026 -1.1930  0.5660  1.9911
11450TIP3   OH255840   3.975   0.007  16.242  1.1303  0.5080 -0.1322
11450TIP3    H155841   3.906   0.063  16.207 -0.1005 -1.2657 -0.6568
11450TIP3    H255842   4.056   0.053  16.220  0.2202  1.4697 -1.6728
11451TIP3   OH255843   6.111   4.319  12.568 -0.1129 -0.2154 -0.5095
11451TIP3    H155844   6.105   4.409  12.534  0.7016  0.1845  0.3588
11451TIP3    H255845   6.095   4.264  12.492 -0.6380  0.6640 -1.0627
11452TIP3   OH255846   5.333   3.728  14.098 -0.1410  0.8620 -0.1177
11452TIP3    H155847   5.389   3.772  14.163  1.4028  0.2595 -0.9832
11452TIP3    H255848   5.354   3.635  14.108 -0.6964  0.6627 -0.7540
11453TIP3   OH255849   0.351   3.402   5.086  0.9616 -0.2539 -0.2653
11453TIP3    H155850   0.271   3.450   5.065  0.8390 -0.9556 -1.5247
11453TIP3    H255851   0.416   3.470   5.104  0.0615  0.3170  0.8871
11454TIP3   OH255852   0.450   6.009   4.151  0.3503 -0.1115 -0.0502
11454TIP3    H155853   0.393   5.943   4.113  0.6166  0.0652 -0.7756
11454TIP3    H255854   0.521   5.960   4.192 -0.6881 -0.3733  1.5299
11455TIP3   OH255855   5.732   1.748  12.231  0.2046  0.1551 -0.7512
11455TIP3    H155856   5.744   1.704  12.316 -1.3229 -2.0299 -1.5719
11455TIP3    H255857   5.821   1.763  12.200  0.8800 -2.6765 -0.4773
11456TIP3   OH255858   4.725   1.326   5.150  0.5736 -0.0235 -0.3121
11456TIP3    H155859   4.712   1.392   5.218  0.5205  0.3010 -0.6381
11456TIP3    H255860   4.815   1.338   5.121  0.3918  0.2657 -0.7543
11457TIP3   OH255861   4.436   3.985   2.213 -0.2279 -0.0604 -0.6575
11457TIP3    H155862   4.376   3.912   2.229  2.2070 -2.3556 -1.1689
11457TIP3    H255863   4.491   3.988   2.292  1.2824 -0.4915 -1.6484
11458TIP3   OH255864   5.295   5.484  15.640 -0.2760  0.3644 -0.0917
11458TIP3    H155865   5.356   5.414  15.617 -1.2031 -0.4399 -0.1580
11458TIP3    H255866   5.247   5.502  15.560 -1.8140 -0.7435  0.5228
11459TIP3   OH255867   6.636   3.007  11.977  0.4365 -0.2757 -0.5728
11459TIP3    H155868   6.728   3.012  11.951  0.4735  1.4894 -0.2070
11459TIP3    H255869   6.628   2.921  12.019  1.8513 -0.5602 -0.8366
11460TIP3   OH255870   2.289   1.316  13.455  0.1452  0.1716  0.3717
11460TIP3    H155871   2.302   1.398  13.408  1.2241 -1.1301 -1.7647
11460TIP3    H255872   2.267   1.252  13.387 -0.6632 -1.3340  1.9555
11461TIP3   OH255873   4.221   1.987   4.340 -0.1228 -0.3099 -0.7225
11461TIP3    H155874   4.249   1.903   4.376  0.8897  0.3778  0.1674
11461TIP3    H255875   4.205   2.042   4.417 -2.4129 -0.1691 -1.2493
11462TIP3   OH255876   5.794   0.950   3.218 -0.2091  0.1152 -0.1265
11462TIP3    H155877   5.774   1.021   3.277 -1.2827 -0.1980 -0.0880
11462TIP3    H255878   5.807   0.992   3.133 -0.6564  0.3735 -0.0684
11463TIP3   OH255879   1.158   3.799   2.977 -0.4439 -0.2691  0.2273
11463TIP3    H155880   1.233   3.743   2.998  0.7685  0.7040 -1.3413
11463TIP3    H255881   1.082   3.741   2.988  0.7069 -2.0597 -0.7634
11464TIP3   OH255882   6.127   6.427  11.774 -0.4665  0.4629 -0.6416
11464TIP3    H155883   6.175   6.509  11.762 -0.3500  0.5236  0.1710
11464TIP3    H255884   6.165   6.367  11.710  0.7039  0.5180 -0.0236
11465TIP3   OH255885   0.010   1.884   6.285 -0.3180 -0.3331 -0.0323
11465TIP3    H155886   0.031   1.873   6.378  1.7966  0.2379 -0.3940
11465TIP3    H255887   0.065   1.957   6.256 -2.3194  0.7576 -1.3346
11466TIP3   OH255888   6.199   4.492   0.147 -0.8161 -0.0304 -0.5445
11466TIP3    H155889   6.253   4.431   0.197 -0.3602  0.0093 -0.9787
11466TIP3    H255890   6.138   4.529   0.211 -0.8423 -0.6562 -0.2058
11467TIP3   OH255891   3.489   1.772  12.491  0.0102  0.0322  0.3657
11467TIP3    H155892   3.502   1.856  12.535  2.6473 -0.2316  0.2387
11467TIP3    H255893   3.500   1.707  12.560  1.1333 -0.2880 -0.1036
11468TIP3   OH255894   5.530   4.188   4.107 -0.6452  0.2745  0.2755
11468TIP3    H155895   5.607   4.131   4.110  0.3878  1.6495  0.7081
11468TIP3    H255896   5.561   4.269   4.067 -1.6010  1.2345  1.3747
11469TIP3   OH255897   0.435   0.992   0.853  0.1174  0.2474  0.0200
11469TIP3    H155898   0.504   0.931   0.880  1.1441  0.3340 -2.2036
11469TIP3    H255899   0.466   1.077   0.885  1.2526  0.3365 -1.2490
11470TIP3   OH255900   6.736   4.274   3.362  0.5499 -0.7741  0.0715
11470TIP3    H155901   6.668   4.221   3.404 -0.3610 -0.6575 -1.2012
11470TIP3    H255902   6.785   4.212   3.307  0.5703 -0.5983 -0.1092
11471TIP3   OH255903   2.194   2.980   4.475 -0.2683  0.0329  0.4203
11471TIP3    H155904   2.192   3.075   4.484  1.9001 -0.0631  3.0112
11471TIP3    H255905   2.286   2.957   4.476 -0.6848 -2.0577 -1.4844
11472TIP3   OH255906   5.208   3.050   4.337 -0.0367 -0.2569 -1.0620
11472TIP3    H155907   5.269   2.982   4.366  0.4127  0.0896 -1.1888
11472TIP3    H255908   5.132   3.039   4.393  0.2464 -0.5225 -0.7244
11473TIP3   OH255909   1.186   1.064   3.285  0.6788  0.3647  0.4880
11473TIP3    H155910   1.248   1.136   3.271 -0.4009  1.6003  1.7591
11473TIP3    H255911   1.216   1.023   3.367 -1.8188  2.9315  2.9045
11474TIP3   OH255912   6.711   3.669   2.221 -0.0396 -0.1552 -0.0771
11474TIP3    H155913   6.696   3.597   2.282 -0.9051  1.3231  1.5208
11474TIP3    H255914   6.673   3.639   2.139  0.9171 -2.0883  0.1319
11475TIP3   OH255915   4.130   0.279   2.947 -0.7003 -0.3556 -0.4746
11475TIP3    H155916   4.123   0.343   3.018 -0.3849 -0.7622 -0.0755
11475TIP3    H255917   4.224   0.265   2.935 -0.7743 -1.1095 -0.2255
11476TIP3   OH255918   1.732   4.743  15.568  0.4151  0.0397  0.2767
11476TIP3    H155919   1.657   4.801  15.557 -0.7522 -1.3638  0.5466
11476TIP3    H255920   1.698   4.655  15.551  1.3122 -0.9472  3.0000
11477TIP3   OH255921   5.808   4.283  15.324 -0.0844 -0.1709  0.0633
11477TIP3    H155922   5.775   4.371  15.306  1.5683  0.3556 -0.6104
11477TIP3    H255923   5.799   4.236  15.242  1.4183  0.1991 -0.3410
11478TIP3   OH255924   5.434   0.967   4.270 -0.1476 -0.6976  0.0941
11478TIP3    H155925   5.471   0.932   4.351  0.9582 -0.5232 -0.3206
11478TIP3    H255926   5.415   0.890   4.217  0.2688 -0.7541  0.0302
11479TIP3   OH255927   4.263   4.959   4.589  0.3541  0.3098 -0.1857
11479TIP3    H155928   4.346   4.982   4.632  2.3609 -1.3941 -2.8405
11479TIP3    H255929   4.207   5.036   4.603  2.9891  2.3160  0.2266
11480TIP3   OH255930   6.029   3.891   1.349 -0.2418  0.5367 -1.7383
11480TIP3    H155931   6.093   3.889   1.420 -0.9665  3.0770 -0.9243
11480TIP3    H255932   5.971   3.817   1.367  0.5087  0.2103 -0.5893
11481TIP3   OH255933   5.014   6.037  17.225 -0.0930  0.6526  0.2921
11481TIP3    H155934   5.098   5.993  17.212  0.5410  1.3990  1.6473
11481TIP3    H255935   5.031   6.103  17.292 -1.7166  0.9477  0.4689
11482TIP3   OH255936   5.572   0.800   1.268 -0.0404 -0.2038 -0.8066
11482TIP3    H155937   5.625   0.794   1.189  1.1532  0.3918 -0.0667
11482TIP3    H255938   5.633   0.786   1.340 -0.9102  0.3392  0.0653
11483TIP3   OH255939   1.965   1.514  12.863  0.0703  0.0298  0.2904
11483TIP3    H155940   1.961   1.609  12.859  0.6422  0.0416 -0.0772
11483TIP3    H255941   1.882   1.488  12.904 -0.2499  0.6582  0.0438
11484TIP3   OH255942   3.064   3.493   2.469 -0.2161 -0.2316 -0.1301
11484TIP3    H155943   3.039   3.421   2.411 -1.5138  0.3016 -0.2709
11484TIP3    H255944   3.045   3.460   2.557  0.8048 -0.6746 -0.0691
11485TIP3   OH255945   6.604   6.550   3.817 -0.3152 -0.4022  0.2299
11485TIP3    H155946   6.598   6.626   3.876  0.4750 -0.6123  0.5952
11485TIP3    H255947   6.533   6.492   3.845 -0.3021 -0.2388  0.6076
11486TIP3   OH255948   6.658   0.137   3.353 -0.1492  0.0227 -0.0909
11486TIP3    H155949   6.616   0.174   3.275 -0.4747 -0.1296  0.0095
11486TIP3    H255950   6.588   0.134   3.418 -0.3106 -1.4304 -0.3148
11487TIP3   OH255951   1.620   2.748  11.832 -0.4099 -0.4135  0.1151
11487TIP3    H155952   1.533   2.710  11.831 -1.1193  1.0187 -2.7928
11487TIP3    H255953   1.605   2.842  11.817  1.5317  0.3245  2.1412
11488TIP3   OH255954   1.100   2.633  14.159  0.1620  0.1229  0.6988
11488TIP3    H155955   1.160   2.697  14.197  0.4002  0.4253 -0.1621
11488TIP3    H255956   1.141   2.548  14.177  0.8658  0.3283  0.0972
11489TIP3   OH255957   3.714   1.374   0.898  0.4502  0.0109 -0.9246
11489TIP3    H155958   3.770   1.450   0.881  0.8895 -0.3645 -1.1649
11489TIP3    H255959   3.626   1.405   0.878  0.5443  0.6545 -0.4008
11490TIP3   OH255960   1.441   3.838   3.850 -0.7092 -0.5951  0.4815
11490TIP3    H155961   1.394   3.906   3.800 -1.4842 -0.7867  0.9254
11490TIP3    H255962   1.468   3.774   3.784 -1.2718 -0.5879  0.2319
11491TIP3   OH255963   1.634   6.598  13.059 -1.0074  0.1876 -0.0156
11491TIP3    H155964   1.598   6.662  13.120  0.0023  0.3888  0.3954
11491TIP3    H255965   1.709   6.560  13.106  0.4882  1.1533 -1.5376
11492TIP3   OH255966   3.901   0.379   2.874  1.0183 -0.3822 -0.1107
11492TIP3    H155967   3.984   0.337   2.894  1.4373  0.7207  0.5392
11492TIP3    H255968   3.883   0.356   2.783  2.1713 -0.4114 -0.3422
11493TIP3   OH255969   5.936   0.309  10.713  0.2317  0.2746  0.1119
11493TIP3    H155970   5.973   0.351  10.636  0.6802 -2.3257 -1.2083
11493TIP3    H255971   5.984   0.226  10.721  0.7179  0.7598  3.6684
11494TIP3   OH255972   5.911   1.837   3.433 -0.5103 -0.1822 -0.2723
11494TIP3    H155973   5.985   1.780   3.453 -0.5809 -0.5783 -1.1077
11494TIP3    H255974   5.872   1.856   3.518  1.5216  1.3928  0.4035
11495TIP3   OH255975   0.709   3.068   3.626 -0.0294  0.1514  0.1332
11495TIP3    H155976   0.743   3.107   3.707  0.8344  0.2191 -0.2582
11495TIP3    H255977   0.643   3.131   3.596 -1.9624 -0.8975  1.9136
11496TIP3   OH255978   1.450   1.800  12.713 -0.1188  0.4328 -0.0482
11496TIP3    H155979   1.377   1.744  12.741 -0.1513  0.6592  0.3273
11496TIP3    H255980   1.438   1.809  12.619 -0.2796  0.0430 -0.0684
11497TIP3   OH255981   1.040   6.062   1.709 -0.4139 -0.1802  0.4712
11497TIP3    H155982   1.022   5.969   1.692  1.2693 -0.6936  1.3077
11497TIP3    H255983   0.956   6.105   1.693 -2.0011 -2.1819  2.6771
11498TIP3   OH255984   6.502   4.093   1.326 -0.4165  0.2923  0.7014
11498TIP3    H155985   6.579   4.141   1.359 -0.5343  1.5910 -0.7924
11498TIP3    H255986   6.435   4.110   1.392  0.6802 -1.3174  2.3146
11499TIP3   OH255987   4.270   0.968  11.595 -0.0215  0.0330  0.0404
11499TIP3    H155988   4.357   0.935  11.614  0.4429  0.8866 -0.5567
11499TIP3    H255989   4.216   0.941  11.670  0.8526 -0.0994  0.6268
11500TIP3   OH255990   0.673   5.059  13.263  0.0781 -0.2230 -0.1327
11500TIP3    H155991   0.755   5.104  13.283  0.2727 -1.0460  1.0276
11500TIP3    H255992   0.608   5.099  13.322 -0.6068  1.0668 -1.6778
11501TIP3   OH255993   2.033   2.377  17.298  0.0197 -0.0328 -0.0187
11501TIP3    H155994   2.119   2.389  17.257 -0.5612  0.3912 -1.1675
11501TIP3    H255995   2.020   2.456  17.351  0.5023 -0.2894  0.4961
11502TIP3   OH255996   2.075   3.547   0.704  0.0909  0.2737  0.3090
11502TIP3    H155997   2.021   3.485   0.752  0.5136  1.0627  1.8936
11502TIP3    H255998   2.014   3.615   0.676  0.1858  1.0792  1.9507
11503TIP3   OH255999   4.744   5.150   0.665  0.4784 -0.3207 -0.2090
11503TIP3    H156000   4.775   5.070   0.623  2.0429  0.2163 -0.1423
11503TIP3    H256001   4.751   5.218   0.598  0.2716 -0.0092  0.0759
11504TIP3   OH256002   2.726   6.243   1.924 -0.1733 -0.0016 -0.1204
11504TIP3    H156003   2.772   6.312   1.971 -1.6616  0.8500  0.1494
11504TIP3    H256004   2.752   6.162   1.969 -1.6823  0.7916  2.3772
11505TIP3   OH256005   2.533   1.154  14.670 -0.5670  0.3008 -0.4001
11505TIP3    H156006   2.567   1.144  14.581  0.5925 -0.7703  0.1380
11505TIP3    H256007   2.597   1.210  14.714 -0.7333  0.1900 -0.0116
11506TIP3   OH256008   5.016   3.851   3.106  0.9861 -0.0457  0.2193
11506TIP3    H156009   4.948   3.885   3.048  3.4152  0.4691 -2.5691
11506TIP3    H256010   5.037   3.924   3.165 -1.5182 -0.5835  1.9270
11507TIP3   OH256011   1.274   1.168   5.361  0.1320  0.4227 -0.2556
11507TIP3    H156012   1.224   1.127   5.290 -2.6347  2.8381  0.1310
11507TIP3    H256013   1.352   1.204   5.318 -0.6443  0.3827 -1.7604
11508TIP3   OH256014   4.989   0.955  17.323  0.1061 -0.4045 -0.0723
11508TIP3    H156015   4.952   0.979  17.408 -0.7347  1.1622 -0.8394
11508TIP3    H256016   5.084   0.953  17.337 -0.0402 -0.4569  0.9604
11509TIP3   OH256017   6.742   2.154   6.160  0.2587 -0.1665 -0.5725
11509TIP3    H156018   6.782   2.189   6.240  0.0195 -1.1675  0.0147
11509TIP3    H256019   6.648   2.173   6.170  0.2579 -0.0985 -0.7156
11510TIP3   OH256020   5.510   1.395   2.007  0.3238 -0.1213 -0.1087
11510TIP3    H156021   5.571   1.444   1.952 -0.8602  0.0417 -1.3064
11510TIP3    H256022   5.425   1.407   1.967 -0.4965 -0.5348  1.4057
11511TIP3   OH256023   1.736   3.551  14.166  0.2065  0.1351 -0.9308
11511TIP3    H156024   1.803   3.619  14.153  0.8385 -0.3614 -0.3035
11511TIP3    H256025   1.670   3.570  14.098  1.5923 -0.1541 -2.4293
11512TIP3   OH256026   0.244   0.956  16.108  0.1728  0.1026 -0.3687
11512TIP3    H156027   0.319   0.898  16.123  0.0765  0.3966  1.5080
11512TIP3    H256028   0.238   1.008  16.188 -1.6214  0.5645 -0.7662
11513TIP3   OH256029   0.444   6.623  15.047 -0.2588  0.5541 -0.6123
11513TIP3    H156030   0.452   6.530  15.069 -1.3778  0.3128 -1.1298
11513TIP3    H256031   0.439   6.667  15.131 -0.5387  0.0549 -0.3582
11514TIP3   OH256032   1.272   0.536  12.617  0.3445 -0.0576  0.4508
11514TIP3    H156033   1.198   0.584  12.580  1.4098  0.0403 -1.6814
11514TIP3    H256034   1.315   0.495  12.542  1.5242 -1.4624  1.8135
11515TIP3   OH256035   6.588   4.486  13.987 -0.1460  0.3298  0.0855
11515TIP3    H156036   6.611   4.482  13.894 -0.3746 -0.3077  0.0499
11515TIP3    H256037   6.591   4.579  14.008 -0.8099  0.5509 -0.7404
11516TIP3   OH256038   6.065   3.349  14.984  0.6187 -0.1593  0.3163
11516TIP3    H156039   6.081   3.423  14.926  0.2417 -0.5135 -0.2506
11516TIP3    H256040   6.123   3.280  14.953 -0.7674 -0.9136 -0.7421
11517TIP3   OH256041   1.416   2.942   1.781  0.0104 -0.0830  0.2467
11517TIP3    H156042   1.428   2.850   1.801  1.0879  0.1662  0.8191
11517TIP3    H256043   1.490   2.986   1.822  0.5235  0.8394 -1.5401
11518TIP3   OH256044   4.163   6.474   2.118  0.0273 -0.1881 -0.3142
11518TIP3    H156045   4.259   6.469   2.109  0.1989  2.2582 -0.7904
11518TIP3    H256046   4.144   6.567   2.106 -2.0780 -0.0036  3.1033
11519TIP3   OH256047   1.935   5.085  14.164  0.1322  0.2590 -0.5617
11519TIP3    H156048   2.010   5.134  14.199 -0.9173  1.2513  0.4121
11519TIP3    H256049   1.874   5.153  14.136 -1.2542 -0.4807  0.5486
11520TIP3   OH256050   2.335   1.056  14.366  0.2878 -0.6476 -0.7883
11520TIP3    H156051   2.414   1.013  14.400  0.6774 -0.1509 -1.0468
11520TIP3    H256052   2.369   1.121  14.305 -0.3187 -0.2597 -0.7078
11521TIP3   OH256053   3.904   0.300   2.555  0.2069  0.1073 -0.1613
11521TIP3    H156054   3.927   0.327   2.466 -1.4101  2.3676  0.0215
11521TIP3    H256055   3.825   0.350   2.576 -1.2909 -2.6775  1.4520
11522TIP3   OH256056   4.596   2.767  16.553  0.0887 -0.0727 -0.0979
11522TIP3    H156057   4.581   2.788  16.645 -1.1501  3.4480 -0.9371
11522TIP3    H256058   4.691   2.762  16.545  0.2050 -2.5669  1.6618
11523TIP3   OH256059   1.674   0.920   2.639 -0.0298 -0.4498 -0.1367
11523TIP3    H156060   1.743   0.983   2.660 -1.2283  0.4963  1.1407
11523TIP3    H256061   1.699   0.841   2.688  1.2756 -0.9042 -1.4479
11524TIP3   OH256062   6.336   3.632   6.143  0.3400 -0.8630  0.3645
11524TIP3    H156063   6.299   3.594   6.222 -2.1749 -2.2047 -1.3533
11524TIP3    H256064   6.352   3.558   6.085  0.1984  0.2470 -1.1516
11525TIP3   OH256065   4.251   2.201  13.272  0.7226  0.2253  0.0531
11525TIP3    H156066   4.203   2.121  13.295  2.2908 -1.1206 -1.0840
11525TIP3    H256067   4.189   2.252  13.220 -0.3572 -0.1704  0.9039
11526TIP3   OH256068   3.048   5.799   3.187  0.7972 -0.2998 -1.0730
11526TIP3    H156069   3.137   5.773   3.208  0.9442  0.0069 -1.3085
11526TIP3    H256070   3.055   5.842   3.101  0.3046 -0.9774 -1.4581
11527TIP3   OH256071   4.778   6.740   1.955 -0.0227  0.2134  0.0914
11527TIP3    H156072   4.748   6.771   1.869 -3.9697  0.5093  1.3362
11527TIP3    H256073   4.795   6.647   1.943 -0.9090  0.1679 -0.9518
11528TIP3   OH256074   1.120   3.067  12.910 -0.6405  0.4300  0.0349
11528TIP3    H156075   1.041   3.016  12.890 -0.5858 -0.1813  1.2380
11528TIP3    H256076   1.160   3.085  12.825 -0.0047 -2.6260 -0.4266
11529TIP3   OH256077   2.924   2.356   4.764  0.2240 -0.3525  0.1906
11529TIP3    H156078   2.843   2.331   4.807 -0.0818 -2.7763 -1.5564
11529TIP3    H256079   2.978   2.395   4.833 -1.9685  0.3129  1.6216
11530TIP3   OH256080   2.776   4.679   6.096  0.2139  0.1102 -0.2613
11530TIP3    H156081   2.864   4.710   6.117  1.5175 -2.9259 -0.6447
11530TIP3    H256082   2.732   4.670   6.181  0.3660  1.3401 -0.0416
11531TIP3   OH256083   3.309   4.488  15.599  0.3199  0.0706  0.2563
11531TIP3    H156084   3.220   4.519  15.615  0.6306  2.4113 -1.9688
11531TIP3    H256085   3.363   4.531  15.666  0.1057  0.5682  0.1075
11532TIP3   OH256086   3.944   3.194   2.060 -0.5051  0.0254  0.4465
11532TIP3    H156087   3.880   3.124   2.072  1.6097 -1.7701  1.9188
11532TIP3    H256088   3.910   3.245   1.986 -2.9735 -1.5375  0.3955
11533TIP3   OH256089   3.682   4.202  14.044 -0.3335 -0.0461  0.0803
11533TIP3    H156090   3.646   4.242  14.124 -1.8712  1.5592 -1.3162
11533TIP3    H256091   3.693   4.276  13.983  2.4445 -0.9551 -0.6812
11534TIP3   OH256092   3.952   5.002   4.179  0.4486  0.7926  0.4460
11534TIP3    H156093   3.863   5.019   4.148  0.1124  0.7487  1.3714
11534TIP3    H256094   4.007   5.061   4.126 -0.3957  2.7359  1.6080
11535TIP3   OH256095   5.100   5.535   5.244 -1.0469  0.0361 -0.1619
11535TIP3    H156096   5.086   5.517   5.337  0.1069  1.0288  0.2353
11535TIP3    H256097   5.175   5.480   5.220  1.0661  2.4319  0.4996
11536TIP3   OH256098   0.018   1.050  14.418 -0.3249  0.1023  0.2070
11536TIP3    H156099   0.086   0.986  14.441  0.6178  0.7768 -0.6315
11536TIP3    H256100  -0.027   1.010  14.344 -0.4949 -0.0973  0.4151
11537TIP3   OH256101   2.820   3.019  16.614  0.6074 -0.1389 -0.2966
11537TIP3    H156102   2.777   2.990  16.694 -0.6554 -0.1254 -0.9454
11537TIP3    H256103   2.886   3.081  16.643 -2.0721  2.5585  0.5539
11538TIP3   OH256104   1.804   2.776   0.388 -0.1584  0.5155 -0.1700
11538TIP3    H156105   1.890   2.771   0.346  0.0825  2.0943  0.0853
11538TIP3    H256106   1.748   2.721   0.333  1.3249 -1.8978  0.5751
11539TIP3   OH256107   1.662   1.235  11.163 -0.0996 -0.2313 -0.0220
11539TIP3    H156108   1.645   1.141  11.167 -3.2903  0.3064  1.9804
11539TIP3    H256109   1.621   1.263  11.081 -1.5151 -0.2286  0.6683
11540TIP3   OH256110   3.956   0.575  15.615  0.0725 -0.2655 -0.2143
11540TIP3    H156111   3.872   0.571  15.570  1.1772  1.4071 -2.5943
11540TIP3    H256112   3.934   0.572  15.708 -2.5354 -0.7060 -0.7915
11541TIP3   OH256113   0.805   4.856  10.625  0.1245 -0.1981 -0.8554
11541TIP3    H156114   0.806   4.868  10.530 -1.2473 -0.9435 -0.9871
11541TIP3    H256115   0.728   4.802  10.642 -0.6216  1.2935  0.8522
11542TIP3   OH256116   2.483   1.781   0.060  0.1385 -0.0143 -0.2439
11542TIP3    H156117   2.497   1.774  -0.034  0.4787 -1.6954 -0.0924
11542TIP3    H256118   2.555   1.733   0.100 -0.4022  0.0443  0.8603
11543TIP3   OH256119   3.154   6.446  12.413 -0.1963  0.2935  0.3567
11543TIP3    H156120   3.208   6.368  12.423  1.4395  1.5303  1.8372
11543TIP3    H256121   3.064   6.413  12.410  0.5696 -1.9013 -2.9468
11544TIP3   OH256122   1.807   5.644  11.801  0.2508  0.4019  0.6664
11544TIP3    H156123   1.816   5.739  11.804 -0.4139  0.4999 -0.1303
11544TIP3    H256124   1.835   5.620  11.713  2.3656 -0.3836  1.4935
11545TIP3   OH256125   2.112   5.887   6.034  0.1813 -0.4375  0.3207
11545TIP3    H156126   2.066   5.964   6.068 -1.5184 -0.9154 -0.7888
11545TIP3    H256127   2.115   5.827   6.109 -0.2899 -0.0796  0.6366
11546TIP3   OH256128   2.254   3.952   1.785  0.0456  0.3972 -0.2903
11546TIP3    H156129   2.238   4.037   1.827  1.2167 -0.2331  1.5901
11546TIP3    H256130   2.328   3.968   1.726  1.5812  0.3499  1.5133
11547TIP3   OH256131   2.598   0.192   2.679  0.2095  0.1019  0.4598
11547TIP3    H156132   2.542   0.148   2.743 -1.5292  2.6212  0.8148
11547TIP3    H256133   2.545   0.196   2.599  1.9433 -2.0342 -0.9254
11548TIP3   OH256134   0.461   0.323   5.305  0.3263  0.3402 -0.3885
11548TIP3    H156135   0.509   0.346   5.385 -0.1822 -1.2663  0.4157
11548TIP3    H256136   0.372   0.304   5.334  0.8683 -3.4856 -0.7157
11549TIP3   OH256137   4.994   3.862  15.755 -0.2987 -0.1581 -0.3186
11549TIP3    H156138   4.943   3.924  15.704  1.4348  3.0388  1.5407
11549TIP3    H256139   5.085   3.881  15.733  0.3280 -2.3874  0.0374
11550TIP3   OH256140   1.693   3.201   2.821  0.1206  0.0276  0.1858
11550TIP3    H156141   1.602   3.211   2.848  0.0103 -0.9102  0.2072
11550TIP3    H256142   1.739   3.272   2.865 -0.6782  0.8361 -0.2498
11551TIP3   OH256143   4.228   4.522  11.374 -0.0911  0.0362  0.5235
11551TIP3    H156144   4.149   4.576  11.381  0.6785  1.0540  1.6932
11551TIP3    H256145   4.202   4.437  11.410 -0.9128  0.0423 -0.0136
11552TIP3   OH256146   5.232   3.148   3.590 -0.1357 -0.2757 -0.4314
11552TIP3    H156147   5.296   3.088   3.553  0.2035  0.2780 -0.7503
11552TIP3    H256148   5.159   3.146   3.528  1.2408  2.1733 -2.2795
11553TIP3   OH256149   3.242   4.219   5.268 -0.2511 -0.7004 -0.0211
11553TIP3    H156150   3.199   4.260   5.343  1.3500  1.5863 -0.2272
11553TIP3    H256151   3.266   4.132   5.299 -1.5632 -0.6153  1.3606
11554TIP3   OH256152   6.118   4.160   4.168  0.4855 -0.4164  0.4410
11554TIP3    H156153   6.105   4.092   4.234  0.6118 -0.7268  0.1474
11554TIP3    H256154   6.058   4.230   4.194  2.6114  0.7598  2.6034
11555TIP3   OH256155   2.625   2.416  16.637 -0.0718 -0.2149  0.0296
11555TIP3    H156156   2.697   2.391  16.579 -0.8174 -2.1578 -0.1469
11555TIP3    H256157   2.662   2.407  16.725  0.0634 -0.7261 -0.0719
11556TIP3   OH256158   3.513   4.023  15.970  0.0609  0.1886  0.3350
11556TIP3    H156159   3.577   3.959  16.001 -0.0803  0.4491  1.1950
11556TIP3    H256160   3.472   4.056  16.049 -1.5081 -0.3262 -0.2320
11557TIP3   OH256161   0.306   2.046   3.969 -0.5927  0.3643  0.7049
11557TIP3    H156162   0.392   2.074   3.998 -0.7457  0.7926  0.7470
11557TIP3    H256163   0.324   1.974   3.908 -0.2457 -0.0614  1.3026
11558TIP3   OH256164   2.784   2.625   2.915  0.5257 -0.3240  0.5628
11558TIP3    H156165   2.757   2.691   2.851  2.0199  1.0850  1.3146
11558TIP3    H256166   2.803   2.675   2.994  0.7203 -1.7970  1.4856
11559TIP3   OH256167   6.447   1.746   5.338  0.1799  0.3286 -0.0892
11559TIP3    H156168   6.516   1.689   5.304 -0.4332 -0.0413 -0.7569
11559TIP3    H256169   6.445   1.728   5.432  0.8619  0.2114 -0.0903
11560TIP3   OH256170   4.728   2.589   3.828  0.4453 -0.0505  0.2344
11560TIP3    H156171   4.774   2.506   3.823  1.0068  0.2705  0.0566
11560TIP3    H256172   4.677   2.583   3.909 -0.4144 -1.0188 -0.3619
11561TIP3   OH256173   4.170   1.697  15.150 -0.3963  0.5906 -0.4831
11561TIP3    H156174   4.202   1.786  15.161 -1.4988  1.1462 -1.4853
11561TIP3    H256175   4.138   1.695  15.059 -1.2424 -0.5359 -0.1746
11562TIP3   OH256176   2.606   6.667  14.305  0.7566  0.2028  0.8135
11562TIP3    H156177   2.584   6.740  14.248  0.1204 -0.4677  0.1684
11562TIP3    H256178   2.630   6.707  14.388 -0.3007  1.1138  0.7068
11563TIP3   OH256179   5.075   2.837   6.922  0.4128  0.1564 -0.0443
11563TIP3    H156180   5.126   2.828   7.002  0.7224 -0.4167 -0.3035
11563TIP3    H256181   5.125   2.898   6.868 -0.5356  1.7436  0.7776
11564TIP3   OH256182   3.387   1.268  16.164 -0.1971  0.0705 -0.2892
11564TIP3    H156183   3.314   1.330  16.164  1.0712  1.7502 -2.6236
11564TIP3    H256184   3.357   1.194  16.217 -3.2586  1.0107 -0.5459
11565TIP3   OH256185   6.302   3.861  13.522 -0.5890 -0.5685  0.6556
11565TIP3    H156186   6.236   3.928  13.541 -1.7878 -1.4406 -0.2790
11565TIP3    H256187   6.340   3.839  13.607 -1.2982  0.1647  1.1681
11566TIP3   OH256188   0.835   3.180  14.774  0.3577 -0.0617 -0.2203
11566TIP3    H156189   0.876   3.128  14.843  0.7475 -0.5665 -0.8212
11566TIP3    H256190   0.780   3.243  14.821 -0.9292 -1.6584  0.5042
11567TIP3   OH256191   1.895   2.516   5.598 -0.1761  0.5334  0.2664
11567TIP3    H156192   1.832   2.587   5.596 -1.6551 -0.7309  0.1138
11567TIP3    H256193   1.914   2.503   5.691 -2.1531 -0.7150  0.5650
11568TIP3   OH256194   1.279   4.846   5.972 -0.2865 -0.3653 -0.5930
11568TIP3    H156195   1.226   4.772   6.000 -0.1568 -0.6957 -1.2084
11568TIP3    H256196   1.263   4.913   6.039  1.7943 -1.8768  1.5695
11569TIP3   OH256197   6.523   4.500   4.428 -0.0143 -0.0375 -0.1129
11569TIP3    H156198   6.459   4.449   4.379  0.4067 -0.5550 -0.1331
11569TIP3    H256199   6.543   4.447   4.505  0.0103  0.3531  0.1532
11570TIP3   OH256200   0.262   5.210  16.205 -0.2768  0.0034 -0.4851
11570TIP3    H156201   0.338   5.152  16.201 -0.8713 -0.7866 -0.6071
11570TIP3    H256202   0.235   5.209  16.297 -0.0572  0.4048 -0.4122
11571TIP3   OH256203   5.726   2.034   2.190 -0.0765  0.0300  0.3005
11571TIP3    H156204   5.787   2.100   2.222 -1.0471  0.8113  0.5977
11571TIP3    H256205   5.772   1.951   2.204  2.1468  0.6992 -2.2623
11572TIP3   OH256206   5.271   1.728  13.622  0.0148  0.0682 -0.2230
11572TIP3    H156207   5.227   1.694  13.544 -0.3828 -1.0228  0.4499
11572TIP3    H256208   5.282   1.822  13.604 -0.3281 -0.1060 -1.4585
11573TIP3   OH256209   0.856   0.934   6.665  0.0613 -0.2642  0.0784
11573TIP3    H156210   0.905   1.016   6.661  0.5370 -0.5837 -1.0162
11573TIP3    H256211   0.794   0.939   6.592 -0.6281 -0.4338  0.6411
11574TIP3   OH256212   2.759   5.576  16.700 -0.0662 -0.1565 -0.4369
11574TIP3    H156213   2.795   5.616  16.779 -0.2322  1.8857 -1.3313
11574TIP3    H256214   2.825   5.593  16.633  0.8907 -3.3763 -0.4653
11575TIP3   OH256215   3.638   1.414   3.839  0.0121  0.6343  0.1607
11575TIP3    H156216   3.733   1.416   3.848 -0.1291  0.3148  2.0578
11575TIP3    H256217   3.617   1.321   3.829 -0.0743  0.7646 -1.1715
11576TIP3   OH256218   2.395   4.413  11.741  0.5383 -0.2591 -0.1041
11576TIP3    H156219   2.423   4.444  11.827 -0.3461  1.6174 -0.4605
11576TIP3    H256220   2.336   4.341  11.760 -1.0789  1.2876  0.9754
11577TIP3   OH256221   6.073   0.849  16.160  0.4085  0.6979 -0.3752
11577TIP3    H156222   6.024   0.772  16.189  3.2999 -1.8221 -1.6781
11577TIP3    H256223   6.120   0.878  16.238 -0.3981  0.9685  0.0292
11578TIP3   OH256224   2.551   2.107   4.311 -0.1965 -0.2140  0.1170
11578TIP3    H156225   2.622   2.069   4.362  0.6096 -1.6531 -1.9527
11578TIP3    H256226   2.471   2.082   4.358  0.5041 -1.6901  0.5696
11579TIP3   OH256227   3.383   0.021   5.355  0.1332 -0.1039 -0.3627
11579TIP3    H156228   3.461   0.009   5.410  0.7091  2.3240 -0.5123
11579TIP3    H256229   3.310  -0.002   5.412  0.8870 -1.4899  0.1001
11580TIP3   OH256230   0.936   5.917   0.821 -0.1017  0.5661  0.2085
11580TIP3    H156231   0.963   5.971   0.895  0.1565  2.2623 -1.0606
11580TIP3    H256232   0.855   5.958   0.789  1.1366  1.5057 -1.9823
11581TIP3   OH256233   4.454   6.477   1.783  0.1371 -0.0617 -0.4138
11581TIP3    H156234   4.416   6.565   1.786 -1.1064 -0.5278 -1.3149
11581TIP3    H256235   4.526   6.483   1.720  1.3444  0.7443  1.0041
11582TIP3   OH256236   0.357   4.493  11.280  0.0060  0.0706  0.1510
11582TIP3    H156237   0.405   4.575  11.291  1.2270 -0.5263 -0.5385
11582TIP3    H256238   0.390   4.456  11.198 -0.4364 -1.1656  0.5021
11583TIP3   OH256239   6.748   1.399  10.859 -0.0459  0.0297  0.5034
11583TIP3    H156240   6.684   1.397  10.930  0.6124 -2.5595  1.1246
11583TIP3    H256241   6.755   1.492  10.836 -3.2273  0.5467  1.0764
11584TIP3   OH256242   4.805   1.678  14.390 -0.1349 -0.0629 -0.5079
11584TIP3    H156243   4.799   1.604  14.450 -1.7757  1.2588  1.0917
11584TIP3    H256244   4.751   1.653  14.315 -0.6105 -0.5224 -0.0157
11585TIP3   OH256245   4.287   1.459  14.207 -0.5143 -0.4552  0.2883
11585TIP3    H156246   4.193   1.446  14.219 -0.6955 -0.1162 -0.6947
11585TIP3    H256247   4.303   1.438  14.115 -0.4630  3.7273 -0.8872
11586TIP3   OH256248   5.707   6.082   4.114  0.1298  0.3362 -0.4381
11586TIP3    H156249   5.638   6.038   4.164  1.4032 -0.0317  1.0520
11586TIP3    H256250   5.666   6.101   4.029 -2.4106  1.7973  0.9786
11587TIP3   OH256251   1.023   2.090   4.060 -0.3068 -0.1278  0.3244
11587TIP3    H156252   1.056   2.179   4.049  0.9106 -0.4643  0.9871
11587TIP3    H256253   1.037   2.071   4.153 -0.5175 -1.0194  0.1833
11588TIP3   OH256254   5.370   1.774  17.169 -0.7260  0.2252 -0.4121
11588TIP3    H156255   5.315   1.720  17.226 -0.3425  2.3542  2.1780
11588TIP3    H256256   5.321   1.856  17.159 -0.0682  0.4686 -1.9312
11589TIP3   OH256257   0.948   4.392   2.184  0.2928  0.5925 -0.1868
11589TIP3    H156258   0.954   4.314   2.128 -0.7028  1.2848 -1.3127
11589TIP3    H256259   0.956   4.359   2.273  0.5243 -0.7169 -0.6743
11590TIP3   OH256260   0.094   0.854   4.290  0.7698 -0.1717 -0.3885
11590TIP3    H156261   0.006   0.856   4.252  0.7675  0.4680 -0.3574
11590TIP3    H256262   0.101   0.935   4.340  1.8176  0.4041 -1.4012
11591TIP3   OH256263   3.857   2.420   3.889 -0.7762 -0.3839  0.2111
11591TIP3    H156264   3.874   2.363   3.965  0.1942 -0.1961  0.1552
11591TIP3    H256265   3.841   2.359   3.817 -4.1317 -0.6172  0.9767
11592TIP3   OH256266   2.989   2.813   4.052  0.2270  0.0223  0.1122
11592TIP3    H156267   2.928   2.811   3.979  0.0785 -0.1660  0.2387
11592TIP3    H256268   3.013   2.905   4.063 -1.6178  0.3976  1.3709
11593TIP3   OH256269   4.741   0.670   4.236  0.2801  0.3996  0.2886
11593TIP3    H156270   4.738   0.641   4.327  0.2345  0.6357  0.3610
11593TIP3    H256271   4.687   0.607   4.189 -0.0999  0.5671  0.5001
11594TIP3   OH256272   1.343   6.036  16.550  0.7108 -0.0507 -0.2155
11594TIP3    H156273   1.425   6.028  16.501  0.3656  1.0808 -1.0142
11594TIP3    H256274   1.368   6.016  16.641  2.2050  1.6823 -0.1824
11595TIP3   OH256275   0.964   5.468  12.668 -0.3556 -0.1112  0.0413
11595TIP3    H156276   0.941   5.409  12.597  0.8620  0.5363 -0.9268
11595TIP3    H256277   0.966   5.413  12.746  0.5804 -1.3390 -0.8125
11596TIP3   OH256278   4.022   2.690  14.761  0.2196  0.6587 -0.4233
11596TIP3    H156279   3.987   2.779  14.749 -0.9988  0.1961 -0.4511
11596TIP3    H256280   3.944   2.635  14.769  0.9651 -0.3789 -0.1469
11597TIP3   OH256281   4.563   3.099  13.016 -0.0946  0.3821 -0.1288
11597TIP3    H156282   4.503   3.144  13.075 -0.8394 -0.6591 -0.0528
11597TIP3    H256283   4.593   3.167  12.956 -0.3750  1.1785  0.6119
11598TIP3   OH256284   5.346   0.855  14.749 -0.0879 -0.5593 -0.0513
11598TIP3    H156285   5.251   0.850  14.744  0.0049 -1.4044 -1.2418
11598TIP3    H256286   5.377   0.785  14.692  1.2560 -0.2412  0.2563
11599TIP3   OH256287   5.658   4.469  14.137  0.5659  0.5376 -0.0624
11599TIP3    H156288   5.729   4.426  14.088  1.3596  2.4180 -0.6773
11599TIP3    H256289   5.605   4.397  14.171  1.3920 -0.8945 -1.6404
11600TIP3   OH256290   5.328   0.574   0.271 -0.4273  0.0928  0.0551
11600TIP3    H156291   5.347   0.481   0.264  1.0662  0.2832  1.0230
11600TIP3    H256292   5.264   0.580   0.342 -2.6706 -0.3781 -1.8156
11601TIP3   OH256293   4.381   0.909  15.409  0.1899 -0.0297  0.2839
11601TIP3    H156294   4.293   0.945  15.411  0.2251  0.3543 -2.1237
11601TIP3    H256295   4.425   0.947  15.485 -1.2724  0.9502  0.6742
11602TIP3   OH256296   0.790   2.194  11.283 -0.1875 -0.2103 -0.3608
11602TIP3    H156297   0.738   2.126  11.241  0.0762  0.1165 -1.2456
11602TIP3    H256298   0.726   2.256  11.318 -0.4036 -0.0989 -0.9466
11603TIP3   OH256299   6.179   5.885  11.622 -0.0947  0.6750 -0.2521
11603TIP3    H156300   6.230   5.809  11.649 -2.0900 -1.6934 -2.5873
11603TIP3    H256301   6.220   5.913  11.540 -1.6913 -0.4660 -1.4869
11604TIP3   OH256302   1.593   3.238   1.154  0.1397  0.5736 -0.3100
11604TIP3    H156303   1.575   3.265   1.245  0.1096  0.5298 -0.3029
11604TIP3    H256304   1.509   3.248   1.109 -0.0924 -0.3266 -0.1062
11605TIP3   OH256305   2.002   3.346   2.243  0.0773 -0.7291  0.0377
11605TIP3    H156306   1.943   3.293   2.297 -0.5754 -0.8903 -0.8252
11605TIP3    H256307   1.958   3.430   2.234  0.0177 -0.8252 -0.5524
11606TIP3   OH256308   6.283   1.456   3.857 -0.0347 -0.1677  0.0865
11606TIP3    H156309   6.370   1.440   3.893  1.5965  0.6460 -3.0668
11606TIP3    H256310   6.269   1.550   3.868 -1.4023 -0.5510  2.1705
11607TIP3   OH256311   5.788   2.405  17.017  0.1938  0.7527  0.7919
11607TIP3    H156312   5.854   2.359  17.069  0.9595  0.7483 -0.1598
11607TIP3    H256313   5.784   2.356  16.935 -0.7587  0.9553  0.7134
11608TIP3   OH256314   1.933   6.262  11.716 -0.3323  0.2379 -0.0401
11608TIP3    H156315   1.999   6.212  11.764 -0.9290 -0.2398  0.2859
11608TIP3    H256316   1.958   6.252  11.624  0.6582  0.9342  0.1363
11609TIP3   OH256317   1.328   6.181  12.514 -0.0654 -0.1103 -0.3614
11609TIP3    H156318   1.405   6.203  12.461 -0.5215 -0.1696 -1.0722
11609TIP3    H256319   1.353   6.203  12.603  0.8608 -0.3533 -0.5495
11610TIP3   OH256320   1.471   5.169   1.048 -0.8207 -0.3523  0.7545
11610TIP3    H156321   1.564   5.172   1.026 -1.2171 -1.5302 -1.3999
11610TIP3    H256322   1.464   5.103   1.116 -0.2320 -1.5780 -0.3281
11611TIP3   OH256323   6.151   6.334   5.261 -0.4407  0.4048  0.0865
11611TIP3    H156324   6.165   6.240   5.273  0.8483  0.4092 -1.0188
11611TIP3    H256325   6.197   6.354   5.179 -0.3799  2.0684  0.4915
11612TIP3   OH256326   0.802   2.786  15.439  0.4067  0.0805  0.4261
11612TIP3    H156327   0.801   2.862  15.498  2.7638 -0.8021  1.7879
11612TIP3    H256328   0.719   2.742  15.455 -0.6827  1.9412  0.1583
11613TIP3   OH256329   4.572   4.797  14.887 -0.0886  0.0292 -0.0861
11613TIP3    H156330   4.539   4.837  14.806  1.6297 -0.4582 -1.0839
11613TIP3    H256331   4.534   4.710  14.888  0.4057 -0.2054 -0.7531
11614TIP3   OH256332   4.671   6.752  15.336 -0.1712 -0.3227  0.1990
11614TIP3    H156333   4.638   6.694  15.268  0.5025  0.3743 -0.7498
11614TIP3    H256334   4.594   6.800  15.365 -0.4477 -0.5442 -0.1606
11615TIP3   OH256335   6.311   0.012   5.951  0.2671  0.3767 -0.3826
11615TIP3    H156336   6.396   0.042   5.982  0.9034 -0.5676 -1.1594
11615TIP3    H256337   6.293  -0.067   6.003 -0.7810  1.2812  0.7137
11616TIP3   OH256338   0.282   4.859  14.262 -0.2779 -0.2111  0.6143
11616TIP3    H156339   0.318   4.802  14.330  2.1019  0.3319 -0.1085
11616TIP3    H256340   0.224   4.801  14.212 -0.7725 -1.0319  2.0522
11617TIP3   OH256341   2.333   4.847  16.732 -0.0327 -0.4379 -0.6230
11617TIP3    H156342   2.367   4.843  16.822  0.6425 -2.0789 -0.9308
11617TIP3    H256343   2.267   4.917  16.736  1.8801  1.4636  0.4717
11618TIP3   OH256344   0.863   4.755  12.803  0.0525  0.3699  0.1923
11618TIP3    H156345   0.869   4.846  12.772  0.5353 -0.0141 -0.9052
11618TIP3    H256346   0.925   4.751  12.876 -2.1800  1.6736  2.2872
11619TIP3   OH256347   3.766   2.046  13.416 -0.3461  0.3344 -0.7609
11619TIP3    H156348   3.706   2.090  13.355 -0.8181  2.6928  1.2281
11619TIP3    H256349   3.769   2.104  13.492  1.8697 -1.4077  0.6056
11620TIP3   OH256350   2.971   5.408  15.761 -0.4477 -0.7633  0.2994
11620TIP3    H156351   2.896   5.455  15.798  0.3655  1.2788 -0.5107
11620TIP3    H256352   2.934   5.355  15.691 -1.4078 -1.5220  1.3346
11621TIP3   OH256353   1.422   2.386   4.373 -0.1394 -0.3435 -0.0348
11621TIP3    H156354   1.402   2.471   4.334  0.4653 -0.4606 -0.6047
11621TIP3    H256355   1.405   2.323   4.304  0.4113 -0.5960  0.0566
11622TIP3   OH256356   5.713   6.368   1.362  0.2095 -0.0195  0.3603
11622TIP3    H156357   5.647   6.431   1.390  1.0197  0.7782  0.5256
11622TIP3    H256358   5.722   6.383   1.268  2.0548  1.8019  0.7329
11623TIP3   OH256359   0.204   3.454  15.753 -0.1133 -0.1956 -0.2762
11623TIP3    H156360   0.170   3.509  15.683  1.3400 -0.7188 -1.4466
11623TIP3    H256361   0.184   3.503  15.833 -2.0422  0.2861 -0.9963
11624TIP3   OH256362   3.660   6.701   6.701 -0.2093  0.1103 -0.3180
11624TIP3    H156363   3.740   6.735   6.741  0.8319 -0.8376 -1.5137
11624TIP3    H256364   3.596   6.772   6.712  1.4580  1.8935 -1.4118
11625TIP3   OH256365   0.972   1.510   3.469 -0.1827  0.0594  0.0724
11625TIP3    H156366   0.999   1.535   3.557  0.8281 -0.9353  0.0702
11625TIP3    H256367   0.926   1.427   3.481  1.9453 -1.2862 -0.5204
11626TIP3   OH256368   5.085   0.239   5.565  0.0296 -0.0355  0.3143
11626TIP3    H156369   5.171   0.257   5.602  0.8204 -2.7211  0.0307
11626TIP3    H256370   5.040   0.188   5.633 -0.9750  0.5315  0.0850
11627TIP3   OH256371   2.694   2.860  15.696 -0.2072  0.7614 -0.1501
11627TIP3    H156372   2.644   2.933  15.658 -2.1186 -0.6364 -0.4296
11627TIP3    H256373   2.781   2.897  15.712 -0.7818  2.7816 -1.3344
11628TIP3   OH256374   3.904   1.548  14.466 -0.0786  0.0599 -0.2185
11628TIP3    H156375   3.829   1.513  14.419  1.7291 -2.4274 -1.4581
11628TIP3    H256376   3.980   1.502  14.429  2.0246  1.9970  1.3749
11629TIP3   OH256377   3.623   1.699   1.068  0.4098 -0.2262  0.2022
11629TIP3    H156378   3.543   1.720   1.115  0.2426 -0.4275  0.0068
11629TIP3    H256379   3.648   1.782   1.027 -0.3343 -0.4260 -0.6909
11630TIP3   OH256380   1.118   6.102   0.547 -0.2204 -0.1120  0.2938
11630TIP3    H156381   1.171   6.051   0.487 -0.5689 -0.0883 -0.0399
11630TIP3    H256382   1.032   6.106   0.506  0.0498  1.5703 -0.1695
11631TIP3   OH256383   3.228   1.379  12.525  0.6574 -0.5432 -0.1897
11631TIP3    H156384   3.177   1.299  12.511  1.1874 -0.8688 -0.3118
11631TIP3    H256385   3.256   1.374  12.616  1.1921 -0.8062 -0.3595
11632TIP3   OH256386   1.045   3.368   0.221  0.9245 -0.0359  0.3262
11632TIP3    H156387   1.064   3.341   0.131  0.7360  2.1380 -0.4353
11632TIP3    H256388   0.956   3.404   0.217 -0.7645 -3.5097  2.3076
11633TIP3   OH256389   0.152   2.781  15.019  1.0825 -0.0186 -0.5710
11633TIP3    H156390   0.063   2.773  14.983 -0.0380  0.9012  1.8310
11633TIP3    H256391   0.196   2.842  14.960 -0.7541  1.6136 -0.3536
11634TIP3   OH256392   5.048   0.153  17.433 -0.0195  1.0405 -0.2968
11634TIP3    H156393   5.044   0.223  17.498  0.5758  1.5444 -0.7948
11634TIP3    H256394   4.966   0.162  17.383  0.6065  2.1693 -1.1496
11635TIP3   OH256395   0.816   6.765  14.439 -0.1829 -0.7949 -0.1806
11635TIP3    H156396   0.726   6.772  14.471 -0.8406  0.2193 -2.0926
11635TIP3    H256397   0.839   6.854  14.412  1.8749 -0.7652  1.3569
11636TIP3   OH256398   6.160   1.698   1.504  0.0604  0.0910 -0.4461
11636TIP3    H156399   6.100   1.664   1.438 -0.6880  0.2103  0.1497
11636TIP3    H256400   6.223   1.750   1.455 -1.1527  1.1250 -0.9686
11637TIP3   OH256401   1.472   4.499  12.593  0.2065  0.1276 -0.3168
11637TIP3    H156402   1.411   4.553  12.645  1.7891  0.6137  1.1296
11637TIP3    H256403   1.528   4.563  12.549  0.1216 -0.3270 -1.1029
11638TIP3   OH256404   5.666   2.590  12.077  0.0101 -0.1259  0.0204
11638TIP3    H156405   5.716   2.582  11.996  0.4983 -1.0300  0.3932
11638TIP3    H256406   5.724   2.555  12.144 -0.8771 -0.5645  0.5704
11639TIP3   OH256407   6.234   1.817  15.255 -1.1330  0.0681  0.3601
11639TIP3    H156408   6.169   1.871  15.300 -1.0617  0.1124  0.4085
11639TIP3    H256409   6.308   1.875  15.240 -1.0050 -0.0495  0.5253
11640TIP3   OH256410   5.141   6.411  12.917  0.7619 -0.3274  0.7744
11640TIP3    H156411   5.074   6.428  12.851  1.5402 -0.3099 -0.0392
11640TIP3    H256412   5.176   6.498  12.938 -1.2587 -0.0002  3.2073
11641TIP3   OH256413   4.488   0.395  13.405 -0.3794 -0.1352 -0.5883
11641TIP3    H156414   4.524   0.452  13.472 -2.9015  2.1757 -1.0110
11641TIP3    H256415   4.424   0.341  13.451 -2.7436  2.0398 -1.0417
11642TIP3   OH256416   1.722   3.883   1.493  0.1644  0.1203 -0.6005
11642TIP3    H156417   1.724   3.820   1.422 -0.1656 -0.9969  0.3603
11642TIP3    H256418   1.812   3.913   1.501  0.3632 -0.3809 -0.9346
11643TIP3   OH256419   5.786   5.873  16.028  0.4181 -0.1909  0.2427
11643TIP3    H156420   5.724   5.861  15.956  0.6607  1.0027 -0.1851
11643TIP3    H256421   5.758   5.809  16.094 -0.6666 -0.3423 -0.3333
11644TIP3   OH256422   0.239   6.297  11.803 -0.4937  0.1284  0.0576
11644TIP3    H156423   0.189   6.246  11.740 -1.7790  0.6158  0.6546
11644TIP3    H256424   0.209   6.266  11.889 -1.3383  1.8742  0.4364
11645TIP3   OH256425   5.624   6.049  16.946 -0.9381 -0.1456 -0.3049
11645TIP3    H156426   5.660   5.978  16.999  0.9390  1.3849  0.5840
11645TIP3    H256427   5.589   6.006  16.868  0.0066 -2.0454  0.2761
11646TIP3   OH256428   4.617   6.656   3.436 -0.6301  0.0378 -0.9423
11646TIP3    H156429   4.637   6.664   3.343  1.1289 -0.2026 -0.6318
11646TIP3    H256430   4.701   6.634   3.477 -0.6781  2.9448  1.0769
11647TIP3   OH256431   0.168   0.162   5.132  0.0793  0.0200  0.1092
11647TIP3    H156432   0.203   0.128   5.050 -2.3693  0.5659 -1.2489
11647TIP3    H256433   0.080   0.124   5.139  0.2049 -0.0037  2.5077
11648TIP3   OH256434   5.499   3.460   2.257  0.1732  0.2781  0.5151
11648TIP3    H156435   5.540   3.445   2.343 -1.2068  1.4751  1.4273
11648TIP3    H256436   5.434   3.390   2.249  0.3035  0.1652  0.4463
11649TIP3   OH256437   0.642   2.279   1.574 -0.2174  0.2465 -0.1503
11649TIP3    H156438   0.652   2.348   1.507 -2.0099  1.1385  0.4306
11649TIP3    H256439   0.554   2.244   1.558  0.0563 -0.8008  0.6035
11650TIP3   OH256440   4.796   3.275   4.997  0.3745  0.3289  0.6097
11650TIP3    H156441   4.816   3.310   5.084 -0.3120  1.5860  0.2919
11650TIP3    H256442   4.869   3.216   4.977  2.3826  2.6731  0.6124
11651TIP3   OH256443   0.804   6.068   1.912 -0.2330 -0.6613 -1.4418
11651TIP3    H156444   0.757   6.112   1.841 -0.6246 -0.9936 -1.3893
11651TIP3    H256445   0.736   6.023   1.962  0.1514 -1.2585 -1.4448
11652TIP3   OH256446   6.438   5.477   1.012 -0.2992 -0.0309 -0.1922
11652TIP3    H156447   6.446   5.445   1.102 -0.7173 -2.0367 -0.8116
11652TIP3    H256448   6.345   5.497   1.001 -0.3815 -0.4884 -0.3739
11653TIP3   OH256449   6.415   2.480   4.961  0.2925 -0.1892  0.1012
11653TIP3    H156450   6.465   2.522   5.031  0.6566 -1.5079  0.6787
11653TIP3    H256451   6.443   2.388   4.964 -0.7223 -0.5523 -0.8669
11654TIP3   OH256452   2.993   1.958  17.130  0.6456  0.0775 -0.2541
11654TIP3    H156453   2.907   1.933  17.164 -0.5089  1.6617 -1.8128
11654TIP3    H256454   3.055   1.929  17.196 -0.8295 -3.3762 -0.1866
11655TIP3   OH256455   1.948   6.121  11.239 -0.0324 -0.2470  1.2344
11655TIP3    H156456   1.868   6.094  11.192 -0.0432  0.3510  0.9077
11655TIP3    H256457   1.939   6.215  11.248 -0.0540 -0.3619  2.4992
11656TIP3   OH256458   5.497   1.574  15.163  0.2510 -0.1841 -0.0152
11656TIP3    H156459   5.576   1.530  15.197 -0.0715 -1.4671 -0.8165
11656TIP3    H256460   5.529   1.658  15.131  1.3512 -0.7283 -0.4409
11657TIP3   OH256461   1.554   5.596   3.608 -0.1645 -0.0499 -0.2368
11657TIP3    H156462   1.484   5.636   3.661 -0.0698 -0.2439  0.0362
11657TIP3    H256463   1.516   5.515   3.574  0.9872 -2.0244  2.7630
11658TIP3   OH256464   3.682   1.645   2.764 -0.1316  0.4228 -0.2213
11658TIP3    H156465   3.676   1.741   2.764 -0.8630  0.3830  0.0271
11658TIP3    H256466   3.660   1.620   2.674  2.7193  0.6136 -1.0520
11659TIP3   OH256467   3.779   2.617   6.560  0.1831  0.2393 -0.3065
11659TIP3    H156468   3.833   2.550   6.602  0.1124 -0.0343 -0.6468
11659TIP3    H256469   3.694   2.611   6.603  0.7261  1.3994  0.9822
11660TIP3   OH256470   3.113   6.210   5.086  0.5198 -0.9367  0.0916
11660TIP3    H156471   3.102   6.158   5.166  2.3339 -1.4081  0.0743
11660TIP3    H256472   3.074   6.155   5.017 -1.1986 -0.4591  0.6264
11661TIP3   OH256473   3.112   4.266   2.464 -0.3448  0.8520 -0.1924
11661TIP3    H156474   3.187   4.218   2.499  0.3917  1.7141 -0.5364
11661TIP3    H256475   3.151   4.337   2.413 -1.3978  0.6480 -1.3294
11662TIP3   OH256476   5.953   6.188   6.421 -0.2679 -0.3049  0.2313
11662TIP3    H156477   5.908   6.258   6.468 -0.2697 -0.7040  0.8399
11662TIP3    H256478   5.894   6.113   6.427  0.7310 -1.0211  1.5977
11663TIP3   OH256479   0.012   1.415  16.030 -0.2174 -1.0472  0.5776
11663TIP3    H156480  -0.058   1.394  16.092 -2.0019 -1.1486 -1.3834
11663TIP3    H256481  -0.019   1.492  15.983  1.3842 -0.5794  0.2040
11664TIP3   OH256482   1.339   6.397  16.763 -0.6380 -0.0160 -0.0163
11664TIP3    H156483   1.295   6.330  16.815  0.4619 -0.8032 -0.0654
11664TIP3    H256484   1.422   6.358  16.739 -0.8996  0.5319 -1.9389
11665TIP3   OH256485   3.843   3.971  13.148  0.5567 -0.2853  0.5082
11665TIP3    H156486   3.794   4.047  13.179  1.2199 -0.2143  1.3939
11665TIP3    H256487   3.853   3.986  13.054  1.7489  1.3459  0.8566
11666TIP3   OH256488   1.862   1.643   3.086 -0.8362 -0.1519  0.4189
11666TIP3    H156489   1.839   1.562   3.133 -0.9518  0.3137  1.1882
11666TIP3    H256490   1.938   1.620   3.033 -1.7121 -1.1417 -0.4684
11667TIP3   OH256491   6.398   5.705  16.684  0.1653  0.7925  0.1815
11667TIP3    H156492   6.382   5.770  16.617  0.4373  0.1756 -0.4955
11667TIP3    H256493   6.491   5.682  16.674  0.0044  0.0888  0.2013
11668TIP3   OH256494   0.557   5.192   0.379 -0.1970  0.4898 -0.7157
11668TIP3    H156495   0.639   5.198   0.329  0.1817  1.7434  0.0033
11668TIP3    H256496   0.579   5.142   0.457  0.4077  2.3231  0.3690
11669TIP3   OH256497   0.654   3.097  15.825 -0.0611  0.1086  0.5556
11669TIP3    H156498   0.642   3.191  15.812  1.2094  0.2075 -0.0947
11669TIP3    H256499   0.667   3.086  15.919 -1.3820  0.4201  0.7933
11670TIP3   OH256500   5.920   0.429   6.690  0.5851 -0.2560  0.4674
11670TIP3    H156501   6.002   0.452   6.733  1.3533 -0.9468 -0.5630
11670TIP3    H256502   5.917   0.334   6.693 -0.2085 -0.2404  0.5194
11671TIP3   OH256503   1.636   3.379  12.910 -0.1026 -0.0548 -0.4340
11671TIP3    H156504   1.728   3.402  12.925 -0.0795 -1.4559  2.3159
11671TIP3    H256505   1.588   3.460  12.925  0.6717  1.0185 -3.1638
11672TIP3   OH256506   6.535   3.316   1.654 -0.0051 -0.2455  0.2586
11672TIP3    H156507   6.610   3.337   1.709  0.8484  0.7835 -1.2267
11672TIP3    H256508   6.551   3.227   1.622 -0.6440 -0.9575  1.8384
11673TIP3   OH256509   5.160   4.809   2.435 -0.2066  0.2957 -0.5811
11673TIP3    H156510   5.183   4.727   2.392  0.3834 -0.2197  0.6748
11673TIP3    H256511   5.209   4.808   2.517 -2.9931  0.1755  1.2068
11674TIP3   OH256512   2.822   3.192  14.415 -0.0266 -0.7651  1.0198
11674TIP3    H156513   2.808   3.245  14.337  2.1541 -1.3496  0.1475
11674TIP3    H256514   2.763   3.229  14.481 -1.6278 -0.0025 -0.7604
11675TIP3   OH256515   5.360   6.091   1.842 -0.2795 -0.2869 -0.0498
11675TIP3    H156516   5.362   6.052   1.930 -2.8330 -0.5228 -0.0177
11675TIP3    H256517   5.271   6.073   1.810  0.1453  1.0038 -2.1345
11676TIP3   OH256518   0.519   3.678   5.666  0.4799  0.0109 -0.1200
11676TIP3    H156519   0.508   3.735   5.590  0.8970 -0.1285 -0.2855
11676TIP3    H256520   0.505   3.736   5.742  1.7167  0.5211 -0.2699
11677TIP3   OH256521   1.597   4.992   2.483  0.1140  0.6213  0.5803
11677TIP3    H156522   1.521   4.963   2.533  0.8752  2.2308  2.8515
11677TIP3    H256523   1.639   5.057   2.540  1.9417  1.4106 -1.5474
11678TIP3   OH256524   0.775   2.137   1.238 -0.7834  0.6900  0.2673
11678TIP3    H156525   0.747   2.212   1.290 -1.2727  0.6244  0.1056
11678TIP3    H256526   0.737   2.152   1.151  2.3755  2.2942 -1.0056
11679TIP3   OH256527   4.368   3.028  11.276 -0.0067 -0.2593 -0.0751
11679TIP3    H156528   4.414   3.023  11.193 -0.7657 -3.9097 -0.4742
11679TIP3    H256529   4.278   3.000  11.255 -0.3920 -0.5840  1.8119
11680TIP3   OH256530   4.077   2.477   5.680  0.0823 -0.3374 -0.1380
11680TIP3    H156531   4.064   2.390   5.644 -3.0286 -0.0851  0.0804
11680TIP3    H256532   4.002   2.528   5.648  0.7649  1.7220  1.3004
11681TIP3   OH256533   5.420   0.778   2.255  0.1004  0.1533  0.4846
11681TIP3    H156534   5.456   0.795   2.341  1.0075 -0.1908  0.1787
11681TIP3    H256535   5.429   0.861   2.208  0.3914  0.0943  0.4392
11682TIP3   OH256536   0.647   1.204  14.956  0.0492 -0.2503  0.3334
11682TIP3    H156537   0.685   1.227  15.040 -0.6614 -0.7680  0.8114
11682TIP3    H256538   0.557   1.237  14.961  0.2757  0.5489 -0.5882
11683TIP3   OH256539   0.416   5.355  11.422  0.0505 -0.4578 -0.3654
11683TIP3    H156540   0.397   5.311  11.339 -0.1259 -1.2419  0.0754
11683TIP3    H256541   0.331   5.387  11.451  0.4304  1.7837 -1.5444
11684TIP3   OH256542   0.480   6.695   0.375 -0.2388 -0.4875  0.1930
11684TIP3    H156543   0.423   6.678   0.450 -1.2905  0.7694 -0.2885
11684TIP3    H256544   0.437   6.766   0.328  0.1735 -1.5140 -1.8385
11685TIP3   OH256545   6.765   0.083  13.442 -0.1316  0.0710 -0.5680
11685TIP3    H156546   6.721   0.085  13.527 -1.6036 -2.0801 -1.2031
11685TIP3    H256547   6.722   0.150  13.391  0.1457  0.7621  0.0891
11686TIP3   OH256548   2.125   3.689  16.899  0.1873 -0.3354  0.2116
11686TIP3    H156549   2.119   3.701  16.804  2.8013 -0.0255  0.0120
11686TIP3    H256550   2.213   3.654  16.913 -0.2429 -0.6385  2.5184
11687TIP3   OH256551   3.311   3.858  12.244 -0.0584  0.0338 -0.6645
11687TIP3    H156552   3.249   3.788  12.225 -0.0863  0.1027 -0.8349
11687TIP3    H256553   3.360   3.869  12.162 -2.2811  2.4939 -1.8023
11688TIP3   OH256554   6.265   6.583   4.761 -0.3544 -0.4235  0.1575
11688TIP3    H156555   6.269   6.495   4.724  0.4292 -0.1739 -0.3723
11688TIP3    H256556   6.344   6.627   4.728  0.2390 -0.0992  1.8799
11689TIP3   OH256557   0.278   5.057  17.433  0.4402  0.5618  0.0193
11689TIP3    H156558   0.215   4.999  17.475  1.3269  0.7681  1.7313
11689TIP3    H256559   0.351   4.999  17.407 -0.5966  0.2280 -2.4602
11690TIP3   OH256560   5.098   1.314   4.159 -0.1396  0.2883 -0.6237
11690TIP3    H156561   5.174   1.329   4.103 -0.6561  0.3616 -1.3169
11690TIP3    H256562   5.133   1.312   4.248  0.3891  2.5033 -0.7441
11691TIP3   OH256563   5.690   0.081   4.285 -0.6138 -0.0690  0.1110
11691TIP3    H156564   5.718   0.019   4.219 -1.7969  0.8322 -1.2984
11691TIP3    H256565   5.727   0.048   4.367 -0.5756 -2.1900 -0.7063
11692TIP3   OH256566   6.376   3.945  12.627  0.5404  0.1295  0.3012
11692TIP3    H156567   6.363   4.033  12.664 -2.7050 -1.5772  3.9033
11692TIP3    H256568   6.462   3.918  12.660  0.7307  1.2538  0.7701
11693TIP3   OH256569   0.715   4.281   3.254  0.2212  0.9884  0.4965
11693TIP3    H156570   0.776   4.351   3.275  1.0470  0.0911  1.1793
11693TIP3    H256571   0.665   4.267   3.335  1.0362 -0.1468  0.8241
11694TIP3   OH256572   1.290   0.566  14.812 -0.2336 -0.2880  0.0936
11694TIP3    H156573   1.384   0.559  14.831 -0.4453 -0.9480  1.0077
11694TIP3    H256574   1.264   0.650  14.848 -0.1865 -0.5637  0.7915
11695TIP3   OH256575   0.060   1.956   0.317 -0.2672 -0.4569 -0.2566
11695TIP3    H156576   0.117   1.965   0.240 -0.3079 -2.6665 -0.6150
11695TIP3    H256577   0.051   2.045   0.350  2.4274  0.1583 -0.8893
11696TIP3   OH256578   0.494   1.148  11.161  0.3953 -0.0803  0.1488
11696TIP3    H156579   0.408   1.129  11.123  0.6272  0.1452 -0.5071
11696TIP3    H256580   0.518   1.069  11.209  1.0434 -1.2543 -1.9730
11697TIP3   OH256581   6.168   5.668  15.521  0.4612 -0.6922  0.3479
11697TIP3    H156582   6.088   5.671  15.574  0.0090 -0.3467 -0.3472
11697TIP3    H256583   6.201   5.758  15.521 -0.6822 -0.2097 -1.6491
11698TIP3   OH256584   2.169   0.400  16.904 -0.0527 -0.5928 -0.1117
11698TIP3    H156585   2.180   0.461  16.977  0.3955  3.2425 -3.0647
11698TIP3    H256586   2.079   0.369  16.911 -0.6873  1.3463  0.9638
11699TIP3   OH256587   6.581   1.506  15.268 -0.1023 -0.8509 -0.8840
11699TIP3    H156588   6.532   1.569  15.214 -0.5698 -0.5507 -0.1288
11699TIP3    H256589   6.633   1.456  15.205  0.4406  0.4280 -1.4968
11700TIP3   OH256590   4.938   3.958   2.155 -0.1733 -0.1245 -0.2141
11700TIP3    H156591   4.843   3.957   2.165 -0.1146  1.2175  0.6589
11700TIP3    H256592   4.953   4.000   2.070 -0.3366  0.6350  0.1308
11701TIP3   OH256593   1.036   6.289  13.086  0.1271 -0.0683  0.5738
11701TIP3    H156594   1.101   6.228  13.122  0.3712 -0.3620 -0.3252
11701TIP3    H256595   0.957   6.236  13.076  0.3510 -0.2620 -0.2471
11702TIP3   OH256596   5.361   0.178   6.314 -0.2851 -0.2778 -0.8838
11702TIP3    H156597   5.289   0.158   6.373 -0.1627  2.8324  0.4990
11702TIP3    H256598   5.432   0.119   6.341 -0.6189  0.2559  1.3184
11703TIP3   OH256599   0.777   6.323   3.901  0.0478  0.1564 -0.1865
11703TIP3    H156600   0.700   6.282   3.940  0.4229  0.2992  0.7495
11703TIP3    H256601   0.755   6.416   3.895  1.2693  0.8223  3.2065
11704TIP3   OH256602   5.665   0.389   1.109  0.3420  0.5602 -0.0435
11704TIP3    H156603   5.575   0.357   1.115  0.3646  0.7402  2.3142
11704TIP3    H256604   5.698   0.382   1.198  1.7515  3.1393 -0.2795
11705TIP3   OH256605   4.326   1.174  14.422  0.8117  0.1163  0.3825
11705TIP3    H156606   4.316   1.203  14.331  2.9562  1.6796  0.5848
11705TIP3    H256607   4.347   1.080  14.415 -2.9045 -0.8247 -0.4503
11706TIP3   OH256608   2.816   6.540  15.302  0.1666  0.1973 -0.6393
11706TIP3    H156609   2.870   6.474  15.347  0.3335  0.7674  0.0216
11706TIP3    H256610   2.880   6.599  15.263  0.0334 -0.5880 -2.1272
11707TIP3   OH256611   3.766   2.228   2.234 -0.0947  0.3899  0.2205
11707TIP3    H156612   3.727   2.315   2.242  1.3458  1.0314  0.7948
11707TIP3    H256613   3.846   2.233   2.287  0.0305 -1.2860  0.2500
11708TIP3   OH256614   1.323   3.559   4.849  0.2690  0.0994  0.4607
11708TIP3    H156615   1.313   3.526   4.938  1.0624 -3.1542 -0.5474
11708TIP3    H256616   1.408   3.603   4.848 -0.2253  1.1254  1.5268
11709TIP3   OH256617   5.492   2.347  13.614 -0.3225 -0.2797  0.3522
11709TIP3    H156618   5.404   2.383  13.631 -0.4006 -0.4031  0.2141
11709TIP3    H256619   5.542   2.370  13.692 -0.5302 -0.3713  0.5137
11710TIP3   OH256620   0.982   1.925  15.893  0.2615 -0.0893 -0.1531
11710TIP3    H156621   1.006   1.970  15.974  1.1380 -0.1763 -0.3531
11710TIP3    H256622   0.888   1.913  15.899  0.3090 -0.0282  0.8237
11711TIP3   OH256623   3.589   4.634   0.682 -0.3112 -0.4035  0.1918
11711TIP3    H156624   3.565   4.607   0.771 -1.1133  2.2981  0.8824
11711TIP3    H256625   3.672   4.680   0.692  1.3765 -2.9042 -1.0557
11712TIP3   OH256626   1.293   2.692   5.468  0.8078 -0.2290 -0.1449
11712TIP3    H156627   1.307   2.635   5.392  1.4766  0.4661 -0.5586
11712TIP3    H256628   1.202   2.676   5.494  0.9009 -1.2755 -0.4156
11713TIP3   OH256629   6.026   1.301  16.499 -0.0397  0.4001  0.1801
11713TIP3    H156630   5.963   1.239  16.461 -0.0281  0.3742  0.2028
11713TIP3    H256631   6.057   1.258  16.578  0.6828  0.0243 -0.3031
11714TIP3   OH256632   1.295   4.041   6.656  0.2086 -0.1451  0.4856
11714TIP3    H156633   1.390   4.050   6.647  0.2447 -1.2220 -0.4457
11714TIP3    H256634   1.266   4.127   6.686  1.3420  0.5602 -0.3297
11715TIP3   OH256635   6.188   0.141   1.048 -0.2915 -0.0997 -0.2108
11715TIP3    H156636   6.123   0.123   0.980 -0.7393  0.0381  0.1782
11715TIP3    H256637   6.162   0.226   1.084  0.9189  0.6315 -0.9909
11716TIP3   OH256638   3.660   1.218  11.425 -0.1039 -0.1897  0.0967
11716TIP3    H156639   3.678   1.300  11.381  1.7376  0.0421  1.1639
11716TIP3    H256640   3.622   1.162  11.358  1.2481  0.6094 -1.3956
11717TIP3   OH256641   5.843   5.857  14.412  0.0596 -0.1055  0.0405
11717TIP3    H156642   5.827   5.831  14.321  0.9839  2.4300 -0.9245
11717TIP3    H256643   5.793   5.937  14.423 -1.2586 -1.1542  2.3157
11718TIP3   OH256644   5.501   4.041   1.596  0.3616 -0.3054  0.2349
11718TIP3    H156645   5.443   4.102   1.641  0.7396  0.2992 -0.0887
11718TIP3    H256646   5.529   3.980   1.665  1.2084  0.8118  0.9032
11719TIP3   OH256647   6.461   5.329  16.187  0.1091 -0.5692  0.4636
11719TIP3    H156648   6.398   5.401  16.189  0.5628 -0.1559  0.0177
11719TIP3    H256649   6.431   5.270  16.256 -0.1732  0.1192  0.9424
11720TIP3   OH256650   0.123   1.438  11.791  0.3164  1.0433 -0.3323
11720TIP3    H156651   0.214   1.423  11.817  1.0888  2.3596 -2.0842
11720TIP3    H256652   0.118   1.404  11.702 -1.3890 -0.5083  0.3127
11721TIP3   OH256653   0.653   5.455   0.920  0.4496 -0.6125  0.1578
11721TIP3    H156654   0.701   5.481   0.841 -0.5071  1.0529  0.0760
11721TIP3    H256655   0.565   5.433   0.887 -0.6865  2.3534  0.9510
11722TIP3   OH256656   0.831   3.520   3.205 -0.0851  0.3240  0.4997
11722TIP3    H156657   0.870   3.560   3.127 -0.7803  0.1350  0.0509
11722TIP3    H256658   0.903   3.471   3.245  0.5314  1.2158  0.5213
11723TIP3   OH256659   6.399   1.325   6.074 -0.2183  0.4867  0.4878
11723TIP3    H156660   6.422   1.378   5.998  0.0276 -0.0854  0.1561
11723TIP3    H256661   6.475   1.330   6.131  0.4145 -0.6955 -0.2140
11724TIP3   OH256662   3.332   6.557  11.091  0.9013 -0.1564  0.2510
11724TIP3    H156663   3.280   6.608  11.029 -0.6615 -1.3386  0.5267
11724TIP3    H256664   3.394   6.620  11.128 -0.5692  1.4032  0.1729
11725TIP3   OH256665   2.191   0.781  13.752 -0.1222  0.0950 -0.1675
11725TIP3    H156666   2.107   0.827  13.745 -0.0536  0.2006 -0.3189
11725TIP3    H256667   2.182   0.725  13.829 -1.6368 -2.5557 -2.0688
11726TIP3   OH256668   5.008   4.750  13.801 -0.7842  0.7815 -0.6457
11726TIP3    H156669   5.002   4.673  13.857 -0.1457  0.8817 -0.4334
11726TIP3    H256670   4.977   4.822  13.856  0.5625  1.0067 -0.1453
11727TIP3   OH256671   5.507   4.799   3.721 -0.1532 -0.3325  0.2228
11727TIP3    H156672   5.414   4.789   3.699 -0.0788  0.6268 -0.5801
11727TIP3    H256673   5.547   4.830   3.640  0.3988  1.8439  1.2669
11728TIP3   OH256674   3.264   6.243   5.575  1.0785  0.2125 -1.2409
11728TIP3    H156675   3.255   6.302   5.650  0.1155 -0.9854 -0.3631
11728TIP3    H256676   3.210   6.282   5.506 -1.3136 -0.6790  0.0273
11729TIP3   OH256677   5.927   4.634   3.780 -0.7700  0.5351  0.0067
11729TIP3    H156678   5.832   4.621   3.784 -0.8860  1.5162  0.9709
11729TIP3    H256679   5.962   4.578   3.850 -0.5356 -0.4591 -0.8732
11730TIP3   OH256680   1.648   1.710   2.956  0.6419  0.4294  0.1079
11730TIP3    H156681   1.736   1.688   2.987  1.5410  1.2628 -1.7432
11730TIP3    H256682   1.656   1.798   2.920 -0.8389  0.3244 -0.5616
11731TIP3   OH256683   1.266   0.055   2.358 -0.5011 -0.6310  0.9229
11731TIP3    H156684   1.318   0.085   2.433 -0.7770  1.4458  0.3603
11731TIP3    H256685   1.319  -0.013   2.317  1.4802  0.9199  0.7828
11732TIP3   OH256686   5.638   2.829   1.698 -0.1659  0.3365 -0.0346
11732TIP3    H156687   5.630   2.865   1.786 -0.0095  2.6778 -0.9017
11732TIP3    H256688   5.549   2.825   1.665 -0.2487 -0.7730  0.2842
11733TIP3   OH256689   2.351   2.032   4.470 -0.2681 -0.2756 -0.2032
11733TIP3    H156690   2.294   2.058   4.542  0.2589 -0.3499  0.2436
11733TIP3    H256691   2.368   1.939   4.485 -1.1227 -0.5933 -1.0923
11734TIP3   OH256692   3.300   3.901   6.242 -0.2923  0.3727 -0.0273
11734TIP3    H156693   3.311   3.835   6.310 -2.8633  2.3513  2.5499
11734TIP3    H256694   3.359   3.972   6.268 -1.0513  1.0176 -0.0520
11735TIP3   OH256695   1.576   5.456  13.625 -0.4344 -0.2067  0.2574
11735TIP3    H156696   1.530   5.535  13.653 -0.8338 -0.7562  1.1707
11735TIP3    H256697   1.563   5.394  13.696  2.0784 -0.2659  0.7395
11736TIP3   OH256698   1.102   6.231  15.350  0.3726 -0.1969  0.5545
11736TIP3    H156699   1.163   6.225  15.277  2.2459 -0.4406  2.0440
11736TIP3    H256700   1.015   6.233  15.310  1.3373  3.7068 -1.9233
11737TIP3   OH256701   3.857   1.230   3.031  0.0867  0.2313 -0.0580
11737TIP3    H156702   3.805   1.254   3.108 -0.8537 -0.4398 -0.4692
11737TIP3    H256703   3.893   1.313   3.000  0.3773  0.5263  1.0337
11738TIP3   OH256704   6.180   3.482   0.296 -0.3007 -0.6011  0.4995
11738TIP3    H156705   6.158   3.497   0.388  1.3452 -1.8618  1.1322
11738TIP3    H256706   6.116   3.417   0.267 -1.0154  0.0182  0.6223
11739TIP3   OH256707   4.763   2.267   3.881  0.2745 -0.5751 -0.5116
11739TIP3    H156708   4.752   2.256   3.786  1.0115  0.9175 -0.7945
11739TIP3    H256709   4.848   2.229   3.900 -0.8504 -3.0762  0.0166
11740TIP3   OH256710   0.502   6.228  16.991 -0.0593 -0.1124 -0.1508
11740TIP3    H156711   0.488   6.149  17.043  0.6659 -1.0344 -1.3063
11740TIP3    H256712   0.594   6.249  17.002 -0.3135  0.7841  0.4015
11741TIP3   OH256713   4.564   4.309  12.680 -0.4491 -0.0392  0.6984
11741TIP3    H156714   4.517   4.232  12.649 -1.1338  0.6175  0.0732
11741TIP3    H256715   4.536   4.319  12.771  0.2554 -0.9789  1.0346
11742TIP3   OH256716   0.920   5.445   1.048 -0.5395 -0.4649 -0.1967
11742TIP3    H156717   0.974   5.508   1.095 -0.2909 -1.1851  0.5193
11742TIP3    H256718   0.831   5.458   1.083 -0.3873 -0.8781  0.3603
11743TIP3   OH256719   5.416   1.101   5.827  0.0934  0.5273 -0.9639
11743TIP3    H156720   5.344   1.141   5.778  0.5573 -0.7044 -2.7301
11743TIP3    H256721   5.372   1.041   5.889 -0.4349  0.7137 -1.1511
11744TIP3   OH256722   3.577   6.274   6.583  0.0586  0.1084  0.4890
11744TIP3    H156723   3.604   6.243   6.669  0.7763 -2.8695 -0.6741
11744TIP3    H256724   3.537   6.198   6.541  2.1353  0.5808 -2.7483
11745TIP3   OH256725   0.835   4.012  13.580  0.3117  0.5358  0.0765
11745TIP3    H156726   0.867   4.004  13.491  1.1263 -3.5002  0.5377
11745TIP3    H256727   0.900   3.967  13.633 -2.1545 -0.8934  2.1155
11746TIP3   OH256728   5.867   4.950   0.264  0.4060  0.0719  0.4533
11746TIP3    H156729   5.839   4.858   0.257  1.8325 -0.2774 -1.5644
11746TIP3    H256730   5.961   4.945   0.276  0.5263  1.2882  0.0994
11747TIP3   OH256731   0.747   4.817  17.399 -0.8659 -0.0631 -0.5685
11747TIP3    H156732   0.659   4.837  17.430 -0.6937 -0.0051 -0.1113
11747TIP3    H256733   0.760   4.724  17.420 -0.2896  0.2759  0.6816
11748TIP3   OH256734   0.243   1.314  15.944  0.4904 -0.3968  0.4390
11748TIP3    H156735   0.219   1.225  15.920 -1.3119  0.3519 -0.7001
11748TIP3    H256736   0.171   1.344  15.999  0.9245  0.4626  0.5543
11749TIP3   OH256737   0.775   4.713   0.813  0.0129  0.0353  0.1565
11749TIP3    H156738   0.796   4.700   0.905 -2.2044  0.4668  0.7964
11749TIP3    H256739   0.720   4.638   0.790 -2.1115  1.4994  0.1733
11750TIP3   OH256740   0.219   0.887  14.821 -0.1227  0.1903  0.5158
11750TIP3    H156741   0.170   0.848  14.894  0.4135 -1.1812  0.1684
11750TIP3    H256742   0.306   0.845  14.826  0.2198  0.7891 -0.3412
11751TIP3   OH256743   5.967   2.691  12.834 -0.0637 -0.2272  0.1487
11751TIP3    H156744   5.971   2.647  12.919  2.4776 -0.1214  0.1617
11751TIP3    H256745   6.042   2.656  12.785 -1.1609  0.1072 -1.8796
11752TIP3   OH256746   1.674   1.469   0.990  0.2868 -0.8532  0.0037
11752TIP3    H156747   1.670   1.505   1.079  2.2888  0.9308 -0.5390
11752TIP3    H256748   1.599   1.509   0.945 -0.2728 -1.1444  0.6503
11753TIP3   OH256749   4.404   2.462   3.793 -0.4780  0.0712  0.0383
11753TIP3    H156750   4.342   2.473   3.721  1.2014 -0.1203 -1.5175
11753TIP3    H256751   4.451   2.545   3.796  0.7456 -0.5822 -0.3842
11754TIP3   OH256752   0.771   4.742  16.744 -0.3015 -0.0842  0.1109
11754TIP3    H156753   0.821   4.661  16.731 -0.1836 -0.0558  0.3708
11754TIP3    H256754   0.699   4.716  16.801 -0.9272 -0.2511 -0.7379
11755TIP3   OH256755   6.255   0.151  12.182  0.5703  0.4869  0.1074
11755TIP3    H156756   6.276   0.177  12.272  0.8185  3.0775 -0.6171
11755TIP3    H256757   6.316   0.080  12.163  2.0883  1.3970  1.2694
11756TIP3   OH256758   6.720   0.450  11.058  0.6757 -0.2651 -0.0249
11756TIP3    H156759   6.692   0.493  11.139  0.8503  1.3337 -0.7730
11756TIP3    H256760   6.812   0.429  11.072  0.0876 -2.3703  1.1259
11757TIP3   OH256761   2.419   5.930   1.229 -0.2404  0.2141  0.4934
11757TIP3    H156762   2.445   5.890   1.312  0.8148 -0.1860 -0.0086
11757TIP3    H256763   2.331   5.895   1.212 -0.0494 -0.4955  0.9329
11758TIP3   OH256764   0.981   3.141   3.271  0.3293 -0.2292 -0.5303
11758TIP3    H156765   1.012   3.144   3.362  0.5402 -0.5437 -0.5911
11758TIP3    H256766   1.058   3.163   3.219  0.7678 -2.1010 -0.7446
11759TIP3   OH256767   5.779   2.423   1.730 -0.2784 -0.1301  1.1019
11759TIP3    H156768   5.684   2.410   1.736 -0.1622 -1.3655  0.5877
11759TIP3    H256769   5.814   2.336   1.712  0.8711  0.4716  0.2744
11760TIP3   OH256770   2.176   0.245  12.411  0.2554 -0.3828  0.3675
11760TIP3    H156771   2.119   0.309  12.453  1.6526  1.7402 -0.7768
11760TIP3    H256772   2.143   0.237  12.322  1.1711  0.1967 -0.0418
11761TIP3   OH256773   0.252   4.107   3.224 -0.2871 -0.2826  0.0384
11761TIP3    H156774   0.167   4.063   3.224 -0.8560  0.7290  1.4085
11761TIP3    H256775   0.294   4.078   3.305  0.0167  0.4169  0.1391
11762TIP3   OH256776   3.222   3.621  16.162 -0.0363  0.5766  0.3828
11762TIP3    H156777   3.261   3.702  16.194 -1.8204  1.4933  0.3698
11762TIP3    H256778   3.172   3.588  16.237 -0.2238  0.0893  0.0470
11763TIP3   OH256779   0.329   1.474  14.548 -0.4615  0.1405  0.0786
11763TIP3    H156780   0.263   1.419  14.507 -0.0441 -0.2656 -0.0607
11763TIP3    H256781   0.412   1.444  14.511 -0.2001  0.6465  0.2449
11764TIP3   OH256782   6.170   4.456   3.335 -0.2207 -0.3496  0.0586
11764TIP3    H156783   6.159   4.527   3.272  0.9466  0.0529  0.2868
11764TIP3    H256784   6.252   4.477   3.380 -1.1349 -0.5054  1.8684
11765TIP3   OH256785   0.039   2.955  11.568  0.1015 -0.3807  0.0273
11765TIP3    H156786   0.068   2.876  11.614 -1.1988 -0.5883  0.5401
11765TIP3    H256787   0.116   3.013  11.570  0.6973 -1.1589  0.7108
11766TIP3   OH256788   2.973   4.996   1.052 -0.0781  0.6119 -0.0228
11766TIP3    H156789   2.949   5.072   0.999  1.5038  1.6241  0.6067
11766TIP3    H256790   2.948   4.921   0.999  2.0136  1.5398 -2.5828
11767TIP3   OH256791   5.453   0.528  11.563  0.3344 -0.5940 -0.1392
11767TIP3    H156792   5.398   0.451  11.556 -1.7316  0.6231  1.5935
11767TIP3    H256793   5.395   0.602  11.543  1.9799  0.6140 -0.7689
11768TIP3   OH256794   4.091   1.777   4.560  1.2233  0.0909  0.0971
11768TIP3    H156795   4.073   1.717   4.633 -1.1806 -1.6628 -1.7827
11768TIP3    H256796   4.173   1.744   4.522  0.6466 -1.2070 -0.0753
11769TIP3   OH256797   4.371   4.229   4.925  0.3322 -0.0662 -0.0997
11769TIP3    H156798   4.439   4.281   4.882 -1.3349  0.7979 -1.8277
11769TIP3    H256799   4.307   4.293   4.957 -0.1852 -0.9041  0.6250
11770TIP3   OH256800   2.289   1.384   5.165 -0.7161  0.4199  0.7192
11770TIP3    H156801   2.203   1.410   5.198 -1.4746 -0.8677 -0.1961
11770TIP3    H256802   2.279   1.292   5.142  0.9828  0.1900  0.8084
11771TIP3   OH256803   3.082   6.331  16.185  0.7814 -0.5449 -0.2338
11771TIP3    H156804   3.048   6.305  16.100 -1.6447 -0.6805  0.6937
11771TIP3    H256805   3.036   6.275  16.248  1.5584  0.4101  1.2601
11772TIP3   OH256806   4.513   0.994  14.624 -0.6809  0.3196  0.2154
11772TIP3    H156807   4.532   0.993  14.530  0.0675 -0.9487  0.3495
11772TIP3    H256808   4.521   1.086  14.650 -2.4936  0.9317 -1.2444
11773TIP3   OH256809   3.334   3.693   4.697 -0.3857  0.0318  0.1895
11773TIP3    H156810   3.422   3.675   4.727 -0.8297  0.0806  1.5844
11773TIP3    H256811   3.336   3.785   4.671  0.0044 -0.0051  0.0893
11774TIP3   OH256812   6.121   4.512   2.891  0.1848 -0.0830  0.6392
11774TIP3    H156813   6.104   4.425   2.929  2.0857  0.0109  1.8086
11774TIP3    H256814   6.056   4.519   2.820 -0.1464 -2.3756  0.6121
11775TIP3   OH256815   3.632   2.349   4.242  0.0790  0.2037  0.0379
11775TIP3    H156816   3.675   2.433   4.228  2.3014 -1.0304 -1.1635
11775TIP3    H256817   3.675   2.313   4.320 -0.0558 -0.2942 -0.1159
11776TIP3   OH256818   6.212   5.353   5.745  0.3654  0.0434  0.0994
11776TIP3    H156819   6.198   5.328   5.837 -1.5779  2.8855  0.7085
11776TIP3    H256820   6.280   5.420   5.749 -1.6352  2.1932 -0.0878
11777TIP3   OH256821   5.580   6.418  16.253  0.0065  0.1795  0.3415
11777TIP3    H156822   5.621   6.484  16.197  0.2909 -1.1074 -1.0553
11777TIP3    H256823   5.554   6.465  16.331  0.2924  1.9166 -0.5580
11778TIP3   OH256824   6.612   3.757  12.729  0.6025  0.2507  0.2732
11778TIP3    H156825   6.681   3.786  12.669 -0.0570  0.9737 -0.1461
11778TIP3    H256826   6.584   3.838  12.774  1.0793 -0.2662  1.5643
11779TIP3   OH256827   6.311   6.664   4.477 -0.1625 -0.2566 -0.4461
11779TIP3    H156828   6.256   6.589   4.497  0.2538 -0.0510  1.6417
11779TIP3    H256829   6.275   6.736   4.528  1.7639 -0.0229  0.6843
11780TIP3   OH256830   4.652   2.175   1.008  0.5872  0.0203  0.1128
11780TIP3    H156831   4.698   2.246   0.964 -0.1824  0.3590 -0.1620
11780TIP3    H256832   4.702   2.160   1.088 -0.3307  2.2644  1.2058
11781TIP3   OH256833   3.612   1.379   2.851  0.2188  0.0678  0.6834
11781TIP3    H156834   3.626   1.351   2.941 -0.0156 -0.6982  0.4905
11781TIP3    H256835   3.635   1.472   2.851 -1.2904  0.4827  1.8971
11782TIP3   OH256836   1.234   4.523   2.973 -0.5901  0.5393  0.6385
11782TIP3    H156837   1.224   4.576   2.894  0.7912  0.1796  0.1990
11782TIP3    H256838   1.152   4.474   2.979 -0.6757  0.4854 -0.6510
11783TIP3   OH256839   4.577   3.189  13.702 -0.1502 -0.2569  0.1491
11783TIP3    H156840   4.511   3.130  13.739 -0.2446  0.1305  0.6036
11783TIP3    H256841   4.564   3.272  13.749  1.1964 -0.4184  0.8508
11784TIP3   OH256842   1.358   3.995   3.031 -0.4301 -0.4061 -0.4596
11784TIP3    H156843   1.294   3.944   2.981 -0.6759 -2.0231  1.3455
11784TIP3    H256844   1.314   4.079   3.046 -0.7951 -0.3020 -1.9315
11785TIP3   OH256845   4.884   5.251   1.091  0.1833  0.6797 -0.4303
11785TIP3    H156846   4.851   5.318   1.151  2.0252  1.1820  0.0823
11785TIP3    H256847   4.895   5.297   1.007  0.0101  0.6323 -0.4786
11786TIP3   OH256848   3.425   0.318  13.936 -0.7937  0.0751 -0.2829
11786TIP3    H156849   3.433   0.398  13.988  0.8431 -0.8131  0.9428
11786TIP3    H256850   3.495   0.326  13.871 -0.2009 -0.6099  0.2500
11787TIP3   OH256851   1.613   5.561  16.441 -0.1777  0.1789  0.3015
11787TIP3    H156852   1.546   5.517  16.389  1.3592 -1.3484 -0.4780
11787TIP3    H256853   1.656   5.490  16.489  0.4516  1.2057  1.2968
11788TIP3   OH256854   6.134   6.210  14.201 -0.0724  0.1998  0.3177
11788TIP3    H156855   6.133   6.191  14.107 -0.5394 -1.6063  0.6354
11788TIP3    H256856   6.121   6.304  14.207  1.8013  0.6269 -1.4629
11789TIP3   OH256857   3.444   6.466  10.820  0.0441 -0.3785  0.3760
11789TIP3    H156858   3.503   6.391  10.823  0.0869 -0.4537 -1.3311
11789TIP3    H256859   3.401   6.466  10.905  0.6762 -1.8146  0.7292
11790TIP3   OH256860   6.721   4.365  16.206  0.0193 -0.1507 -0.4381
11790TIP3    H156861   6.701   4.349  16.299 -0.2239 -0.3383 -0.5221
11790TIP3    H256862   6.801   4.417  16.208 -1.7345  2.7840  0.0162
11791TIP3   OH256863   5.340   0.172  17.232  0.4317 -0.1411  0.2350
11791TIP3    H156864   5.282   0.097  17.248 -0.0232  0.0235 -0.5709
11791TIP3    H256865   5.281   0.244  17.211  0.8803  0.3745  0.7028
11792TIP3   OH256866   3.626   5.074   4.877 -0.1243  0.0491 -0.4061
11792TIP3    H156867   3.605   5.155   4.830  0.1844 -1.1512 -2.7423
11792TIP3    H256868   3.713   5.049   4.845 -0.3322 -1.3443  0.0541
11793TIP3   OH256869   2.796   6.162  12.143 -0.1227  0.3951 -0.6960
11793TIP3    H156870   2.704   6.153  12.119 -0.2919  1.1846 -0.3854
11793TIP3    H256871   2.832   6.074  12.135 -2.0196 -1.0946  3.6627
11794TIP3   OH256872   1.384   4.589  11.050 -0.1461  0.3162 -0.1690
11794TIP3    H156873   1.421   4.551  11.130 -0.5665  0.5826  0.1546
11794TIP3    H256874   1.404   4.524  10.982 -0.7116 -0.4203  0.3459
11795TIP3   OH256875   4.129   4.940  16.289  0.0679 -0.1284 -0.3853
11795TIP3    H156876   4.048   4.990  16.288  1.0187  1.4871 -0.3721
11795TIP3    H256877   4.137   4.905  16.200  1.0996  2.7334 -1.5231
11796TIP3   OH256878   6.422   2.902  11.357  0.0868 -0.2820  0.1532
11796TIP3    H156879   6.350   2.838  11.351 -2.6604  2.6160 -0.5418
11796TIP3    H256880   6.436   2.931  11.267 -0.3197  1.6424  0.6689
11797TIP3   OH256881   6.388   1.467  15.030 -0.3823  0.7526 -0.0645
11797TIP3    H156882   6.467   1.448  14.980 -0.0646 -0.1592  0.7427
11797TIP3    H256883   6.321   1.409  14.993 -0.3180  0.5535  0.1275
11798TIP3   OH256884   1.256   3.863  14.766  0.4740  0.3719 -0.1672
11798TIP3    H156885   1.192   3.792  14.769 -1.4805  2.0389  0.1915
11798TIP3    H256886   1.312   3.848  14.842 -0.5278 -0.2568  0.4796
11799TIP3   OH256887   5.702   4.369   3.962  0.1638  0.7441 -0.1031
11799TIP3    H156888   5.718   4.421   4.041 -2.1200  0.6838  0.4638
11799TIP3    H256889   5.712   4.431   3.890  1.3208  1.0149  0.2614
11800TIP3   OH256890   3.478   5.495   2.128 -0.4489  0.3944  0.2543
11800TIP3    H156891   3.522   5.536   2.054 -2.7671 -0.9060 -2.0083
11800TIP3    H256892   3.409   5.557   2.153 -0.6334  0.1653  0.3226
11801TIP3   OH256893   1.969   4.726   4.559 -0.1178 -0.3941 -0.1144
11801TIP3    H156894   2.040   4.726   4.623 -1.2616  0.5970  1.1862
11801TIP3    H256895   2.008   4.767   4.481  0.8494 -0.2612  0.4177
11802TIP3   OH256896   0.219   4.702   5.322 -0.0297 -0.7727 -0.5497
11802TIP3    H156897   0.198   4.667   5.408 -0.9627 -1.2274 -0.9543
11802TIP3    H256898   0.303   4.747   5.334  0.5220 -1.9846  0.2776
11803TIP3   OH256899   1.963   5.203   1.930 -0.0693 -0.3152 -0.5940
11803TIP3    H156900   1.871   5.218   1.906 -0.2919 -0.1665  0.3152
11803TIP3    H256901   2.005   5.177   1.848 -0.8657 -0.1204 -1.0761
11804TIP3   OH256902   2.023   0.877  16.480  0.2319  0.2117  0.2478
11804TIP3    H156903   1.953   0.816  16.459 -0.7989  1.5677 -0.4174
11804TIP3    H256904   2.030   0.875  16.576 -0.3369 -0.3444  0.2776
11805TIP3   OH256905   3.625   0.646   6.051  0.1140  0.4812 -0.1318
11805TIP3    H156906   3.712   0.670   6.080  0.5512 -0.3318 -0.7403
11805TIP3    H256907   3.602   0.569   6.103 -0.0305  0.3940 -0.3206
11806TIP3   OH256908   6.093   1.777  16.879  0.2195  0.1062 -0.3332
11806TIP3    H156909   6.071   1.787  16.971  0.5729 -2.0092  0.0301
11806TIP3    H256910   6.011   1.797  16.833 -1.0189 -2.1398  0.6822
11807TIP3   OH256911   4.089   0.138   6.087  0.0500  0.3874  0.5287
11807TIP3    H156912   4.061   0.201   6.153 -3.2119  1.6318 -1.7563
11807TIP3    H256913   4.018   0.074   6.084  0.3834  0.0606 -1.3504
11808TIP3   OH256914   5.947   6.533  14.101 -0.1187  0.1775 -0.0786
11808TIP3    H156915   5.854   6.510  14.109 -0.4593  1.2342 -0.8539
11808TIP3    H256916   5.957   6.563  14.011  1.3964 -1.6720 -0.6027
11809TIP3   OH256917   1.922   2.230   1.595 -0.1422 -0.4706 -0.2750
11809TIP3    H156918   1.919   2.268   1.507  0.2208  0.7404  0.2154
11809TIP3    H256919   1.965   2.297   1.649  0.2349 -1.4549  0.6976
11810TIP3   OH256920   0.734   0.951  15.234  0.7974 -0.2666 -0.7874
11810TIP3    H156921   0.783   0.908  15.304 -0.2079 -1.4450 -0.7603
11810TIP3    H256922   0.766   1.041  15.233  1.4770 -0.4701  0.5837
11811TIP3   OH256923   1.582   5.100  14.311  0.0838 -0.0681 -0.0347
11811TIP3    H156924   1.548   5.012  14.328 -1.0519  0.5736  1.2526
11811TIP3    H256925   1.610   5.132  14.397  0.4261  0.8462 -0.4699
11812TIP3   OH256926   4.927   5.468  15.237  0.6156 -1.0330  0.3125
11812TIP3    H156927   4.881   5.547  15.266 -1.8121 -1.7169 -1.3553
11812TIP3    H256928   5.019   5.484  15.259 -0.1584  1.0765  2.4475
11813TIP3   OH256929   6.654   2.102  13.141  0.2192  0.3669  0.1151
11813TIP3    H156930   6.684   2.180  13.094  0.2063  0.8817  0.9404
11813TIP3    H256931   6.702   2.104  13.224 -0.7544  0.2234  0.7008
11814TIP3   OH256932   1.769   1.378   4.502 -0.2053  0.1670  0.2713
11814TIP3    H156933   1.749   1.363   4.594 -1.4865 -0.1162 -0.0340
11814TIP3    H256934   1.690   1.420   4.466 -0.2573 -0.9349 -0.9820
11815TIP3   OH256935   0.951   4.095   3.268  0.1082  0.3823 -0.3578
11815TIP3    H156936   0.902   4.159   3.218  0.9206 -0.1007 -1.8194
11815TIP3    H256937   1.043   4.117   3.253  0.4209 -1.2331 -1.1127
11816TIP3   OH256938   2.555   1.501   5.156 -0.2817  0.3237 -0.2225
11816TIP3    H156939   2.465   1.469   5.159  0.0408 -0.9409 -2.2452
11816TIP3    H256940   2.601   1.440   5.098  2.1847  0.2508  1.6186
11817TIP3   OH256941   2.823   3.755  14.790  0.3183 -0.1513  0.0788
11817TIP3    H156942   2.915   3.736  14.774  0.0261 -0.6502 -1.0841
11817TIP3    H256943   2.784   3.670  14.813  0.3507  0.2385  1.7127
11818TIP3   OH256944   6.604   2.321   4.800  1.1646 -0.7834  0.5970
11818TIP3    H156945   6.694   2.306   4.830  0.9972  0.6705  1.9479
11818TIP3    H256946   6.549   2.278   4.865  0.8197  1.6130  1.9785
11819TIP3   OH256947   0.759   0.783  11.939 -0.0123 -0.1207  0.0743
11819TIP3    H156948   0.790   0.701  11.899  1.1157  0.1185  0.4065
11819TIP3    H256949   0.675   0.801  11.897  0.5914 -0.4853 -1.3406
11820TIP3   OH256950   5.670   3.762   2.399  0.3112 -0.2185  0.5475
11820TIP3    H156951   5.626   3.792   2.478  0.5768 -0.8530  0.9388
11820TIP3    H256952   5.614   3.793   2.327 -0.6674 -0.8315  1.0235
11821TIP3   OH256953   4.084   4.217   0.851  0.0766 -0.8234 -0.0346
11821TIP3    H156954   4.085   4.287   0.916  0.4813 -0.3986 -0.4970
11821TIP3    H256955   4.012   4.160   0.879 -0.5844  0.0320  0.0702
11822TIP3   OH256956   3.633   5.012  16.769 -0.4425  0.3151 -0.5004
11822TIP3    H156957   3.707   5.041  16.822 -0.3885  1.4748 -1.1779
11822TIP3    H256958   3.575   4.968  16.831  0.3699  0.2150  0.2125
11823TIP3   OH256959   3.459   1.173  12.288 -0.4435 -1.0664 -0.6011
11823TIP3    H156960   3.394   1.243  12.294  1.8102  1.0644  1.5284
11823TIP3    H256961   3.424   1.104  12.345 -0.8447  0.0855  0.6254
11824TIP3   OH256962   6.546   1.384   3.016 -0.0380  0.3746 -0.1832
11824TIP3    H156963   6.539   1.368   2.922  0.0136  0.2412 -0.1655
11824TIP3    H256964   6.637   1.362   3.037 -0.3129 -0.5881  0.0776
11825TIP3   OH256965   5.165   6.521  14.642  0.3223 -0.5385 -0.0281
11825TIP3    H156966   5.244   6.545  14.692  1.1441 -0.7944 -1.1683
11825TIP3    H256967   5.137   6.603  14.601 -0.4903 -0.2781  0.9932
11826TIP3   OH256968   5.368   5.936  16.494  0.3557  0.1963 -0.1568
11826TIP3    H156969   5.277   5.917  16.519  0.1642 -0.2390 -1.1415
11826TIP3    H256970   5.362   5.964  16.403  1.2371  0.0172 -0.2729
11827TIP3   OH256971   5.373   3.059  14.507 -0.0996  0.2037  0.1038
11827TIP3    H156972   5.417   3.073  14.423  1.2322  0.3671  0.8063
11827TIP3    H256973   5.297   3.005  14.485 -0.0377  0.6261 -1.2634
11828TIP3   OH256974   4.567   4.067   2.002 -0.2112 -0.2461  0.3096
11828TIP3    H156975   4.611   4.151   2.018  2.7040 -1.9559  2.0978
11828TIP3    H256976   4.510   4.056   2.078  0.0188 -0.2743  0.4766
11829TIP3   OH256977   6.710   1.377   0.578 -0.0204 -0.0156  0.1024
11829TIP3    H156978   6.625   1.334   0.567  0.2594 -0.3481 -0.9388
11829TIP3    H256979   6.735   1.360   0.669 -2.0434  1.9430  1.1236
11830TIP3   OH256980   0.555   3.860   2.119  0.6973  0.2964  0.2446
11830TIP3    H156981   0.611   3.872   2.196 -0.4416  2.1698  0.8536
11830TIP3    H256982   0.467   3.848   2.155 -0.1024  2.7232 -0.7106
11831TIP3   OH256983   1.010   2.204   2.283  0.2704 -0.4504  0.7219
11831TIP3    H156984   0.936   2.154   2.318 -0.3552  0.5446  0.8676
11831TIP3    H256985   0.971   2.262   2.217  0.7623  0.6931  1.3979
11832TIP3   OH256986   5.836   5.739   1.997  0.4163  0.1751  0.3231
11832TIP3    H156987   5.919   5.771   2.034  0.0219  2.2033 -0.4452
11832TIP3    H256988   5.832   5.777   1.910 -0.8302 -0.8144 -0.0844
11833TIP3   OH256989   5.618   2.962  11.229  0.3974  0.6317  0.5414
11833TIP3    H156990   5.670   3.038  11.253  1.1692 -0.1803  1.5608
11833TIP3    H256991   5.582   2.930  11.312 -0.9170  0.5797 -0.0206
11834TIP3   OH256992   4.860   5.739  15.327  0.3060  0.0404 -0.1918
11834TIP3    H156993   4.790   5.758  15.264 -0.1877  2.9772  1.1051
11834TIP3    H256994   4.940   5.767  15.283  0.2882 -0.2973 -0.4466
11835TIP3   OH256995   4.597   1.005  16.072 -0.3075  0.4245 -0.2851
11835TIP3    H156996   4.566   0.917  16.094  1.4551  0.2463  1.7994
11835TIP3    H256997   4.689   0.993  16.051 -0.1393  1.7492 -0.3549
11836TIP3   OH256998   3.187   0.710  13.955  0.2686 -0.0052 -0.1164
11836TIP3    H156999   3.159   0.674  14.040 -1.2603 -0.0815 -0.6145
11836TIP3    H257000   3.236   0.789  13.978 -0.7170  0.3654  0.8542
11837TIP3   OH257001   1.148   5.762  15.801 -0.5892 -0.7599  0.0678
11837TIP3    H157002   1.109   5.838  15.758  1.5145  0.7498  0.6911
11837TIP3    H257003   1.205   5.798  15.867  2.2936 -2.7703 -1.1155
11838TIP3   OH257004   4.962   3.123  11.853  0.1068  0.4459 -0.6250
11838TIP3    H157005   4.927   3.037  11.829 -0.0383  0.1009  0.7614
11838TIP3    H257006   4.995   3.159  11.771  0.5449 -1.1066 -1.1612
11839TIP3   OH257007   5.095   5.913   5.300 -0.1374 -0.7973  0.6981
11839TIP3    H157008   5.171   5.857   5.314  2.2420  1.2897 -2.3606
11839TIP3    H257009   5.056   5.882   5.218  0.0011  0.6753  0.0349
11840TIP3   OH257010   0.348   4.231  14.081  0.0935 -0.2334  0.2922
11840TIP3    H157011   0.359   4.249  14.174  0.5042  1.8916 -0.1205
11840TIP3    H257012   0.253   4.237  14.066  0.1483  0.9511  0.3225
11841TIP3   OH257013   1.741   3.026   4.769  0.0294 -0.3231 -0.4377
11841TIP3    H157014   1.781   3.074   4.697 -0.1678 -0.5864 -0.7246
11841TIP3    H257015   1.662   3.077   4.790 -0.5662 -0.8955 -1.2163
11842TIP3   OH257016   5.419   5.522   3.427  0.0626 -0.3581  0.2349
11842TIP3    H157017   5.422   5.539   3.521 -1.4357 -0.6250  0.3454
11842TIP3    H257018   5.353   5.453   3.416  1.3544 -1.4974 -0.8663
11843TIP3   OH257019   0.757   3.106  11.862 -0.3834 -0.4082 -0.1495
11843TIP3    H157020   0.822   3.113  11.791  1.3232  2.5730  1.5173
11843TIP3    H257021   0.808   3.083  11.939 -1.5434  0.4548  0.9109
11844TIP3   OH257022   3.963   1.031   5.516  0.0405 -0.2525 -0.3555
11844TIP3    H157023   3.987   1.110   5.565  0.8724  0.3657 -1.7118
11844TIP3    H257024   3.994   0.959   5.571 -0.6807  0.3347  0.8818
11845TIP3   OH257025   1.432   3.278   2.906  0.3105  0.4302  0.2674
11845TIP3    H157026   1.359   3.230   2.944  0.8046 -0.8391 -0.3547
11845TIP3    H257027   1.445   3.352   2.965 -0.0989 -0.5014  1.5645
11846TIP3   OH257028   4.538   4.023  15.079  0.2030 -0.0030 -0.0117
11846TIP3    H157029   4.443   4.014  15.088 -0.1677  1.7199 -1.5503
11846TIP3    H257030   4.566   4.063  15.161 -0.6927  1.0510 -0.1872
11847TIP3   OH257031   4.475   3.960  10.553  0.2675  0.4187  0.1409
11847TIP3    H157032   4.437   3.907  10.484  1.0083 -0.7850  0.6208
11847TIP3    H257033   4.400   4.004  10.594 -0.1374  1.4961 -1.6538
11848TIP3   OH257034   4.714   5.502  11.972 -0.1035  0.2497  0.0468
11848TIP3    H157035   4.704   5.437  12.042  0.2855 -1.0840 -1.1080
11848TIP3    H257036   4.793   5.551  11.996 -0.8911  0.9451  1.3893
11849TIP3   OH257037   4.144   1.438   3.757 -0.5214 -0.8330 -0.1327
11849TIP3    H157038   4.191   1.355   3.765 -0.2483 -0.4771  3.1910
11849TIP3    H257039   4.210   1.500   3.727  0.1792 -1.1151  0.7964
11850TIP3   OH257040   3.674   6.230  14.917 -0.5342  0.0110  0.1495
11850TIP3    H157041   3.631   6.155  14.876  1.5379 -2.5830  2.3529
11850TIP3    H257042   3.668   6.300  14.852  0.0048 -2.8918 -3.3359
11851TIP3   OH257043   1.873   2.391  13.267  0.1263  0.1774 -0.1098
11851TIP3    H157044   1.864   2.455  13.338  1.7826 -0.0497  0.3401
11851TIP3    H257045   1.915   2.315  13.308  1.3905  0.1528 -1.3784
11852TIP3   OH257046   5.105   1.607  16.001 -0.3466  0.3501 -0.9554
11852TIP3    H157047   5.184   1.567  16.036 -0.8893 -1.2356 -1.4869
11852TIP3    H257048   5.039   1.596  16.069 -0.7606 -0.5760 -1.4944
11853TIP3   OH257049   1.625   4.665  13.461 -0.0397  0.0505  0.3016
11853TIP3    H157050   1.602   4.620  13.542 -0.1029 -1.2750 -0.4351
11853TIP3    H257051   1.720   4.657  13.455 -0.1155 -0.5552 -0.1502
11854TIP3   OH257052   4.031   6.715  12.790  0.1301  0.1110 -0.3003
11854TIP3    H157053   4.006   6.747  12.876 -0.4189 -1.5426  0.1874
11854TIP3    H257054   4.113   6.667  12.804  0.6952  0.8601 -0.9265
11855TIP3   OH257055   6.309   6.236   0.300 -0.2903 -0.0170 -0.1472
11855TIP3    H157056   6.294   6.325   0.332  0.3404 -0.1817  0.6521
11855TIP3    H257057   6.403   6.233   0.281 -0.3328 -0.4652 -0.2977
11856TIP3   OH257058   5.026   5.392  14.988  0.2674 -0.0347  0.1352
11856TIP3    H157059   4.995   5.397  15.078  1.0061 -0.2921  0.4162
11856TIP3    H257060   5.065   5.478  14.972 -0.4480  0.2402 -0.1688
11857TIP3   OH257061   1.584   2.389   1.303  0.2805  0.4971  0.0635
11857TIP3    H157062   1.633   2.404   1.384 -0.6816  0.4416  0.6628
11857TIP3    H257063   1.535   2.469   1.289  0.5693  0.5691 -0.5674
11858TIP3   OH257064   6.203   4.227  15.885  0.5873  0.2854  0.0289
11858TIP3    H157065   6.146   4.304  15.894  0.1308  0.1279 -1.2852
11858TIP3    H257066   6.260   4.249  15.811  1.2482 -0.1677  0.3989
11859TIP3   OH257067   5.089   5.738  13.070 -0.3657 -0.6770 -0.1215
11859TIP3    H157068   5.044   5.799  13.012  0.1483  1.8668  1.9846
11859TIP3    H257069   5.173   5.722  13.026 -0.4124  0.3636 -0.6315
11860TIP3   OH257070   5.007   6.037  14.338 -0.2156 -0.3362 -0.5670
11860TIP3    H157071   4.947   6.020  14.265 -2.3291 -0.7165  1.1712
11860TIP3    H257072   4.969   5.991  14.413  1.8038  0.1434  0.8479
11861TIP3   OH257073   2.120   2.828   1.224  0.2223  0.2589 -0.0625
11861TIP3    H157074   2.215   2.822   1.211 -0.0080  0.3241 -2.1801
11861TIP3    H257075   2.096   2.744   1.262  1.2447  0.6565  1.5418
11862TIP3   OH257076   3.699   3.400  15.803  0.1724 -0.2634 -0.5810
11862TIP3    H157077   3.744   3.364  15.726 -0.6993 -0.5964 -0.9632
11862TIP3    H257078   3.654   3.478  15.770 -1.4111 -1.2113 -0.8073
11863TIP3   OH257079   5.628   0.022   2.141  0.5934  0.0689 -0.5660
11863TIP3    H157080   5.681   0.101   2.134  1.5963 -0.2938  1.9231
11863TIP3    H257081   5.558   0.045   2.202  1.0691 -1.0069  0.4227
11864TIP3   OH257082   2.149   5.391   1.824  0.1021 -0.3966  0.2405
11864TIP3    H157083   2.102   5.465   1.787  0.1512 -1.2938 -1.7252
11864TIP3    H257084   2.081   5.331   1.855  0.0354 -0.1729  0.5281
11865TIP3   OH257085   0.965   5.058   4.434 -0.5342  0.6089  0.1558
11865TIP3    H157086   1.003   5.077   4.520  0.8720  1.5472 -0.6323
11865TIP3    H257087   0.901   4.989   4.451  1.5862 -1.1515  1.5707
11866TIP3   OH257088   5.208   4.464  12.845 -0.0423  0.0228 -0.3456
11866TIP3    H157089   5.170   4.490  12.761  1.6017 -0.8542 -1.4200
11866TIP3    H257090   5.290   4.513  12.850  0.1288 -0.3283  0.5053
11867TIP3   OH257091   2.800   1.891   0.976  0.0260  0.0965 -0.0688
11867TIP3    H157092   2.722   1.894   1.030  0.5109 -0.8469  0.7115
11867TIP3    H257093   2.856   1.960   1.011  0.7460 -1.1302  1.3351
11868TIP3   OH257094   3.554   2.655   2.205  0.2331  0.2384 -0.3090
11868TIP3    H157095   3.496   2.614   2.140  0.5709 -0.4759 -0.1623
11868TIP3    H257096   3.642   2.635   2.174  0.3965 -0.5278  0.6402
11869TIP3   OH257097   1.816   2.584  11.741  0.1817  0.1976  0.8594
11869TIP3    H157098   1.810   2.589  11.645 -0.9311  0.6526  0.9381
11869TIP3    H257099   1.760   2.655  11.772  0.1383 -0.2597  1.8583
11870TIP3   OH257100   3.324   5.130  12.480 -0.0935 -0.1467  0.4982
11870TIP3    H157101   3.364   5.053  12.438  0.0431  0.1511  0.0785
11870TIP3    H257102   3.395   5.192  12.488  0.1058 -0.5541  2.0619
11871TIP3   OH257103   6.279   6.635  13.282 -0.4932  0.0243  0.5023
11871TIP3    H157104   6.344   6.565  13.285 -0.2005  0.2938  0.6055
11871TIP3    H257105   6.320   6.703  13.229 -0.2594  0.6144  1.4004
11872TIP3   OH257106   0.722   0.165  17.098  0.2083  0.5492 -0.5228
11872TIP3    H157107   0.675   0.236  17.141  1.5642  1.0409  0.2061
11872TIP3    H257108   0.810   0.200  17.083  0.5996 -0.6204 -1.0905
11873TIP3   OH257109   0.993   1.317   2.789 -0.0177 -0.1446 -0.2106
11873TIP3    H157110   0.984   1.412   2.782 -0.0816 -0.2244 -1.5559
11873TIP3    H257111   1.079   1.298   2.752 -0.1135 -0.6333 -0.1856
11874TIP3   OH257112   1.537   1.767   2.387 -0.1355 -0.3252  0.2621
11874TIP3    H157113   1.478   1.837   2.416  0.2008 -0.1803  0.6133
11874TIP3    H257114   1.576   1.734   2.468 -0.3281 -0.9607  0.1064
11875TIP3   OH257115   3.544   2.849   3.264 -0.5153 -0.3637  0.5688
11875TIP3    H157116   3.562   2.780   3.328 -0.0571 -0.2955  0.5130
11875TIP3    H257117   3.624   2.902   3.263 -0.1965 -0.8519 -0.6845
11876TIP3   OH257118   5.378   5.856   3.710 -0.5548  0.1483  0.3509
11876TIP3    H157119   5.370   5.761   3.712 -1.1484  0.1316 -1.5816
11876TIP3    H257120   5.436   5.875   3.637 -0.7147  1.2978  0.4912
11877TIP3   OH257121   6.497   2.325   1.723 -0.4324 -0.3213 -0.1530
11877TIP3    H157122   6.583   2.366   1.727 -0.0143 -1.0151 -1.4400
11877TIP3    H257123   6.504   2.246   1.775 -1.2035  1.0762  2.2292
11878TIP3   OH257124   2.795   1.245   3.092  0.9734 -0.0827 -0.3468
11878TIP3    H157125   2.858   1.295   3.143  1.1801 -0.7047  0.0118
11878TIP3    H257126   2.780   1.298   3.013  1.4510  0.3705 -0.1342
11879TIP3   OH257127   0.231   2.955  12.574  0.1702  0.3824 -0.2453
11879TIP3    H157128   0.239   2.871  12.620 -0.5109  0.0427 -0.7384
11879TIP3    H257129   0.268   3.019  12.635 -2.1245  0.1729  1.4909
11880TIP3   OH257130   2.593   2.242   0.661 -0.3309  0.4398 -0.3007
11880TIP3    H157131   2.595   2.149   0.683 -0.0100  0.7254  0.9247
11880TIP3    H257132   2.527   2.279   0.720  0.4984  1.2178  0.1599
11881TIP3   OH257133   0.140   6.351   1.486  0.6237 -0.1460  0.0340
11881TIP3    H157134   0.137   6.281   1.421  0.0301 -0.3304  0.2576
11881TIP3    H257135   0.049   6.364   1.512  0.4311  2.2660 -1.6386
11882TIP3   OH257136   0.500   3.448  12.609 -0.4938  0.2104 -0.2741
11882TIP3    H157137   0.477   3.531  12.649  0.7720  0.3906  0.1386
11882TIP3    H257138   0.593   3.457  12.589 -0.6818 -0.5480 -1.6098
11883TIP3   OH257139   0.467   3.380  13.641 -0.2100 -0.3699  0.6082
11883TIP3    H157140   0.390   3.393  13.696  0.0884  2.1247  0.5547
11883TIP3    H257141   0.432   3.360  13.555 -0.7662 -0.8723  0.9455
11884TIP3   OH257142   4.724   6.202   2.593 -0.1981  0.1737 -0.0216
11884TIP3    H157143   4.636   6.188   2.626  0.4044 -0.3859  1.4014
11884TIP3    H257144   4.712   6.217   2.499 -1.7935  0.1316  0.1490
11885TIP3   OH257145   3.019   3.068   1.194  0.0014  0.6706  0.0408
11885TIP3    H157146   3.079   2.996   1.176 -1.2289 -0.1432 -0.9978
11885TIP3    H257147   3.057   3.113   1.269 -0.8924 -3.0802  3.0076
11886TIP3   OH257148   1.133   6.131  15.887 -0.0111 -0.1267 -0.0284
11886TIP3    H157149   1.161   6.088  15.967  2.6409 -0.1630 -0.8952
11886TIP3    H257150   1.104   6.218  15.916  2.3318  0.4248  0.8730
11887TIP3   OH257151   6.027   6.564   4.452 -0.2166  0.0992  0.2606
11887TIP3    H157152   5.990   6.577   4.540 -1.6340 -0.0535 -0.2789
11887TIP3    H257153   5.952   6.575   4.393  0.6013 -0.3567 -0.8985
11888TIP3   OH257154   0.949   2.775  15.194  0.2960 -0.0032  0.4112
11888TIP3    H157155   0.900   2.779  15.276  1.1184 -2.2039  1.1177
11888TIP3    H257156   1.016   2.842  15.203 -1.4202  1.8028  0.2088
11889TIP3   OH257157   4.076   6.416  13.857 -0.0538  0.2386  0.2730
11889TIP3    H157158   4.050   6.349  13.793 -1.6330  0.6772  0.4108
11889TIP3    H257159   4.128   6.479  13.807  0.8665 -0.7085 -0.0055
11890TIP3   OH257160   1.871   5.667   4.190 -0.2133  0.0274 -0.0279
11890TIP3    H157161   1.827   5.689   4.108 -0.8867 -2.1643 -0.3213
11890TIP3    H257162   1.901   5.577   4.179 -0.1668 -0.2806  2.0519
11891TIP3   OH257163   1.796   1.718   4.486  0.1935  0.0584 -0.4149
11891TIP3    H157164   1.732   1.668   4.436 -0.6433 -0.0096  0.6779
11891TIP3    H257165   1.855   1.755   4.421 -1.9942  1.5836 -1.6258
11892TIP3   OH257166   3.202   2.078  12.599 -0.3610  0.2584 -0.4513
11892TIP3    H157167   3.181   1.985  12.588 -0.4313  0.0712  1.1049
11892TIP3    H257168   3.122   2.124  12.573 -0.6091 -0.1605 -0.4403
11893TIP3   OH257169   3.149   1.030  15.765  0.6657  0.0422 -0.2665
11893TIP3    H157170   3.164   0.990  15.851  1.1042 -0.9961 -0.8094
11893TIP3    H257171   3.135   1.122  15.784 -0.7872 -0.4093  1.0817
11894TIP3   OH257172   6.691   5.348  15.184  0.1758 -0.6907  0.3816
11894TIP3    H157173   6.658   5.390  15.263  0.7525 -2.5489  1.6866
11894TIP3    H257174   6.709   5.258  15.211  2.5301 -0.8145 -1.2577
11895TIP3   OH257175   2.780   4.390  13.572  0.3823  0.0934  0.0052
11895TIP3    H157176   2.788   4.298  13.546 -1.8766 -0.2305  0.2781
11895TIP3    H257177   2.870   4.422  13.575  1.2116 -2.0831 -0.1607
11896TIP3   OH257178   1.500   0.714  14.974 -0.0807 -0.6241 -0.4993
11896TIP3    H157179   1.573   0.760  15.015 -1.4603 -0.5033  1.9762
11896TIP3    H257180   1.447   0.683  15.047 -1.5827 -2.2709 -2.1942
11897TIP3   OH257181   0.178   2.272  13.539  0.0123 -0.1074 -0.0612
11897TIP3    H157182   0.159   2.191  13.492  1.1822 -0.4801  0.0840
11897TIP3    H257183   0.121   2.269  13.616 -0.8020 -0.2213 -0.6601
11898TIP3   OH257184   4.038   3.951   3.033  1.2405  0.2048  0.4055
11898TIP3    H157185   4.131   3.949   3.009  0.8847  2.2427 -1.5606
11898TIP3    H257186   4.036   4.003   3.114  1.8072  0.4745  0.2587
11899TIP3   OH257187   0.606   5.350   0.101  0.0424  0.5431  0.0236
11899TIP3    H157188   0.661   5.273   0.120 -0.6235 -0.1439 -0.7486
11899TIP3    H257189   0.559   5.326   0.021  0.0505  1.8938 -0.4027
11900TIP3   OH257190   4.191   5.995  12.016  0.2222 -0.4432 -0.2348
11900TIP3    H157191   4.096   5.987  12.013  0.2050 -0.0466 -1.2367
11900TIP3    H257192   4.222   5.905  12.029 -0.2568 -0.8049 -1.3824
11901TIP3   OH257193   3.772   1.649  15.525 -0.3433  0.2469 -0.2708
11901TIP3    H157194   3.786   1.581  15.459 -1.6839  0.1830 -0.5229
11901TIP3    H257195   3.852   1.700  15.525  0.5886 -1.1747 -0.2670
11902TIP3   OH257196   1.450   4.403   0.155 -0.3652 -0.1281 -0.4854
11902TIP3    H157197   1.373   4.448   0.121  0.0209  2.0022  1.2200
11902TIP3    H257198   1.471   4.449   0.236  2.5034 -0.8515 -0.7035
11903TIP3   OH257199   0.481   0.773   3.973 -0.5147 -0.3612  0.2086
11903TIP3    H157200   0.479   0.681   3.999  2.4613 -0.5680  0.0874
11903TIP3    H257201   0.513   0.820   4.050 -0.1548  0.2888 -0.3236
11904TIP3   OH257202   4.795   3.382   1.314  0.2645  0.0758 -0.2714
11904TIP3    H157203   4.869   3.405   1.258 -0.0343  0.3948 -0.5406
11904TIP3    H257204   4.788   3.454   1.376 -0.1757  0.3263 -0.6096
11905TIP3   OH257205   2.716   3.335   0.480 -0.3872  0.1691 -0.2781
11905TIP3    H157206   2.635   3.294   0.508  0.3156 -1.1384 -0.0808
11905TIP3    H257207   2.695   3.376   0.396 -1.0319 -0.9264 -0.6668
11906TIP3   OH257208   1.023   4.957   1.784  0.5236 -0.3287  0.0975
11906TIP3    H157209   1.096   4.903   1.754  0.1006 -0.7586 -0.1605
11906TIP3    H257210   1.027   4.951   1.880  1.4450  0.4822  0.1291
11907TIP3   OH257211   3.020   0.362  16.078  0.2699  0.1952 -0.4821
11907TIP3    H157212   2.944   0.413  16.049 -1.7454 -1.9381  0.6764
11907TIP3    H257213   3.061   0.416  16.145 -1.2522  0.7432  0.0554
11908TIP3   OH257214   5.075   5.680   3.700 -0.2013  0.1579 -0.0395
11908TIP3    H157215   4.980   5.671   3.700 -0.2693  0.6785  1.5288
11908TIP3    H257216   5.107   5.597   3.736  0.0195 -0.4457 -1.5498
11909TIP3   OH257217   5.524   0.734  14.211 -0.0578 -0.0959  0.1986
11909TIP3    H157218   5.519   0.821  14.173 -2.0025 -0.2378  0.0467
11909TIP3    H257219   5.441   0.722  14.256  0.0442 -1.9811 -0.0229
11910TIP3   OH257220   5.257   1.996   1.194 -0.1453  0.2787 -0.0546
11910TIP3    H157221   5.321   2.015   1.263 -1.5118 -1.3288  1.7905
11910TIP3    H257222   5.286   1.912   1.157  0.7020  1.2370 -1.6628
11911TIP3   OH257223   1.193   6.242   2.005 -0.5904 -0.1694 -0.5145
11911TIP3    H157224   1.255   6.312   2.025 -0.8989 -0.2671  0.9159
11911TIP3    H257225   1.216   6.213   1.917  1.0527  0.1446 -0.2202
11912TIP3   OH257226   4.920   5.576   2.087 -0.1435  0.4580  0.1668
11912TIP3    H157227   4.831   5.569   2.053 -0.9067  1.0336  1.8960
11912TIP3    H257228   4.947   5.485   2.104 -0.3968  0.2842 -0.3569
11913TIP3   OH257229   0.714   3.207  12.471  0.0885  0.0738  0.1741
11913TIP3    H157230   0.751   3.229  12.386  2.2887  0.4563  1.1379
11913TIP3    H257231   0.620   3.198  12.456  0.5722 -1.3529 -2.5588
11914TIP3   OH257232   3.094   5.631   5.742  0.4296  0.1291  0.7358
11914TIP3    H157233   3.011   5.651   5.786  0.0825  0.1125  0.1161
11914TIP3    H257234   3.085   5.671   5.655  0.7667 -0.5042  0.3980
11915TIP3   OH257235   2.143   4.844  14.406 -0.1161  0.8887  0.7042
11915TIP3    H157236   2.133   4.772  14.468  1.1281  1.0326  1.0959
11915TIP3    H257237   2.071   4.832  14.344 -0.4249 -0.1981  1.2438
11916TIP3   OH257238   5.459   5.964  12.631  0.2199 -0.1511  0.3950
11916TIP3    H157239   5.535   6.009  12.594 -0.1516  0.0248 -0.1809
11916TIP3    H257240   5.385   6.019  12.604 -0.2071 -0.9316 -0.0383
11917TIP3   OH257241   6.704   6.117   5.389 -0.3302 -0.5573 -0.2610
11917TIP3    H157242   6.731   6.027   5.410 -2.5985 -1.7264 -1.9579
11917TIP3    H257243   6.726   6.128   5.296 -1.3361  0.1135 -0.4392
11918TIP3   OH257244   2.814   1.412   2.875 -0.7910  0.1251 -0.0079
11918TIP3    H157245   2.751   1.484   2.881  1.3408  2.2362 -1.3455
11918TIP3    H257246   2.793   1.370   2.792 -1.2960 -0.0843  0.2180
11919TIP3   OH257247   4.722   4.859  13.624  0.3619  0.1361  0.3139
11919TIP3    H157248   4.656   4.857  13.694  1.1854  0.5478  1.1224
11919TIP3    H257249   4.779   4.932  13.647  0.9817 -0.0798 -0.4950
11920TIP3   OH257250   3.184   1.464  14.872  0.3336 -0.4948  0.2691
11920TIP3    H157251   3.135   1.382  14.878  0.4970 -0.5409  1.2893
11920TIP3    H257252   3.131   1.520  14.816 -0.5834 -0.7617  0.8394
11921TIP3   OH257253   4.207   5.498   2.816 -0.0253  0.6272  0.3945
11921TIP3    H157254   4.291   5.475   2.855 -0.4837 -2.0571 -0.0288
11921TIP3    H257255   4.195   5.434   2.746 -2.4256  0.9553  0.4371
11922TIP3   OH257256   1.014   0.209  16.167  0.5272 -0.0974 -0.0376
11922TIP3    H157257   1.061   0.132  16.199 -0.0464 -1.3487 -2.0108
11922TIP3    H257258   0.936   0.214  16.222  1.0948 -0.2937  0.7918
11923TIP3   OH257259   3.624   1.970  15.452  0.3940  0.5667  0.3339
11923TIP3    H157260   3.551   1.987  15.512 -0.0256 -1.0702  0.3172
11923TIP3    H257261   3.591   1.901  15.394  1.7302  0.2726 -0.0960
11924TIP3   OH257262   6.144   4.148  11.362  0.2608 -0.7524  0.3822
11924TIP3    H157263   6.132   4.242  11.346 -1.0770 -0.8336  0.7971
11924TIP3    H257264   6.227   4.127  11.317 -0.3967  0.2195 -1.4065
11925TIP3   OH257265   1.794   0.185   0.208  0.6024 -0.2574 -0.6037
11925TIP3    H157266   1.727   0.118   0.221  0.1905  0.1829 -0.4322
11925TIP3    H257267   1.771   0.254   0.270  0.1217  0.7339 -1.8620
11926TIP3   OH257268   0.766   5.947  14.337 -0.2120 -0.0386  0.1328
11926TIP3    H157269   0.850   5.992  14.343  1.1337 -2.1358 -1.6711
11926TIP3    H257270   0.715   5.999  14.275  0.2639  0.4577  0.1469
11927TIP3   OH257271   3.516   6.768  12.397 -0.0738  0.6302  0.2140
11927TIP3    H157272   3.474   6.798  12.317  0.2371 -0.8625 -0.5485
11927TIP3    H257273   3.449   6.714  12.440  0.3332 -0.0107  0.0614
11928TIP3   OH257274   5.972   2.766   5.498  0.5625  0.1638  0.2491
11928TIP3    H157275   5.908   2.698   5.474 -1.3376  1.5505  1.0996
11928TIP3    H257276   6.036   2.764   5.427 -1.6262  0.1545 -1.8783
11929TIP3   OH257277   0.034   6.401   4.616 -0.5130 -0.0911  0.3571
11929TIP3    H157278   0.033   6.427   4.524  0.7845 -0.3655  0.2486
11929TIP3    H257279  -0.044   6.442   4.653 -0.2044  1.3469 -0.5089
11930TIP3   OH257280   4.974   5.132   3.520 -0.3345  0.3420 -0.2592
11930TIP3    H157281   4.972   5.206   3.459 -0.7771 -0.8063 -1.7045
11930TIP3    H257282   4.962   5.055   3.464  1.6956 -0.9612  0.9868
11931TIP3   OH257283   3.309   2.976   3.772  0.4338 -0.0507  0.0632
11931TIP3    H157284   3.234   2.995   3.829 -1.3586 -2.2760 -1.3956
11931TIP3    H257285   3.385   2.992   3.827 -1.1623 -0.2252  2.4715
11932TIP3   OH257286   2.823   0.409   1.837  0.5813  0.3894 -0.0062
11932TIP3    H157287   2.840   0.340   1.901 -0.0815 -1.4019 -1.6811
11932TIP3    H257288   2.745   0.454   1.870 -1.3411 -2.1802 -0.7797
11933TIP3   OH257289   5.016   4.869  14.845 -0.0809 -0.4942  0.1034
11933TIP3    H157290   5.071   4.887  14.768 -0.0232  0.6127  0.3833
11933TIP3    H257291   5.041   4.781  14.872  0.5510 -0.5484 -0.6058
11934TIP3   OH257292   4.109   1.481  12.633 -0.1527  0.1387  0.5097
11934TIP3    H157293   4.101   1.475  12.729  2.3666  0.5518  0.8173
11934TIP3    H257294   4.026   1.446  12.600 -1.8033  1.5148  2.8441
11935TIP3   OH257295   4.105   6.246  11.423  0.0364  0.2842 -0.0172
11935TIP3    H157296   4.173   6.241  11.356  0.2131 -1.0967  0.2338
11935TIP3    H257297   4.148   6.213  11.502 -0.5047  0.8184  0.5109
11936TIP3   OH257298   0.710   6.567  10.982  0.1130  0.5719  0.0524
11936TIP3    H157299   0.708   6.603  10.894  1.4650 -2.2932 -1.2920
11936TIP3    H257300   0.622   6.530  10.994  0.1484  0.3105 -0.4391
11937TIP3   OH257301   3.332   1.712   5.952 -0.2827  0.0423  0.1593
11937TIP3    H157302   3.240   1.722   5.978 -0.5534 -1.9074  0.1337
11937TIP3    H257303   3.378   1.692   6.034  0.1174  0.9397  0.1624
11938TIP3   OH257304   5.437   0.482   3.727  0.8524 -0.4834  0.4344
11938TIP3    H157305   5.419   0.525   3.811  2.9919 -1.1803  1.3015
11938TIP3    H257306   5.355   0.438   3.705 -0.0052  0.3914  1.7293
11939TIP3   OH257307   5.682   3.815   6.528 -0.2560  0.3747  0.3873
11939TIP3    H157308   5.681   3.847   6.619 -0.9005  2.3283 -0.2615
11939TIP3    H257309   5.758   3.857   6.489 -0.7866  0.6755 -0.3423
11940TIP3   OH257310   5.943   1.346  13.171  0.2179 -0.3141  0.3902
11940TIP3    H157311   6.013   1.324  13.109  0.4976  0.7306  0.3165
11940TIP3    H257312   5.873   1.381  13.117 -0.2880 -1.1428  0.4903
11941TIP3   OH257313   3.103   1.025   1.513 -0.0183 -0.1069  0.3698
11941TIP3    H157314   3.116   1.078   1.591 -1.4314  0.1623  0.4469
11941TIP3    H257315   3.046   1.077   1.457  1.3352 -0.0851 -1.0849
11942TIP3   OH257316   0.094   6.616  15.257  0.5342  0.1701  0.3298
11942TIP3    H157317   0.011   6.571  15.275  0.7136 -0.0615  0.5910
11942TIP3    H257318   0.131   6.634  15.343  1.4887 -1.1052  0.2193
11943TIP3   OH257319   0.426   2.173  14.346 -0.2005  0.3375 -0.0367
11943TIP3    H157320   0.509   2.165  14.393 -1.5430  0.3634  2.5827
11943TIP3    H257321   0.407   2.266  14.346 -0.7785  0.2308  0.5117
11944TIP3   OH257322   1.676   0.931  16.423  0.2206 -0.1029 -0.0501
11944TIP3    H157323   1.616   0.980  16.367 -1.0759 -1.5079  0.0590
11944TIP3    H257324   1.759   0.933  16.376  0.4397  2.7157  0.2546
11945TIP3   OH257325   3.979   1.081   3.806  0.5693  0.1965 -0.7227
11945TIP3    H157326   3.931   1.005   3.839 -0.4381  1.2112  0.2551
11945TIP3    H257327   4.005   1.057   3.718  0.7467 -1.4881 -0.2314
11946TIP3   OH257328   5.548   4.062   5.073  0.0401 -0.1779  0.4725
11946TIP3    H157329   5.527   4.082   4.982  0.3789  0.6168  0.5558
11946TIP3    H257330   5.619   3.998   5.068  0.6093  0.4633  0.1574
11947TIP3   OH257331   5.735   5.815   5.182  0.4957  0.0249  0.1452
11947TIP3    H157332   5.816   5.762   5.181  1.4000  1.2866 -2.2011
11947TIP3    H257333   5.666   5.752   5.162  1.6904 -0.3215 -3.8793
11948TIP3   OH257334   4.934   5.302   4.740  0.4861 -0.3664 -0.2518
11948TIP3    H157335   4.846   5.265   4.747  0.6415 -1.6120 -3.2150
11948TIP3    H257336   4.992   5.234   4.774  0.3909  0.0154  0.6958
11949TIP3   OH257337   3.562   2.051   6.500 -0.0516  0.3536 -0.6666
11949TIP3    H157338   3.499   1.992   6.540  1.6319  0.0496  1.7386
11949TIP3    H257339   3.519   2.137   6.503 -1.8893 -0.3891 -2.7965
11950TIP3   OH257340   0.936   4.037  14.285  0.2262 -0.2809 -0.0783
11950TIP3    H157341   0.945   4.118  14.235 -0.8552 -0.6108 -0.8615
11950TIP3    H257342   1.006   3.981  14.253  0.0098 -0.2122 -0.6836
11951TIP3   OH257343   0.886   2.686  14.909  0.2376  0.4617 -0.1358
11951TIP3    H157344   0.797   2.721  14.918 -0.3967 -1.2445  0.5350
11951TIP3    H257345   0.932   2.718  14.986 -0.2231  0.1581  0.2710
11952TIP3   OH257346   1.954   0.846   4.297  0.2263 -0.4876 -0.6660
11952TIP3    H157347   1.962   0.899   4.376  1.3895 -3.6466  1.5289
11952TIP3    H257348   1.864   0.812   4.300  0.2392 -0.5300 -0.7604
11953TIP3   OH257349   2.549   3.643  15.501 -0.1010  0.1007  0.0863
11953TIP3    H157350   2.561   3.614  15.411 -1.0093 -1.3116  0.3893
11953TIP3    H257351   2.487   3.716  15.494  0.5318  0.5903 -0.5038
11954TIP3   OH257352   5.697   0.125  13.395 -0.1552  1.0385 -0.4623
11954TIP3    H157353   5.702   0.033  13.369  2.9342  1.0024 -0.1550
11954TIP3    H257354   5.622   0.129  13.454 -0.9802 -1.0619 -1.2558
11955TIP3   OH257355   1.338   2.425  12.730 -0.4097 -0.6410  0.3022
11955TIP3    H157356   1.267   2.390  12.676 -1.4537 -0.4766  1.5194
11955TIP3    H257357   1.296   2.487  12.790  0.9986  0.6198  0.0555
11956TIP3   OH257358   1.005   1.100   2.202  0.6971  0.3314  0.2782
11956TIP3    H157359   0.990   1.180   2.251  0.6147 -0.1119  0.9945
11956TIP3    H257360   0.948   1.108   2.125  0.0769  0.5992  0.7568
11957TIP3   OH257361   5.190   1.426  12.836  0.1696  0.2356  0.2338
11957TIP3    H157362   5.102   1.390  12.829 -0.4351  1.8224 -0.7603
11957TIP3    H257363   5.247   1.349  12.845 -1.2353 -0.8373  0.1905
11958TIP3   OH257364   0.000   4.682   0.622 -0.4377  0.0735  0.1973
11958TIP3    H157365   0.077   4.736   0.641  0.6829 -1.6838  0.9436
11958TIP3    H257366  -0.058   4.696   0.697  0.1196 -0.1873  0.6923
11959TIP3   OH257367   2.526   0.893   0.812  0.5224 -0.0867 -0.0037
11959TIP3    H157368   2.595   0.869   0.874  1.2436  1.6142 -0.0797
11959TIP3    H257369   2.511   0.986   0.829 -0.7570 -0.0969 -0.9680
11960TIP3   OH257370   4.799   0.409  15.928  0.0125  0.0289 -0.5258
11960TIP3    H157371   4.710   0.383  15.904 -0.1632  0.5168 -0.4111
11960TIP3    H257372   4.855   0.344  15.886 -0.2710  0.9298 -2.4063
11961TIP3   OH257373   1.498   3.864   5.822 -0.0686 -0.3928 -0.5485
11961TIP3    H157374   1.588   3.833   5.831 -0.3683 -1.0328  0.3540
11961TIP3    H257375   1.445   3.786   5.833 -0.8325  0.3495  1.4450
11962TIP3   OH257376   2.054   5.475   2.630  0.5096  0.7409  0.2275
11962TIP3    H157377   2.120   5.416   2.595 -0.6499 -1.2291  1.2249
11962TIP3    H257378   2.103   5.552   2.658  2.2106 -0.1701 -0.1314
11963TIP3   OH257379   4.614   6.338   1.352 -0.3766 -0.2581  0.3475
11963TIP3    H157380   4.637   6.248   1.374  1.0154 -0.4558 -1.6181
11963TIP3    H257381   4.640   6.347   1.260 -1.6689  1.7746  0.1297
11964TIP3   OH257382   3.711   2.069   4.784  0.0379  0.2710 -0.2272
11964TIP3    H157383   3.707   2.002   4.715  1.1388  0.0891 -0.1305
11964TIP3    H257384   3.799   2.106   4.776  0.3320 -0.0425  1.3585
11965TIP3   OH257385   4.237   1.532   6.582  0.3526  0.0409 -0.5167
11965TIP3    H157386   4.163   1.584   6.612  1.0283  0.5855  0.2293
11965TIP3    H257387   4.262   1.479   6.657  0.6515 -0.2268 -0.8012
11966TIP3   OH257388   0.392   5.227  10.757  0.2179 -0.0876  0.6680
11966TIP3    H157389   0.431   5.229  10.670  0.4765  0.0073  0.7858
11966TIP3    H257390   0.340   5.307  10.762 -0.4407 -0.4831  0.3064
11967TIP3   OH257391   1.692   3.902   1.110  0.1524 -0.3587 -0.2072
11967TIP3    H157392   1.761   3.848   1.148 -0.3016 -0.0514  1.0962
11967TIP3    H257393   1.714   3.908   1.017  2.1906  0.1956  0.2764
11968TIP3   OH257394   1.261   6.422  14.097  0.6092  0.3605  0.1817
11968TIP3    H157395   1.172   6.388  14.086  0.9196 -0.5354  0.3757
11968TIP3    H257396   1.262   6.460  14.184 -0.2953  2.6454 -0.7282
11969TIP3   OH257397   5.296   2.085  12.015 -0.0637  0.3651 -0.2317
11969TIP3    H157398   5.288   2.176  12.041 -2.5332  0.3643 -0.8260
11969TIP3    H257399   5.312   2.038  12.097  0.2224  1.1907  0.1997
11970TIP3   OH257400   0.568   0.976  12.881  0.2785  0.3048 -0.2639
11970TIP3    H157401   0.493   0.921  12.860  1.3508 -1.2100 -0.3660
11970TIP3    H257402   0.558   0.997  12.974 -0.9770  1.3185 -0.6088
11971TIP3   OH257403   1.800   6.046   4.687 -0.0494 -0.1782 -0.0460
11971TIP3    H157404   1.767   6.091   4.610  0.9104 -2.1615 -1.6986
11971TIP3    H257405   1.756   5.961   4.687 -0.4674 -0.0097  1.9423
11972TIP3   OH257406   2.494   1.145  14.009  0.3327 -0.1716 -0.2674
11972TIP3    H157407   2.490   1.181  14.098 -0.7641 -0.0602 -0.3523
11972TIP3    H257408   2.410   1.167  13.970  0.6650 -0.5323 -1.2239
11973TIP3   OH257409   3.780   6.719  13.860  0.1564 -0.2720 -0.1564
11973TIP3    H157410   3.702   6.702  13.807 -0.3267  1.7661 -0.1657
11973TIP3    H257411   3.748   6.765  13.937  0.9455 -2.5914  1.6835
11974TIP3   OH257412   6.604   0.506  16.101  0.0869  0.5283  0.0909
11974TIP3    H157413   6.634   0.567  16.168  1.4402 -2.4027  2.3895
11974TIP3    H257414   6.671   0.511  16.033  1.2701  0.2506  1.1815
11975TIP3   OH257415   5.655   5.021  12.625 -0.9063  0.0703 -0.0738
11975TIP3    H157416   5.744   4.988  12.639 -0.5039  1.4159  0.7387
11975TIP3    H257417   5.645   5.021  12.530 -0.5524 -1.3595 -0.1344
11976TIP3   OH257418   2.949   5.205   5.428 -0.2842 -0.2653  0.1186
11976TIP3    H157419   2.984   5.294   5.431 -0.9735  0.1964 -2.6199
11976TIP3    H257420   3.007   5.159   5.367 -1.9085 -0.6764 -1.1830
11977TIP3   OH257421   0.077   2.433   0.851 -0.5688 -0.7530  0.3660
11977TIP3    H157422   0.078   2.357   0.909  0.9510 -1.3960 -0.4408
11977TIP3    H257423   0.012   2.411   0.785 -2.2743 -0.0393  1.7196
11978TIP3   OH257424   5.006   0.066   5.749  0.0188  0.0959 -0.1452
11978TIP3    H157425   5.038  -0.015   5.788 -1.2221 -1.2797 -1.8201
11978TIP3    H257426   4.920   0.079   5.788  0.5128  1.0798  0.6831
11979TIP3   OH257427   1.033   2.881  12.243  0.0791  0.4350 -0.4207
11979TIP3    H157428   0.952   2.905  12.199 -1.0265  2.3272  2.3817
11979TIP3    H257429   1.052   2.793  12.212 -2.5736  0.2526 -1.8012
11980TIP3   OH257430   2.318   5.232  16.861 -0.1341  0.0178  0.4061
11980TIP3    H157431   2.307   5.190  16.776  0.1761 -0.0895  0.4158
11980TIP3    H257432   2.413   5.242  16.870 -0.2535  2.4760 -0.4603
11981TIP3   OH257433   4.927   2.160  15.703  0.6438  0.6543  0.1393
11981TIP3    H157434   4.923   2.228  15.635  0.4991  0.8214  0.3122
11981TIP3    H257435   4.841   2.119  15.700  0.6262  0.6835  0.2425
11982TIP3   OH257436   4.676   5.304   6.902 -0.0083 -0.8971  0.8753
11982TIP3    H157437   4.620   5.242   6.855  0.5364 -0.2030 -0.7602
11982TIP3    H257438   4.655   5.389   6.863  0.1961 -0.2287  2.1830
11983TIP3   OH257439   5.866   2.788   0.604  0.5159  0.5823  0.1783
11983TIP3    H157440   5.852   2.798   0.510  0.9514  1.4842  0.1964
11983TIP3    H257441   5.950   2.741   0.610 -0.2502 -0.8540  0.1189
11984TIP3   OH257442   1.773   3.453  16.692  0.4114 -0.1120 -0.3688
11984TIP3    H157443   1.751   3.374  16.642 -1.8170 -0.4267  0.9602
11984TIP3    H257444   1.828   3.421  16.764 -1.7075 -0.8214  1.0448
11985TIP3   OH257445   4.060   6.469  16.505  0.4112 -0.0909  0.1540
11985TIP3    H157446   4.149   6.502  16.520  0.7967 -0.7928 -0.5526
11985TIP3    H257447   4.014   6.489  16.587  0.5815  2.2726 -0.2598
11986TIP3   OH257448   4.546   0.314   2.041  0.0821 -0.0890 -0.1529
11986TIP3    H157449   4.485   0.322   1.968  1.7131 -2.9752 -2.0704
11986TIP3    H257450   4.492   0.324   2.119 -2.2520  0.4919 -1.7377
11987TIP3   OH257451   3.017   3.803  11.361 -0.3416  0.6063 -0.2006
11987TIP3    H157452   3.061   3.888  11.362 -2.9893  2.0741  0.5924
11987TIP3    H257453   2.963   3.806  11.281  0.1368 -0.6935 -0.5877
11988TIP3   OH257454   2.223   2.915  11.304 -0.6338  0.2270  0.6353
11988TIP3    H157455   2.312   2.914  11.340 -0.1760  1.1459 -0.4000
11988TIP3    H257456   2.230   2.971  11.227 -1.7006 -1.2057 -0.5554
11989TIP3   OH257457   0.846   5.318  16.414  0.1507 -0.6024 -0.0945
11989TIP3    H157458   0.848   5.356  16.502 -0.6778  1.5669 -0.9357
11989TIP3    H257459   0.934   5.332  16.379  0.4846 -1.4787  0.3504
11990TIP3   OH257460   0.006   1.372  16.402 -0.0124  0.4105 -0.4745
11990TIP3    H157461  -0.046   1.304  16.445  0.7059 -0.9296 -1.6405
11990TIP3    H257462  -0.059   1.424  16.354 -0.5898  0.7268  0.5925
11991TIP3   OH257463   2.724   2.425   5.653  0.1309 -0.2777  0.0691
11991TIP3    H157464   2.717   2.430   5.748 -5.1207 -2.2685  0.1095
11991TIP3    H257465   2.746   2.333   5.635  1.3236  0.1357 -0.6790
11992TIP3   OH257466   5.386   2.877  12.161  0.4711 -0.2784  0.0033
11992TIP3    H157467   5.299   2.838  12.151  0.5311 -0.8055  1.2974
11992TIP3    H257468   5.368   2.964  12.198  0.5143 -0.8713  1.4989
11993TIP3   OH257469   1.844   2.938  10.849  0.3334 -0.2427 -0.0349
11993TIP3    H157470   1.772   2.891  10.891  0.6174 -0.3980  0.2769
11993TIP3    H257471   1.880   2.994  10.918  0.8503 -0.5505 -0.0535
11994TIP3   OH257472   6.266   6.517  14.584 -0.6517  0.0446 -0.1819
11994TIP3    H157473   6.333   6.518  14.652  0.3619 -0.7283 -1.1326
11994TIP3    H257474   6.201   6.454  14.615 -0.7851  0.5645  0.6033
11995TIP3   OH257475   6.492   4.044  14.225  0.1815  0.1880  0.2399
11995TIP3    H157476   6.459   4.062  14.137 -3.0052  0.8960  1.4189
11995TIP3    H257477   6.535   4.125  14.251 -0.8448  0.8072  0.0873
11996TIP3   OH257478   0.853   4.366  13.255 -0.3256  0.7828 -0.0740
11996TIP3    H157479   0.833   4.275  13.233  1.6943  0.5251 -1.0243
11996TIP3    H257480   0.767   4.407  13.264 -1.3137 -0.6425 -2.0912
11997TIP3   OH257481   3.033   2.449  11.970  0.4172 -0.0480 -0.3186
11997TIP3    H157482   3.087   2.526  11.952 -0.7925  0.8535 -0.1821
11997TIP3    H257483   3.051   2.389  11.897  1.0950  0.5053 -0.6128
11998TIP3   OH257484   0.660   0.141  11.905  0.1601 -0.2317 -0.0512
11998TIP3    H157485   0.681   0.090  11.827  1.7889 -0.2369  0.3494
11998TIP3    H257486   0.722   0.110  11.972 -0.5179  0.4807  0.9398
11999TIP3   OH257487   4.124   4.426   5.386  0.2713  0.5622 -0.1113
11999TIP3    H157488   4.092   4.342   5.353 -0.1564  1.4054 -2.0109
11999TIP3    H257489   4.175   4.404   5.463 -1.3326 -1.2497  0.5071
12000TIP3   OH257490   5.818   4.939   5.070 -0.4387  0.1494  0.4899
12000TIP3    H157491   5.846   4.936   4.979  0.3144  1.3916  0.6653
12000TIP3    H257492   5.767   4.859   5.082  1.3665 -1.2011 -0.4005
12001TIP3   OH257493   4.532   3.154  16.483  0.0300  0.4733  0.0417
12001TIP3    H157494   4.499   3.140  16.572  0.5345  0.1172  0.1750
12001TIP3    H257495   4.627   3.161  16.493  0.0674  0.7277 -0.4359
12002TIP3   OH257496   5.445   6.224  12.081 -0.6675  0.5293 -0.2002
12002TIP3    H157497   5.354   6.196  12.097 -0.0967 -1.0627  0.4611
12002TIP3    H257498   5.441   6.319  12.088 -2.1916  0.4653  0.4196
12003TIP3   OH257499   5.476   6.053  13.761 -0.5997 -0.0055  0.0710
12003TIP3    H157500   5.457   6.129  13.816 -0.3616  0.6040 -0.6776
12003TIP3    H257501   5.422   5.983  13.798  1.3808 -0.3196  2.6432
12004TIP3   OH257502   5.728   5.719  11.459 -0.1062  0.4416 -0.0938
12004TIP3    H157503   5.678   5.750  11.383 -0.8635 -1.4996 -0.4604
12004TIP3    H257504   5.767   5.798  11.496 -0.9725  1.6404 -1.5989
12005TIP3   OH257505   3.321   6.278  12.094 -0.3120  0.5939 -0.7086
12005TIP3    H157506   3.250   6.323  12.048 -1.0031  0.0404 -0.2129
12005TIP3    H257507   3.397   6.290  12.038 -0.9298  0.7109 -1.5475
12006TIP3   OH257508   1.445   2.141   0.237 -0.7424  0.3907 -0.4920
12006TIP3    H157509   1.481   2.059   0.271  0.8837  1.6711  1.0451
12006TIP3    H257510   1.378   2.167   0.300 -0.9469  0.4759 -0.7399
12007TIP3   OH257511   0.974   6.500  15.602  0.7821 -0.2424  0.1869
12007TIP3    H157512   1.052   6.514  15.656  0.1579  1.1884  0.7623
12007TIP3    H257513   0.979   6.567  15.535 -0.2360  0.2483  0.5786
12008TIP3   OH257514   1.246   0.645   1.626  0.1849  0.3782  0.4795
12008TIP3    H157515   1.327   0.676   1.666  0.5886 -0.7481  0.5782
12008TIP3    H257516   1.253   0.549   1.628 -0.0241  0.2571 -1.7509
12009TIP3   OH257517   4.061   2.662   4.786  0.2069  0.4046 -0.4787
12009TIP3    H157518   4.091   2.752   4.799  0.2608  0.3929 -0.5234
12009TIP3    H257519   3.968   2.665   4.808  0.5559  0.1130  1.1223
12010TIP3   OH257520   0.283   6.468  11.064  0.4100 -0.2127 -0.0981
12010TIP3    H157521   0.278   6.446  10.971  1.4661 -0.7365 -0.0382
12010TIP3    H257522   0.204   6.429  11.102  0.1493 -0.2866 -0.7052
12011TIP3   OH257523   3.534   2.092   0.523 -0.0803  0.3196 -0.3920
12011TIP3    H157524   3.570   2.141   0.449 -1.1999 -1.5952 -2.3169
12011TIP3    H257525   3.601   2.026   0.543  1.1907  2.1179  1.8529
12012TIP3   OH257526   6.548   1.114   4.231  0.6061 -0.3006  0.1204
12012TIP3    H157527   6.639   1.141   4.218  0.8474 -1.4482 -0.7100
12012TIP3    H257528   6.553   1.020   4.248 -0.4128 -0.3299  0.3239
12013TIP3   OH257529   0.700   1.529  11.905 -0.0135  0.0660 -0.0040
12013TIP3    H157530   0.777   1.514  11.850  0.5311 -0.4445  0.8686
12013TIP3    H257531   0.721   1.486  11.988  0.0391  2.4638  1.3235
12014TIP3   OH257532   6.112   2.667  16.585 -0.1996  0.0346 -0.1560
12014TIP3    H157533   6.023   2.632  16.575  0.1561 -0.7947 -0.5313
12014TIP3    H257534   6.156   2.605  16.642  1.2215 -1.6947 -2.9178
12015TIP3   OH257535   0.923   4.007  16.527 -0.8212  0.0100 -0.2510
12015TIP3    H157536   0.859   3.939  16.509  0.4214 -1.1774 -0.2667
12015TIP3    H257537   0.888   4.053  16.604 -1.4202 -0.9591  0.0638
12016TIP3   OH257538   5.582   2.793  12.349 -0.0089 -0.0689  0.0738
12016TIP3    H157539   5.493   2.825  12.338 -0.3416 -0.2846  1.8501
12016TIP3    H257540   5.603   2.751  12.265 -1.7103 -0.3695 -0.2357
12017TIP3   OH257541   6.442   5.142   5.114 -0.1038  0.3766 -0.6035
12017TIP3    H157542   6.393   5.220   5.088  0.2043  1.3545  1.5106
12017TIP3    H257543   6.407   5.119   5.200  2.2430  0.4103  0.4671
12018TIP3   OH257544   3.547   0.123   3.028  0.2914 -0.1892 -0.0753
12018TIP3    H157545   3.467   0.088   2.990 -0.2555 -0.0808  0.9481
12018TIP3    H257546   3.574   0.193   2.967 -0.6170  0.0576 -0.2085
12019TIP3   OH257547   0.584   5.803   5.175 -0.3578  0.1470  0.2022
12019TIP3    H157548   0.603   5.741   5.245  1.6995  1.3239  0.7338
12019TIP3    H257549   0.576   5.888   5.218 -1.7720  0.5221 -0.6957
12020TIP3   OH257550   3.168   2.822   5.154  0.4149  0.1884 -0.1847
12020TIP3    H157551   3.224   2.866   5.217  1.0383 -0.8435 -0.0055
12020TIP3    H257552   3.227   2.794   5.084  0.0708 -0.5974 -0.1637
12021TIP3   OH257553   3.575   2.338   1.876 -0.3778 -0.1066  0.2479
12021TIP3    H157554   3.495   2.389   1.891 -0.2257 -0.3251  1.9881
12021TIP3    H257555   3.548   2.247   1.888 -0.0358 -0.2387  0.0311
12022TIP3   OH257556   0.689   0.395   6.708  0.1158  0.0369  0.6519
12022TIP3    H157557   0.606   0.436   6.684  0.8159  0.9725 -0.2700
12022TIP3    H257558   0.701   0.418   6.800 -0.5862 -0.0017  0.7557
12023TIP3   OH257559   1.819   4.585   1.596  0.3937  0.5991 -0.4096
12023TIP3    H157560   1.725   4.598   1.584  0.0762 -1.2327 -0.2568
12023TIP3    H257561   1.832   4.490   1.586  2.0157  0.6188  0.9174
12024TIP3   OH257562   0.231   2.069   6.295  0.1126  0.3975 -0.2531
12024TIP3    H157563   0.319   2.095   6.322  0.4515  0.1493 -1.0818
12024TIP3    H257564   0.174   2.136   6.331  0.5300  0.0491  1.1078
12025TIP3   OH257565   1.620   5.892  13.838  0.4947 -0.2715 -0.0856
12025TIP3    H157566   1.579   5.806  13.846 -0.6443  0.3039  0.6340
12025TIP3    H257567   1.691   5.879  13.776  0.1714 -1.6680 -0.2035
12026TIP3   OH257568   3.572   5.812   5.098  0.0069 -0.3791  0.0313
12026TIP3    H157569   3.643   5.832   5.037  1.0061  0.3047  1.3601
12026TIP3    H257570   3.597   5.729   5.138  0.0382 -0.1699  0.4562
12027TIP3   OH257571   3.384   4.050   4.901 -0.0442  0.3332  0.4887
12027TIP3    H157572   3.350   4.139   4.909  1.4236  0.9603  0.0424
12027TIP3    H257573   3.345   4.016   4.820 -0.8425  0.4380  0.8158
12028TIP3   OH257574   0.733   2.519   3.369  0.6214  0.4689 -0.0606
12028TIP3    H157575   0.759   2.492   3.457  2.2570  1.1151 -0.3087
12028TIP3    H257576   0.746   2.613   3.368 -2.3375  0.9823 -0.0837
12029TIP3   OH257577   2.659   1.040  17.256  0.1499  0.1286 -0.3826
12029TIP3    H157578   2.711   1.030  17.177  0.6333  1.0490 -0.1974
12029TIP3    H257579   2.678   0.962  17.308  0.2505 -0.2153 -0.9367
12030TIP3   OH257580   4.891   3.964  14.607 -0.1459 -0.0712  0.4221
12030TIP3    H157581   4.953   3.975  14.535  1.1579  0.3539  1.5689
12030TIP3    H257582   4.816   4.020  14.583  1.0013  1.4380  0.1886
12031TIP3   OH257583   6.221   3.888   1.919  0.1448 -0.0064 -0.0391
12031TIP3    H157584   6.275   3.809   1.918  2.2363  1.3685 -0.3858
12031TIP3    H257585   6.167   3.879   1.998 -1.0490 -2.6193 -1.0362
12032TIP3   OH257586   5.093   0.678   4.342  0.1352 -0.2451  0.2359
12032TIP3    H157587   5.108   0.772   4.338  1.0785 -0.4298 -1.4277
12032TIP3    H257588   5.101   0.657   4.435 -2.0591  1.5742  0.9300
12033TIP3   OH257589   5.550   4.722  15.861  0.3097 -0.1823 -0.2899
12033TIP3    H157590   5.536   4.775  15.782 -1.5711  0.0633  0.1614
12033TIP3    H257591   5.475   4.743  15.917 -0.4872 -3.2427 -0.0579
12034TIP3   OH257592   6.422   5.914  11.207 -0.2085 -0.1905 -0.0520
12034TIP3    H157593   6.440   5.921  11.113  0.1527 -0.3446  0.0039
12034TIP3    H257594   6.497   5.866  11.242  0.5562  1.4194  0.6168
12035TIP3   OH257595   5.528   6.442  15.139 -0.1364 -0.7401 -0.5637
12035TIP3    H157596   5.468   6.498  15.090 -0.8487 -0.4043  0.6356
12035TIP3    H257597   5.615   6.472  15.115 -0.4868  1.7706  0.9485
12036TIP3   OH257598   6.614   0.647   1.903  0.1445 -0.1199  0.0900
12036TIP3    H157599   6.542   0.670   1.962 -0.6366  1.9097 -1.5256
12036TIP3    H257600   6.588   0.685   1.819  1.0427 -3.1597 -1.6957
12037TIP3   OH257601   1.000   2.628   2.663  0.4339  0.4628  0.5874
12037TIP3    H157602   0.989   2.534   2.679  0.1012  0.5955  1.1599
12037TIP3    H257603   1.075   2.633   2.604 -0.0930 -0.2114 -0.1588
12038TIP3   OH257604   5.039   3.081  15.105 -0.1063  0.4530  0.1470
12038TIP3    H157605   4.993   3.154  15.065  0.2777  0.0212 -1.1118
12038TIP3    H257606   5.027   3.008  15.044 -1.7383 -0.9955  2.0293
12039TIP3   OH257607   1.611   6.096   3.711  0.0041 -0.5300  0.6693
12039TIP3    H157608   1.539   6.157   3.730 -0.5982 -0.8430 -0.4964
12039TIP3    H257609   1.567   6.020   3.673  0.9869 -0.5708 -0.4237
12040TIP3   OH257610   6.552   1.145  15.265 -0.4602  0.7342 -0.6067
12040TIP3    H157611   6.600   1.192  15.196  2.9109 -3.0670 -1.2429
12040TIP3    H257612   6.497   1.083  15.218  0.6328 -0.7775  0.0279
12041TIP3   OH257613   0.045   0.984   1.303  0.2615  0.9270 -0.5424
12041TIP3    H157614   0.120   1.038   1.276  1.6050 -0.9319 -0.7500
12041TIP3    H257615   0.076   0.939   1.382 -1.1716  1.1791  0.1853
12042TIP3   OH257616   4.684   0.644   0.617  0.1950  0.5165  0.2940
12042TIP3    H157617   4.697   0.600   0.702  1.5030  1.3338  0.5466
12042TIP3    H257618   4.627   0.718   0.637 -0.4793  0.0294  0.2182
12043TIP3   OH257619   6.361   4.378   6.375  0.1103 -0.3499  0.2730
12043TIP3    H157620   6.287   4.415   6.424  0.2306  1.5128 -0.8483
12043TIP3    H257621   6.435   4.383   6.436 -0.4166 -1.1153  0.9952
12044TIP3   OH257622   5.288   2.354  16.143 -0.2763 -0.2656  0.1934
12044TIP3    H157623   5.283   2.449  16.140 -1.3453 -0.3260 -1.0558
12044TIP3    H257624   5.228   2.325  16.074 -1.4698 -1.8905  1.8245
12045TIP3   OH257625   3.952   6.721  17.456 -0.9747  0.2053  0.4909
12045TIP3    H157626   3.889   6.782  17.496 -2.0326 -0.0046 -0.7756
12045TIP3    H257627   3.905   6.684  17.381  0.5572 -0.2195 -0.3038
12046TIP3   OH257628   6.683   4.938   0.304  0.7395 -0.5262 -0.2483
12046TIP3    H157629   6.690   4.913   0.396  3.8365  1.0829  0.0493
12046TIP3    H257630   6.729   5.021   0.298 -1.3076  0.5429 -2.8969
12047TIP3   OH257631   3.155   4.198  16.609 -0.2629  0.2934  0.1343
12047TIP3    H157632   3.248   4.208  16.593 -0.1503  1.2409  1.2133
12047TIP3    H257633   3.116   4.183  16.523  1.0464 -1.6875 -0.1572
12048TIP3   OH257634   4.572   4.389   3.883 -0.1444  0.0071  0.0060
12048TIP3    H157635   4.540   4.319   3.939  0.1294 -0.5875 -0.5697
12048TIP3    H257636   4.506   4.397   3.814 -0.2467  0.4153  0.1498
12049TIP3   OH257637   0.070   6.389   2.309 -0.4604 -0.3345 -0.4413
12049TIP3    H157638   0.129   6.464   2.309 -0.7021 -0.1114  1.0717
12049TIP3    H257639  -0.017   6.427   2.295 -0.5856 -0.3194  0.3509
12050TIP3   OH257640   5.529   0.572  11.896 -0.0389 -0.2232 -0.1488
12050TIP3    H157641   5.511   0.617  11.814  1.3183  0.5382 -0.0568
12050TIP3    H257642   5.570   0.638  11.952 -0.2756 -0.9168  0.8876
12051TIP3   OH257643   3.879   2.219  13.985 -0.0911  0.0265  0.1723
12051TIP3    H157644   3.867   2.301  13.938  1.0560  0.3231  0.3711
12051TIP3    H257645   3.930   2.243  14.063  2.2170 -1.1689 -0.8807
12052TIP3   OH257646   4.318   1.891   3.275  0.4368 -0.0638 -0.5102
12052TIP3    H157647   4.224   1.897   3.294  0.7160  0.8654  0.7001
12052TIP3    H257648   4.357   1.861   3.357  1.2452 -0.0041 -0.8651
12053TIP3   OH257649   4.136   4.076   3.500  0.0428  0.2541  0.3150
12053TIP3    H157650   4.133   3.982   3.520  0.4014 -0.5883 -3.0009
12053TIP3    H257651   4.196   4.112   3.565 -0.6681 -1.6374  2.1471
12054TIP3   OH257652   4.709   6.771   5.911  0.0677  0.1754 -0.1325
12054TIP3    H157653   4.682   6.690   5.868 -3.0490  0.7176  0.5830
12054TIP3    H257654   4.656   6.839   5.869  0.5334  1.4263  1.2141
12055TIP3   OH257655   2.351   3.060   2.520  0.1928  0.6425 -0.2118
12055TIP3    H157656   2.339   2.980   2.469  1.1788 -0.3858  1.1089
12055TIP3    H257657   2.308   3.128   2.468 -1.0876 -0.8106 -1.1395
12056TIP3   OH257658   3.220   4.012   2.550  0.5839  0.0710 -0.7893
12056TIP3    H157659   3.282   3.942   2.530  0.7947  0.6453 -2.2456
12056TIP3    H257660   3.162   4.016   2.474 -0.8668 -0.0342  0.2703
12057TIP3   OH257661   0.477   4.617   0.029 -0.2698  0.0252 -0.7158
12057TIP3    H157662   0.431   4.534   0.041 -1.2237  0.7887  1.3986
12057TIP3    H257663   0.569   4.596   0.047 -0.8029 -0.1980  2.4308
12058TIP3   OH257664   2.984   1.943  14.423  0.4201 -0.1033  0.0548
12058TIP3    H157665   2.912   2.006  14.427 -0.7987 -1.4237 -0.3188
12058TIP3    H257666   3.019   1.940  14.512  0.1038  0.6283  0.2120
12059TIP3   OH257667   1.672   5.642   1.278 -0.4030 -0.0064  0.3768
12059TIP3    H157668   1.700   5.551   1.269  1.7246  0.6851 -0.7243
12059TIP3    H257669   1.581   5.641   1.250 -0.4860 -1.8233  0.5733
12060TIP3   OH257670   4.966   5.052  15.674 -0.2380  0.2769  0.0103
12060TIP3    H157671   4.935   5.074  15.762 -1.1149  2.0442 -0.7001
12060TIP3    H257672   4.951   5.131  15.622 -0.7321 -1.0421 -1.9956
12061TIP3   OH257673   1.411   3.968   3.436 -0.0277 -0.5517 -0.0529
12061TIP3    H157674   1.395   3.941   3.527 -1.2751  0.4381  0.0515
12061TIP3    H257675   1.338   3.930   3.387  0.6804 -1.1438 -0.6676
12062TIP3   OH257676   3.446   0.522  14.118 -0.3606  0.1110  0.1616
12062TIP3    H157677   3.383   0.471  14.170 -1.7243  1.7498  0.2080
12062TIP3    H257678   3.435   0.612  14.149  1.9182  0.4901  0.0334
12063TIP3   OH257679   2.288   4.674  12.189 -0.2082 -0.3510  0.5826
12063TIP3    H157680   2.204   4.708  12.219 -0.9486 -0.9200 -0.7886
12063TIP3    H257681   2.302   4.596  12.243 -1.2213 -1.0123 -0.0738
12064TIP3   OH257682   6.515   5.452  14.387  0.0371 -0.1650 -0.8965
12064TIP3    H157683   6.553   5.538  14.405 -0.6975  0.2183 -1.1353
12064TIP3    H257684   6.438   5.448  14.445  1.8787 -2.0429  1.6783
12065TIP3   OH257685   0.108   0.464  15.606 -0.0008  0.2422 -0.2547
12065TIP3    H157686   0.080   0.515  15.530 -2.8410  1.2396  1.3026
12065TIP3    H257687   0.201   0.485  15.616 -0.5101  3.4051 -1.0514
12066TIP3   OH257688   6.224   4.772  16.483  0.5882  0.0085  0.1280
12066TIP3    H157689   6.243   4.679  16.495  1.9684  0.4164  1.3987
12066TIP3    H257690   6.263   4.815  16.560 -3.6472  1.2356  1.8767
12067TIP3   OH257691   4.325   6.493   1.338 -0.2291  0.3840  0.1284
12067TIP3    H157692   4.406   6.542   1.353  0.0062 -0.6996  2.8963
12067TIP3    H257693   4.329   6.420   1.399 -2.5445 -0.6835 -0.8730
12068TIP3   OH257694   4.960   3.469  13.139  0.0404  0.1904  0.0130
12068TIP3    H157695   4.930   3.389  13.097 -0.1755  0.5229 -0.4738
12068TIP3    H257696   4.929   3.539  13.082 -1.6650  0.7556  1.5430
12069TIP3   OH257697   4.994   0.189  10.648  0.1511 -0.0605 -0.4557
12069TIP3    H157698   4.988   0.094  10.649 -0.9954 -0.0886  3.3284
12069TIP3    H257699   5.087   0.207  10.637  0.5626 -1.6669  0.1448
12070TIP3   OH257700   0.344   5.044  13.221 -0.2325 -0.2491  0.1433
12070TIP3    H157701   0.324   5.030  13.314 -0.6279 -0.4444  0.0294
12070TIP3    H257702   0.400   5.122  13.220  0.5061 -0.7506  0.6233
12071TIP3   OH257703   2.930   5.025  14.587  0.4980 -0.2901 -0.3497
12071TIP3    H157704   2.966   5.114  14.587 -0.3541  0.0658 -0.5338
12071TIP3    H257705   2.946   4.992  14.675  0.9763 -0.0216 -0.3331
12072TIP3   OH257706   3.616   4.910   4.611  0.2352 -0.3881 -0.2190
12072TIP3    H157707   3.690   4.895   4.553 -0.4270 -2.2205 -0.6895
12072TIP3    H257708   3.625   4.843   4.679  0.6535  1.3207  1.4887
12073TIP3   OH257709   2.989   3.919   0.231 -0.5016  0.4639 -0.2331
12073TIP3    H157710   2.969   3.847   0.171 -0.7228 -0.6463  1.1207
12073TIP3    H257711   2.907   3.937   0.275  0.0044  0.1659  0.8669
12074TIP3   OH257712   1.696   4.972  12.321  0.4449 -0.5021 -0.5630
12074TIP3    H157713   1.654   5.058  12.323  1.6901  0.1323  1.8013
12074TIP3    H257714   1.769   4.982  12.260  0.0991 -0.1389 -0.9264
12075TIP3   OH257715   2.231   1.541  14.995  0.0973  0.4655 -0.4621
12075TIP3    H157716   2.189   1.611  14.945  1.7477  2.2369  0.4733
12075TIP3    H257717   2.206   1.558  15.086  0.6484 -0.0371 -0.2056
12076TIP3   OH257718   0.939   5.701  14.839 -0.2858  0.0853  0.2979
12076TIP3    H157719   0.908   5.663  14.921  2.0580 -1.7333  0.4452
12076TIP3    H257720   0.891   5.653  14.771  0.1737 -0.7696  0.5653
12077TIP3   OH257721   1.790   2.798   4.953  0.0441  0.0317  0.3877
12077TIP3    H157722   1.863   2.818   5.012 -0.7914  1.5288  0.9650
12077TIP3    H257723   1.773   2.880   4.907 -2.4689  0.3034  1.6236
12078TIP3   OH257724   0.116   2.742   2.757  0.0185 -0.1392  0.0591
12078TIP3    H157725   0.052   2.672   2.741 -0.5766  0.9279 -2.9534
12078TIP3    H257726   0.074   2.799   2.821 -1.8294  0.2099 -1.4029
12079TIP3   OH257727   3.850   6.224  15.326  0.1103  0.5384 -0.4126
12079TIP3    H157728   3.808   6.138  15.329 -0.4142  0.8182  1.5972
12079TIP3    H257729   3.790   6.278  15.274 -0.6273  0.2224  0.0964
12080TIP3   OH257730   6.089   5.060   3.452  0.1276  0.2241 -0.7142
12080TIP3    H157731   6.179   5.089   3.436  0.1720 -0.1795 -1.2546
12080TIP3    H257732   6.081   4.979   3.400 -0.1426 -0.4510  0.3472
12081TIP3   OH257733   1.454   5.118   1.997  0.3049  0.0565 -0.3371
12081TIP3    H157734   1.509   5.182   2.042  0.2342  0.2103 -0.4672
12081TIP3    H257735   1.398   5.082   2.066  0.8463 -0.3966 -0.1274
12082TIP3   OH257736   2.926   6.339  15.476  0.5614 -0.1560 -0.3148
12082TIP3    H157737   2.918   6.255  15.522 -0.2357  0.3049  0.4223
12082TIP3    H257738   2.990   6.389  15.528  0.5275 -0.0606 -0.3643
12083TIP3   OH257739   0.133   2.618   3.947 -0.1938  0.0777 -0.1785
12083TIP3    H157740   0.190   2.549   3.912 -0.3564  0.5081 -1.3383
12083TIP3    H257741   0.063   2.626   3.882  0.7110  2.4899 -0.9781
12084TIP3   OH257742   5.167   0.221  14.282  0.4438  0.9127 -0.4157
12084TIP3    H157743   5.166   0.191  14.191  0.3235 -1.4786  0.2955
12084TIP3    H257744   5.112   0.299  14.283 -0.2447  0.4875 -2.2572
12085TIP3   OH257745   2.398   5.625   4.018  0.1560  0.0702  0.1620
12085TIP3    H157746   2.314   5.627   4.065  0.0319 -0.2241 -0.0475
12085TIP3    H257747   2.438   5.542   4.042  0.6075  0.4116  0.6304
12086TIP3   OH257748   6.129   2.108   6.764  0.1470  0.7428  0.3531
12086TIP3    H157749   6.188   2.176   6.732  1.5798 -0.9482 -0.7612
12086TIP3    H257750   6.187   2.041   6.799 -1.1097 -0.8140 -0.4538
12087TIP3   OH257751   2.807   4.045   0.785 -0.0532  0.2752 -0.2484
12087TIP3    H157752   2.757   3.982   0.733 -0.9837  0.9011 -0.1294
12087TIP3    H257753   2.765   4.129   0.768 -0.7419  0.4271  1.9203
12088TIP3   OH257754   5.960   1.405   5.368 -0.4476  0.1552 -0.1639
12088TIP3    H157755   5.953   1.414   5.463 -1.6762 -0.4313 -0.1707
12088TIP3    H257756   6.033   1.345   5.355  0.3278  0.9727  0.3614
12089TIP3   OH257757   3.076   0.107  11.559  0.2703  1.0317 -0.6570
12089TIP3    H157758   3.127   0.049  11.616 -1.3840  0.0381 -0.1315
12089TIP3    H257759   3.030   0.048  11.499  0.4415  1.9648 -1.7465
12090TIP3   OH257760   2.958   5.887  11.600 -0.2699  0.0222  0.2590
12090TIP3    H157761   2.951   5.806  11.550  3.7031  0.1624 -0.8503
12090TIP3    H257762   2.990   5.859  11.687  1.7766  0.3053 -0.3376
12091TIP3   OH257763   1.902   6.766   4.477  0.8181  0.3871  0.0984
12091TIP3    H157764   1.942   6.852   4.465  1.4596  0.0097 -0.5113
12091TIP3    H257765   1.969   6.704   4.449  0.6594 -0.3519  1.2740
12092TIP3   OH257766   5.522   3.031   2.181  0.3962 -0.6688 -0.3775
12092TIP3    H157767   5.538   2.937   2.168 -1.1925 -1.0284 -0.0211
12092TIP3    H257768   5.609   3.069   2.191  1.0343 -2.4113  1.4269
12093TIP3   OH257769   6.139   1.022  16.911 -0.6578 -0.3377  0.6055
12093TIP3    H157770   6.197   0.949  16.933 -1.8254 -1.0726  1.3662
12093TIP3    H257771   6.054   0.998  16.949 -1.2022  1.1875  0.4461
12094TIP3   OH257772   1.136   3.733   0.271  0.0554 -0.0419  0.1588
12094TIP3    H157773   1.164   3.815   0.311  0.5029 -0.6120  1.0613
12094TIP3    H257774   1.044   3.724   0.298  0.2967 -0.3225  0.9339
12095TIP3   OH257775   4.704   0.449  13.217  0.3880 -0.0293 -0.0610
12095TIP3    H157776   4.661   0.418  13.296  0.3456 -0.3186 -0.1964
12095TIP3    H257777   4.694   0.544  13.220 -1.5162 -0.1667 -0.7959
12096TIP3   OH257778   6.622   5.477   1.818  0.0364  0.3073 -0.0059
12096TIP3    H157779   6.571   5.550   1.853  1.2525  0.9165  0.5557
12096TIP3    H257780   6.709   5.514   1.801  0.4626 -0.8334 -0.4241
12097TIP3   OH257781   0.257   5.113  14.026 -0.3829  0.2826  0.1755
12097TIP3    H157782   0.213   5.034  14.058 -1.5250  0.7316 -0.2100
12097TIP3    H257783   0.279   5.163  14.105 -0.9185  0.2192  0.3688
12098TIP3   OH257784   5.609   6.441  13.027 -0.3900  0.6683 -0.0424
12098TIP3    H157785   5.674   6.507  13.003  0.3807 -0.4517 -1.1955
12098TIP3    H257786   5.561   6.425  12.945  0.0920 -0.8693 -0.0643
12099TIP3   OH257787   0.911   4.978   4.763 -0.1516 -0.0909  0.0793
12099TIP3    H157788   0.937   4.921   4.835  0.4267 -0.1789 -0.1921
12099TIP3    H257789   0.910   5.066   4.802 -0.7955 -0.2477  0.4322
12100TIP3   OH257790   6.109   2.431   4.333 -0.7178 -0.6516  0.1559
12100TIP3    H157791   6.164   2.368   4.288 -0.6905  1.2810 -2.8161
12100TIP3    H257792   6.021   2.392   4.332 -0.6403 -0.8327 -1.3183
12101TIP3   OH257793   4.057   2.178   3.774 -0.7008 -0.4150  0.1341
12101TIP3    H157794   3.963   2.158   3.772 -0.5306 -1.8775  2.2491
12101TIP3    H257795   4.081   2.165   3.866  1.9499 -2.0327 -0.6867
12102TIP3   OH257796   3.478   3.996  15.148  0.0494 -0.0409  0.2068
12102TIP3    H157797   3.424   3.935  15.097 -0.3236 -0.2527  0.8393
12102TIP3    H257798   3.486   3.955  15.233 -1.1396  1.2975  1.0058
12103TIP3   OH257799   4.904   1.151   2.864 -0.0410  0.2007  0.0021
12103TIP3    H157800   4.938   1.167   2.952  2.1017  0.1861 -0.7476
12103TIP3    H257801   4.816   1.116   2.877  0.3376 -0.0628  2.1255
12104TIP3   OH257802   4.658   5.293   2.021  0.0432  0.6419 -0.1265
12104TIP3    H157803   4.672   5.199   2.032  1.3398  0.8239 -0.0490
12104TIP3    H257804   4.742   5.333   2.046  0.0794  1.7019 -1.7825
12105TIP3   OH257805   6.431   6.325   3.593  0.0318 -0.1690  0.2843
12105TIP3    H157806   6.420   6.253   3.654 -1.5294  0.0626  0.3218
12105TIP3    H257807   6.460   6.399   3.647 -1.9011  0.1932  0.8991
12106TIP3   OH257808   0.489   2.563   5.530 -0.3585 -0.0319  0.0021
12106TIP3    H157809   0.498   2.567   5.435 -0.3545 -0.6784 -0.0273
12106TIP3    H257810   0.558   2.503   5.559 -0.0184  0.5663  0.4697
12107TIP3   OH257811   1.361   4.700  13.346 -0.3583  0.4612  0.1628
12107TIP3    H157812   1.453   4.680  13.365 -1.2277 -2.6981  1.6138
12107TIP3    H257813   1.346   4.784  13.390  2.0456  1.6492 -1.0643
12108TIP3   OH257814   5.475   6.471  15.911  0.0723  0.3360 -0.2167
12108TIP3    H157815   5.441   6.409  15.847 -0.5332 -0.4524  0.8321
12108TIP3    H257816   5.568   6.480  15.890  0.1671 -0.9418 -0.3785
12109TIP3   OH257817   5.792   1.957   1.659 -0.6591  0.0391 -0.8221
12109TIP3    H157818   5.699   1.960   1.681  0.0232  0.6669  2.4337
12109TIP3    H257819   5.813   2.047   1.634 -0.6800  0.1528 -0.4283
12110TIP3   OH257820   1.242   2.294   3.275 -0.2710  0.6594 -0.9888
12110TIP3    H157821   1.284   2.244   3.345 -0.4898 -0.4612 -1.6264
12110TIP3    H257822   1.181   2.232   3.234  0.1490  1.1416 -2.4282
12111TIP3   OH257823   2.777   3.756   1.879  0.5068 -0.0581  0.3714
12111TIP3    H157824   2.701   3.796   1.921  0.4746 -1.7060  2.0132
12111TIP3    H257825   2.831   3.830   1.851 -0.3688  1.1387  1.7243
12112TIP3   OH257826   3.357   6.279  16.143 -0.3763 -0.0709  0.3214
12112TIP3    H157827   3.375   6.351  16.082 -0.8980  0.3880  0.6956
12112TIP3    H257828   3.265   6.291  16.168 -0.2212 -0.3451  1.0675
12113TIP3   OH257829   5.948   5.164  14.083 -0.1272 -0.0924 -0.1189
12113TIP3    H157830   5.971   5.111  14.159 -0.3694 -0.8107 -0.5338
12113TIP3    H257831   5.966   5.107  14.008  1.6838  1.1649 -0.7011
12114TIP3   OH257832   2.834   2.979   0.983 -0.6454 -0.0995  0.3901
12114TIP3    H157833   2.822   3.065   0.943 -2.3065 -0.8517 -0.8109
12114TIP3    H257834   2.883   2.998   1.064 -0.6720  1.9163 -0.0017
12115TIP3   OH257835   3.598   1.383  12.546 -0.1750  0.5648 -0.6205
12115TIP3    H157836   3.559   1.401  12.461 -0.5667  0.1370 -0.5385
12115TIP3    H257837   3.556   1.302  12.575 -0.3682  0.9337  0.1761
12116TIP3   OH257838   6.268   1.975  11.656 -0.9038  0.0689 -0.1265
12116TIP3    H157839   6.317   2.058  11.655  0.9549 -0.9278  1.0520
12116TIP3    H257840   6.225   1.971  11.571 -2.4214  2.9735  0.3712
12117TIP3   OH257841   4.765   5.812  14.359  0.0292  0.4764  0.3313
12117TIP3    H157842   4.728   5.871  14.425 -1.5139 -1.3940  1.2278
12117TIP3    H257843   4.748   5.856  14.275 -1.2296  1.2297  0.9596
12118TIP3   OH257844   1.145   5.686   1.456  0.2741  0.7869 -0.2236
12118TIP3    H157845   1.159   5.597   1.422  0.9745  0.1986  1.4801
12118TIP3    H257846   1.067   5.678   1.511  0.9871  0.9349  0.8359
12119TIP3   OH257847   5.951   4.343   4.272  0.0763  0.0591 -0.4124
12119TIP3    H157848   6.027   4.391   4.307 -0.1229  0.9877 -1.2118
12119TIP3    H257849   5.893   4.411   4.238 -0.9727 -0.6649 -0.1229
12120TIP3   OH257850   4.761   2.826  15.772  0.1399  0.1932  0.1121
12120TIP3    H157851   4.812   2.845  15.850 -0.2574 -2.0049  0.9963
12120TIP3    H257852   4.685   2.777  15.805 -0.4140 -0.1525 -1.5720
12121TIP3   OH257853   4.488   0.175   4.621 -0.0238  0.0904 -0.5664
12121TIP3    H157854   4.471   0.268   4.636 -0.5282 -0.2519  1.2267
12121TIP3    H257855   4.470   0.133   4.706 -0.4008 -1.7238 -1.4908
12122TIP3   OH257856   2.254   4.826  11.159 -0.0920  0.0163  0.0686
12122TIP3    H157857   2.238   4.882  11.083  0.2613 -0.8024 -0.6147
12122TIP3    H257858   2.204   4.746  11.141 -2.1673  0.7855  1.9019
12123TIP3   OH257859   1.966   1.395   4.859 -0.2018 -0.0326  0.0758
12123TIP3    H157860   1.891   1.448   4.886 -1.3050 -0.3278 -2.1456
12123TIP3    H257861   2.011   1.449   4.794 -0.2564 -1.0114 -0.8131
12124TIP3   OH257862   4.611   6.091   0.139 -0.1341  0.1259 -0.4513
12124TIP3    H157863   4.634   6.069   0.049 -0.3480 -1.7093 -0.0959
12124TIP3    H257864   4.515   6.089   0.141 -0.1174 -0.7924  0.0141
12125TIP3   OH257865   3.485   3.945   1.941  0.6112 -0.5589  0.0586
12125TIP3    H157866   3.461   3.901   2.023  2.0809 -1.2940  0.1113
12125TIP3    H257867   3.501   4.036   1.967 -3.0597  0.3139 -0.1544
12126TIP3   OH257868   5.047   3.052   5.613  0.5768 -0.4260 -0.7349
12126TIP3    H157869   4.986   3.098   5.672  0.4914 -0.4497 -0.8046
12126TIP3    H257870   4.991   2.995   5.561  0.6590 -0.4439 -0.8031
12127TIP3   OH257871   6.465   0.947  15.073  0.3905  0.0052  0.4422
12127TIP3    H157872   6.425   1.016  15.020 -1.0693 -0.2094  1.1970
12127TIP3    H257873   6.513   0.893  15.010 -1.7155 -0.5469 -0.8065
12128TIP3   OH257874   0.575   3.615  15.263  0.1340  0.0545 -0.7124
12128TIP3    H157875   0.503   3.582  15.316 -0.4270  2.4316  0.1315
12128TIP3    H257876   0.651   3.561  15.289 -0.9351 -1.3192 -0.3331
12129TIP3   OH257877   3.138   0.395  13.617  0.0077  0.6815 -0.3512
12129TIP3    H157878   3.078   0.381  13.690  1.1823 -1.0449  0.3313
12129TIP3    H257879   3.081   0.399  13.540 -0.9809 -4.4782 -0.2463
12130TIP3   OH257880   1.648   6.587   1.385 -0.0964  0.7794 -0.2553
12130TIP3    H157881   1.697   6.574   1.466 -0.2522 -0.9840 -0.3977
12130TIP3    H257882   1.672   6.511   1.331 -3.3130 -0.4697 -0.1361
12131TIP3   OH257883   2.812   1.004   4.806  0.0612 -0.6577 -1.0564
12131TIP3    H157884   2.841   1.090   4.778  1.5221 -0.5220  0.6765
12131TIP3    H257885   2.861   0.942   4.752  0.5212 -0.4085 -0.9211
12132TIP3   OH257886   6.434   5.506   0.422  0.5665 -0.1231 -0.0896
12132TIP3    H157887   6.470   5.461   0.498  0.2013 -0.2876 -0.0123
12132TIP3    H257888   6.479   5.466   0.347  1.2866  0.3808  0.0645
12133TIP3   OH257889   6.013   0.308  14.981  0.5971  0.5460  0.0227
12133TIP3    H157890   6.096   0.271  14.950  0.9441  0.9860  0.4133
12133TIP3    H257891   6.038   0.371  15.048 -0.1142 -0.1162  0.9476
12134TIP3   OH257892   6.425   2.522  14.331 -0.0602 -0.0885 -0.2886
12134TIP3    H157893   6.353   2.536  14.269 -1.1930 -0.8345  0.8042
12134TIP3    H257894   6.392   2.455  14.391  1.1776  0.2916  0.8640
12135TIP3   OH257895   4.193   0.970  16.609 -0.1965 -1.0264  0.0154
12135TIP3    H157896   4.189   0.896  16.670 -1.0526  0.3549  1.7241
12135TIP3    H257897   4.122   1.028  16.637  0.5475  0.5373 -1.1785
12136TIP3   OH257898   4.639   4.551  14.592  0.1666  0.0995 -0.5281
12136TIP3    H157899   4.588   4.503  14.527  0.8882 -1.0969 -0.2204
12136TIP3    H257900   4.591   4.634  14.602 -0.1022  0.2179 -2.3749
12137TIP3   OH257901   2.099   5.462   6.088 -0.2233  0.6127 -0.1985
12137TIP3    H157902   2.132   5.531   6.032 -1.5810  0.8465 -0.7562
12137TIP3    H257903   2.111   5.381   6.038  0.1539  0.6062 -0.0976
12138TIP3   OH257904   4.800   1.787   5.336 -0.1039 -0.3009 -0.0241
12138TIP3    H157905   4.817   1.737   5.416  1.2279 -1.1429 -0.7923
12138TIP3    H257906   4.712   1.824   5.349 -0.4641 -1.5161  1.2485
12139TIP3   OH257907   2.630   5.039   4.803 -0.6522  0.1634 -0.0440
12139TIP3    H157908   2.677   5.112   4.844  0.0062  0.4517 -1.2598
12139TIP3    H257909   2.606   5.071   4.717 -1.0699 -0.7863 -0.2961
12140TIP3   OH257910   5.437   1.716   3.337  0.4310 -0.5413  0.1423
12140TIP3    H157911   5.362   1.729   3.394  0.4998  0.4593  0.0239
12140TIP3    H257912   5.412   1.758   3.255  1.5811  0.8772  0.4922
12141TIP3   OH257913   6.550   4.388  17.333  0.0146  0.7666 -0.4843
12141TIP3    H157914   6.525   4.423  17.247  0.2928  0.0447 -0.8791
12141TIP3    H257915   6.588   4.462  17.379 -1.2153  1.4451 -0.5396
12142TIP3   OH257916   5.830   3.558  11.947  0.1555  0.1768 -0.7652
12142TIP3    H157917   5.812   3.517  12.032 -1.9967 -0.6667 -1.5581
12142TIP3    H257918   5.924   3.579  11.950  0.7589 -2.2579  0.7958
12143TIP3   OH257919   4.225   2.346  17.159 -0.5788 -0.0345  0.6128
12143TIP3    H157920   4.248   2.371  17.070 -2.5914  1.1135  0.3641
12143TIP3    H257921   4.306   2.359  17.209  0.1231  0.9384 -0.7166
12144TIP3   OH257922   6.122   4.450  12.289  0.0944  0.2359 -0.2761
12144TIP3    H157923   6.041   4.411  12.258  0.2114 -0.2346  0.0040
12144TIP3    H257924   6.095   4.507  12.361  0.1483 -1.0028  0.7727
12145TIP3   OH257925   2.217   5.706  15.551 -0.5536 -0.4865  0.0484
12145TIP3    H157926   2.225   5.616  15.518  0.9601 -0.9471  1.5464
12145TIP3    H257927   2.129   5.711  15.587 -0.2373 -1.7758  1.0570
12146TIP3   OH257928   1.583   0.590  14.537 -0.0953  0.1080 -0.2832
12146TIP3    H157929   1.534   0.515  14.503  0.1351 -1.1129  1.9254
12146TIP3    H257930   1.671   0.581  14.500 -0.0821 -0.6980 -0.0600
12147TIP3   OH257931   1.953   2.358   1.018  0.0294  0.0685 -0.0171
12147TIP3    H157932   1.864   2.322   1.016 -0.1637  0.4839  0.7199
12147TIP3    H257933   1.967   2.392   0.930 -0.5201 -0.0676 -0.1617
12148TIP3   OH257934   6.201   4.569  13.870 -0.3501 -0.0499  0.3130
12148TIP3    H157935   6.270   4.576  13.805  0.2642  0.7636  1.0316
12148TIP3    H257936   6.228   4.496  13.927 -1.0502 -0.9748 -0.5102
12149TIP3   OH257937   0.588   3.865   0.447  0.1485  0.3857 -0.3718
12149TIP3    H157938   0.642   3.928   0.495  0.9235 -0.1761 -0.4795
12149TIP3    H257939   0.498   3.893   0.463  0.4818  1.8838 -0.9150
12150TIP3   OH257940   5.495   6.409   1.839 -0.5299  0.0080 -0.0540
12150TIP3    H157941   5.477   6.488   1.889  0.9312  2.6345 -3.2989
12150TIP3    H257942   5.409   6.379   1.810 -0.9904  2.9595 -2.1667
12151TIP3   OH257943   3.629   1.287  16.263 -0.5636  0.3495 -0.7599
12151TIP3    H157944   3.536   1.268  16.254 -0.1569 -1.2650 -2.1173
12151TIP3    H257945   3.643   1.366  16.211 -1.1133  0.4411 -0.7720
12152TIP3   OH257946   4.975   2.486   2.256 -0.0093  0.3461  0.4471
12152TIP3    H157947   4.971   2.391   2.266  0.2336  0.3805  0.9213
12152TIP3    H257948   5.061   2.510   2.292 -0.1791  0.7699  0.5822
12153TIP3   OH257949   6.287   5.947  12.430  0.0478 -0.6337 -0.2013
12153TIP3    H157950   6.275   5.891  12.507 -0.2406  0.6218  0.6840
12153TIP3    H257951   6.377   5.930  12.402 -0.5062 -2.6875 -0.9089
12154TIP3   OH257952   1.504   1.778  11.564  0.0059  0.2279 -0.4760
12154TIP3    H157953   1.524   1.741  11.478 -3.2240 -0.1566 -1.1654
12154TIP3    H257954   1.508   1.703  11.624  1.8359  0.4216 -0.2933
12155TIP3   OH257955   1.831   2.767  15.793  0.3528 -0.0421 -0.1685
12155TIP3    H157956   1.763   2.828  15.820 -0.1500 -0.8287  0.3788
12155TIP3    H257957   1.830   2.770  15.697 -0.0877  0.3433 -0.1525
12156TIP3   OH257958   2.483   3.214   0.459  0.3014  0.2571 -0.8452
12156TIP3    H157959   2.496   3.120   0.443 -0.5172  0.0912 -0.6246
12156TIP3    H257960   2.427   3.217   0.537  1.3819  0.9689 -0.0731
12157TIP3   OH257961   1.584   2.845  14.418  0.4137 -0.3280 -0.4242
12157TIP3    H157962   1.606   2.764  14.463 -0.1575  0.4902  1.4295
12157TIP3    H257963   1.640   2.845  14.340  0.8003 -2.2250 -0.1916
12158TIP3   OH257964   4.541   5.912  16.208 -0.4647  0.0226  0.4611
12158TIP3    H157965   4.621   5.963  16.199 -0.6312  0.1488 -0.3851
12158TIP3    H257966   4.540   5.855  16.131 -2.6387  2.1010 -1.2370
12159TIP3   OH257967   1.868   1.186  11.863 -0.4303  0.1670 -0.4862
12159TIP3    H157968   1.802   1.117  11.873  0.9613 -1.0468  0.8513
12159TIP3    H257969   1.915   1.163  11.783 -1.0702  0.5769 -0.9942
12160TIP3   OH257970   1.503   6.407   1.003 -0.3534  0.1170 -0.8642
12160TIP3    H157971   1.521   6.358   1.084  0.8320  0.3007 -0.9926
12160TIP3    H257972   1.575   6.470   0.997 -0.6928  0.4274 -1.8142
12161TIP3   OH257973   2.736   4.437  11.613 -0.0525  1.0309  0.0345
12161TIP3    H157974   2.764   4.490  11.538  2.1503  2.1052  1.5065
12161TIP3    H257975   2.719   4.350  11.576 -0.0238  1.7785 -1.8455
12162TIP3   OH257976   2.159   4.005  14.607  0.4158  0.7933  0.3001
12162TIP3    H157977   2.180   3.916  14.633 -1.7170  0.1037 -0.1321
12162TIP3    H257978   2.218   4.024  14.534 -0.0716 -0.8381 -0.5652
12163TIP3   OH257979   1.196   4.383   3.991  0.1353  0.3012  0.6076
12163TIP3    H157980   1.256   4.394   3.917  1.1112 -0.3554  1.2795
12163TIP3    H257981   1.114   4.354   3.951  1.4155 -2.7651 -0.0840
12164TIP3   OH257982   3.913   4.807   3.010  0.1577  0.6149 -0.3355
12164TIP3    H157983   3.860   4.861   2.951  0.9970  0.8791 -0.8798
12164TIP3    H257984   3.990   4.862   3.028 -0.4313  0.8486  1.6288
12165TIP3   OH257985   3.961   1.770  13.844 -0.4108  0.5591  0.6189
12165TIP3    H157986   3.879   1.776  13.796  0.8273  2.1938 -1.4692
12165TIP3    H257987   3.994   1.859  13.847  0.9467  0.0606  2.1131
12166TIP3   OH257988   2.399   2.342  14.993 -0.2096  0.3335 -0.5054
12166TIP3    H157989   2.403   2.255  15.033 -4.0403 -0.9107 -2.3137
12166TIP3    H257990   2.482   2.350  14.946  1.5621 -0.9405  2.1351
12167TIP3   OH257991   6.292   0.743  15.212 -0.3389 -0.3795  0.1111
12167TIP3    H157992   6.331   0.816  15.164  0.2717  0.6885  2.1285
12167TIP3    H257993   6.367   0.687  15.233 -0.6829 -1.1397 -0.6451
12168TIP3   OH257994   5.634   6.073   1.736  0.0479 -0.1050  0.5535
12168TIP3    H157995   5.671   5.985   1.735  0.3496 -0.0191  1.9903
12168TIP3    H257996   5.539   6.059   1.744  0.1506 -0.3234  1.5830
12169TIP3   OH257997   4.119   6.475   3.611 -0.0376 -0.0046  0.1239
12169TIP3    H157998   4.153   6.543   3.553  0.4292  0.4528  0.9151
12169TIP3    H257999   4.040   6.514   3.650  0.2949  0.1428  0.6670
12170TIP3   OH258000   6.113   1.307   4.223  0.0847  0.1191 -0.7167
12170TIP3    H158001   6.141   1.386   4.177  1.2487 -0.0048 -0.2310
12170TIP3    H258002   6.187   1.283   4.278 -1.1555  0.1012  1.0332
12171TIP3   OH258003   5.998   0.688  14.353 -0.3076  0.1248  0.0049
12171TIP3    H158004   6.036   0.690  14.265 -0.8316  0.9589 -0.2098
12171TIP3    H258005   6.038   0.763  14.398  0.5458 -0.7398  0.7417
12172TIP3   OH258006   4.012   4.486  16.114  0.2582 -0.3734  0.1015
12172TIP3    H158007   4.057   4.543  16.176  1.3795  0.0459 -1.0602
12172TIP3    H258008   3.970   4.547  16.052  1.0099 -0.7931 -0.8318
12173TIP3   OH258009   5.494   0.531   4.631  0.6005 -0.0979 -0.4744
12173TIP3    H158010   5.489   0.463   4.698 -0.4339  0.7961  0.4013
12173TIP3    H258011   5.502   0.613   4.680 -1.1468  0.6722 -1.3678
12174TIP3   OH258012   5.908   4.718  13.110 -0.5652 -0.7516 -0.3210
12174TIP3    H158013   5.844   4.656  13.143 -2.0005  0.1425 -1.3058
12174TIP3    H258014   5.966   4.736  13.185 -1.4823 -1.5549  0.5986
12175TIP3   OH258015   5.070   3.809  16.942  0.4857  0.4714 -0.0033
12175TIP3    H158016   5.099   3.749  17.011  0.1091  0.9277  0.5715
12175TIP3    H258017   5.057   3.754  16.865  1.1335 -0.0155  0.2294
12176TIP3   OH258018   4.110   0.004   2.844  0.7234 -0.0593 -0.0389
12176TIP3    H158019   4.138   0.095   2.840  0.5370  0.0906  1.5202
12176TIP3    H258020   4.104  -0.016   2.938 -0.5628 -1.2583 -0.3317
12177TIP3   OH258021   1.454   3.386  11.197 -0.2394 -0.0216  0.0123
12177TIP3    H158022   1.374   3.435  11.177  0.8375  1.3447 -1.2092
12177TIP3    H258023   1.514   3.452  11.232  0.9972 -0.5914 -0.9502
12178TIP3   OH258024   5.447   2.500  14.850 -0.5079 -0.3420  0.0430
12178TIP3    H158025   5.435   2.580  14.799  2.8093  0.4412  0.2989
12178TIP3    H258026   5.460   2.530  14.940  1.5262 -1.0290  0.0311
12179TIP3   OH258027   3.816   2.185  15.514 -0.4617  0.0565 -0.1997
12179TIP3    H158028   3.799   2.191  15.608  0.5490  0.1215 -0.0065
12179TIP3    H258029   3.761   2.114  15.483 -0.6133 -0.1262  0.4900
12180TIP3   OH258030   2.380   4.888   5.145 -0.2222 -0.3329 -0.0942
12180TIP3    H158031   2.394   4.965   5.200  0.3606 -0.9059  0.5942
12180TIP3    H258032   2.436   4.820   5.184 -2.0387 -1.6346  0.3836
12181TIP3   OH258033   1.218   2.222  12.577 -0.1785 -0.6937 -0.5089
12181TIP3    H158034   1.177   2.171  12.647  0.0662  0.0498  0.1790
12181TIP3    H258035   1.236   2.157  12.508 -1.1513 -1.2907 -0.2234
12182TIP3   OH258036   3.534   6.717   0.207  0.2009  0.3165  0.6187
12182TIP3    H158037   3.557   6.730   0.299  0.3623  0.6613  0.5313
12182TIP3    H258038   3.563   6.798   0.164  1.4538 -0.4116  0.0243
12183TIP3   OH258039   0.126   0.640  13.913  0.4021 -0.2431  0.1855
12183TIP3    H158040   0.152   0.583  13.840 -1.2252  0.4872 -1.0420
12183TIP3    H258041   0.165   0.600  13.990  2.1927 -1.0710 -1.0633
12184TIP3   OH258042   5.834   2.234  17.289 -0.2906  0.0016 -0.4946
12184TIP3    H158043   5.745   2.197  17.290 -0.8534  1.2664 -1.0794
12184TIP3    H258044   5.827   2.314  17.341  0.3140  0.5199 -1.1935
12185TIP3   OH258045   1.551   1.332   5.530 -0.8805 -0.4076 -0.3705
12185TIP3    H158046   1.542   1.293   5.443  2.5470 -1.7350 -0.2721
12185TIP3    H258047   1.588   1.419   5.513 -0.4583 -0.5648 -0.2621
12186TIP3   OH258048   4.121   0.374   1.622 -0.3871  0.1045 -0.3572
12186TIP3    H158049   4.094   0.299   1.569 -0.7298 -0.3503  0.4349
12186TIP3    H258050   4.182   0.423   1.567 -1.0696 -0.1165 -1.3237
12187TIP3   OH258051   2.803   4.388   5.130 -0.3897 -0.4622  0.1224
12187TIP3    H158052   2.882   4.344   5.100  0.6841  1.5142 -0.1547
12187TIP3    H258053   2.810   4.388   5.225  0.2761  0.1808  0.0901
12188TIP3   OH258054   4.500   2.187   1.359  0.0911  0.1129 -0.2123
12188TIP3    H158055   4.578   2.157   1.313 -0.2610 -2.1965  0.5434
12188TIP3    H258056   4.448   2.108   1.373 -1.6193  1.3228  0.7536
12189TIP3   OH258057   5.404   0.097   4.732 -0.8046  0.0923 -0.2937
12189TIP3    H158058   5.355   0.063   4.807 -2.1545  0.1641 -1.1175
12189TIP3    H258059   5.480   0.039   4.726 -1.6453 -1.0847 -0.0025
12190TIP3   OH258060   6.645   4.799  17.381  0.1138 -0.1162 -0.2789
12190TIP3    H158061   6.674   4.808  17.290 -1.1918  1.1357 -0.6099
12190TIP3    H258062   6.578   4.867  17.391  0.7049  0.2091  1.8219
12191TIP3   OH258063   6.118   4.125   0.936 -0.5290  0.5656  0.4988
12191TIP3    H158064   6.138   4.218   0.937 -2.1461  0.9470 -0.0768
12191TIP3    H258065   6.107   4.102   1.029  2.5537  0.2693  0.8831
12192TIP3   OH258066   6.582   6.372  10.968  0.4668 -0.0059  0.1180
12192TIP3    H158067   6.520   6.343  11.035 -0.4980  1.5401 -0.0723
12192TIP3    H258068   6.553   6.327  10.888  0.7900 -0.7922  0.4359
12193TIP3   OH258069   1.630   3.248  11.595  0.0332  0.4429  0.1044
12193TIP3    H158070   1.656   3.335  11.567  0.6306  0.1410 -0.2861
12193TIP3    H258071   1.549   3.230  11.547 -0.2041  0.8518  0.3369
12194TIP3   OH258072   6.607   2.349  15.952  0.5349 -0.1020  0.7049
12194TIP3    H158073   6.668   2.280  15.977  2.0619  0.5415 -0.9693
12194TIP3    H258074   6.661   2.428  15.950 -0.2229  0.4342 -1.1767
12195TIP3   OH258075   0.573   0.566   4.901  0.0973  0.1785 -0.4264
12195TIP3    H158076   0.553   0.501   4.969  0.9079 -0.9389 -1.2166
12195TIP3    H258077   0.532   0.647   4.932 -2.0108 -0.9881 -0.0145
12196TIP3   OH258078   2.086   5.455   0.833 -0.4451  0.3592 -0.0473
12196TIP3    H158079   2.004   5.503   0.823 -1.3302 -1.1302 -0.1350
12196TIP3    H258080   2.089   5.396   0.758 -0.0934 -0.7411  0.8087
12197TIP3   OH258081   4.578   6.157  17.044  0.3832  0.0130 -0.5243
12197TIP3    H158082   4.549   6.225  17.106  1.2033 -1.6890  1.8499
12197TIP3    H258083   4.672   6.174  17.032  0.2007  0.4197 -1.4614
12198TIP3   OH258084   6.670   3.132   1.122 -0.1275  0.0578  0.2514
12198TIP3    H158085   6.587   3.160   1.083 -1.2790  1.0123  3.0573
12198TIP3    H258086   6.733   3.200   1.100 -1.1186  1.3259  1.1642
12199TIP3   OH258087   6.524   6.185  13.087 -0.1402  0.2896 -0.0646
12199TIP3    H158088   6.596   6.138  13.046 -0.7250 -0.5009 -0.1934
12199TIP3    H258089   6.467   6.117  13.122 -1.0638  0.8877 -0.3620
12200TIP3   OH258090   4.702   0.281  16.982 -0.8619 -0.0510 -0.0720
12200TIP3    H158091   4.708   0.373  17.007 -4.3238  0.6046 -1.0675
12200TIP3    H258092   4.754   0.274  16.902 -1.6912  1.4410 -0.7784
12201TIP3   OH258093   3.582   2.361  15.694 -0.6532 -0.7093  0.3946
12201TIP3    H158094   3.488   2.378  15.689 -0.5150 -0.1207 -0.3508
12201TIP3    H258095   3.588   2.266  15.701 -1.2508 -1.0587 -2.5138
12202TIP3   OH258096   0.864   5.067  17.148  0.0214 -0.1246  0.4711
12202TIP3    H158097   0.913   5.010  17.207 -0.7589 -1.7979 -0.4231
12202TIP3    H258098   0.796   5.106  17.203  1.2539  0.9135  1.3450
12203TIP3   OH258099   1.118   1.860  16.951 -0.1899 -0.3749 -0.2237
12203TIP3    H158100   1.033   1.816  16.953 -0.6710  0.5347 -0.4633
12203TIP3    H258101   1.162   1.830  17.031 -1.2462  0.1562  0.5699
12204TIP3   OH258102   6.767   4.804  13.584 -0.5488  0.0343  0.1382
12204TIP3    H158103   6.757   4.858  13.506 -3.0413  0.0472  0.3832
12204TIP3    H258104   6.731   4.857  13.655  1.4759 -0.0566  1.3094
12205TIP3   OH258105   2.253   4.987   3.293  0.3795 -0.1403 -0.0238
12205TIP3    H158106   2.277   5.056   3.355 -1.2817  1.5833 -1.1833
12205TIP3    H258107   2.334   4.966   3.247  1.1991  0.0202  1.3015
12206TIP3   OH258108   2.190   0.056   2.967 -0.4685 -0.2493  0.2738
12206TIP3    H158109   2.221   0.128   3.022  0.1612 -0.1979 -0.1307
12206TIP3    H258110   2.096   0.055   2.980 -0.2326 -0.9996  2.2712
12207TIP3   OH258111   5.048   2.452  12.218  0.3676 -0.2606  0.3993
12207TIP3    H158112   5.108   2.482  12.285  1.1051  1.1564 -0.8374
12207TIP3    H258113   5.105   2.410  12.153 -0.2604 -1.0316  0.3334
12208TIP3   OH258114   5.900   0.528   0.374 -0.0703 -0.3234 -0.3837
12208TIP3    H158115   5.830   0.576   0.328  1.2414  1.3335 -0.7227
12208TIP3    H258116   5.942   0.476   0.305  0.8794  0.9449 -0.7956
12209TIP3   OH258117   2.042   0.970   5.572  0.7637  0.0887  0.0784
12209TIP3    H158118   2.027   1.065   5.565  1.4076  0.2291  0.5232
12209TIP3    H258119   2.108   0.952   5.506 -0.1977 -0.2625 -0.8137
12210TIP3   OH258120   0.395   5.927  15.739  0.6890  0.5823  0.1179
12210TIP3    H158121   0.405   5.880  15.822  0.1390 -1.5161 -0.9389
12210TIP3    H258122   0.335   5.873  15.688  0.3560  2.2572 -1.3540
12211TIP3   OH258123   1.130   0.740  17.463  0.6488 -0.3193  0.1803
12211TIP3    H158124   1.130   0.727  17.558 -0.7465 -1.0747  0.1050
12211TIP3    H258125   1.128   0.652  17.426  0.1498 -0.0264 -0.5237
12212TIP3   OH258126   4.269   4.423  14.648  0.2958  0.3361 -0.1770
12212TIP3    H158127   4.314   4.406  14.565 -1.3584  0.4872 -1.1494
12212TIP3    H258128   4.242   4.337  14.679 -0.1891  0.3789 -0.4649
12213TIP3   OH258129   6.007   0.409  15.610 -0.0666 -0.2589  0.3793
12213TIP3    H158130   6.063   0.481  15.638 -0.1796 -0.5919  1.5273
12213TIP3    H258131   5.918   0.438  15.631 -0.2252 -0.2410 -0.2917
12214TIP3   OH258132   1.955   0.948  15.726 -0.1770  0.1071 -0.4414
12214TIP3    H158133   2.025   0.945  15.792  0.5346  2.5094 -0.9857
12214TIP3    H258134   1.879   0.981  15.773 -0.1655  0.1337 -0.4414
12215TIP3   OH258135   3.255   0.139   4.709 -0.0882 -0.2075 -0.6752
12215TIP3    H158136   3.331   0.094   4.673  0.7386 -0.9581  1.7838
12215TIP3    H258137   3.291   0.217   4.752 -0.7545 -0.2873  0.0593
12216TIP3   OH258138   0.633   5.054  15.266 -0.0634  0.1673  0.2218
12216TIP3    H158139   0.581   5.135  15.269 -0.0666  0.1533  0.6716
12216TIP3    H258140   0.624   5.017  15.354 -1.2878 -1.1077 -0.3941
12217TIP3   OH258141   3.256   0.201  12.461  0.3631  0.3153 -0.5215
12217TIP3    H158142   3.308   0.282  12.458 -1.4524  1.5015 -2.0063
12217TIP3    H258143   3.297   0.143  12.397  0.3477  0.9407 -1.1043
12218TIP3   OH258144   3.562   1.787  17.353  0.2331 -0.4129 -0.1066
12218TIP3    H158145   3.652   1.793  17.384  0.5948 -0.1345 -1.1711
12218TIP3    H258146   3.559   1.706  17.302 -1.0911 -2.4101  2.8752
12219TIP3   OH258147   3.004   1.345   5.456 -0.2167  0.6477 -0.0935
12219TIP3    H158148   3.092   1.310   5.444  0.9247  2.7107  1.5878
12219TIP3    H258149   3.003   1.427   5.405 -0.7780  1.1721  0.7270
12220TIP3   OH258150   1.285   4.140  16.607 -0.0612 -0.6428  0.0001
12220TIP3    H158151   1.228   4.132  16.530  2.7201  0.0497 -2.3004
12220TIP3    H258152   1.339   4.061  16.605  2.1351  0.8053 -0.6730
12221TIP3   OH258153   3.909   5.277  10.935  0.0841 -0.2609  0.2023
12221TIP3    H158154   3.816   5.288  10.952  0.3413  0.6916  1.0685
12221TIP3    H258155   3.916   5.282  10.839 -0.4158  2.9197  0.2265
12222TIP3   OH258156   0.447   5.921  17.014  0.1435  0.5659 -0.1997
12222TIP3    H158157   0.541   5.936  17.008  0.2538  0.7742  1.6709
12222TIP3    H258158   0.435   5.866  17.091 -1.2301  0.1038 -0.7115
12223TIP3   OH258159   5.948   1.779  14.498  0.3877  0.2647  0.2296
12223TIP3    H158160   5.988   1.756  14.583 -1.0128 -0.5195  0.6982
12223TIP3    H258161   5.949   1.697  14.448 -2.2651 -0.3056  0.9478
12224TIP3   OH258162   5.337   2.280   1.622 -0.0673 -0.1516 -0.0099
12224TIP3    H158163   5.392   2.339   1.675 -0.1360 -0.6958  0.6865
12224TIP3    H258164   5.399   2.219   1.582  0.1449  1.1461 -1.7811
12225TIP3   OH258165   3.090   2.576  11.699 -0.5139 -0.3228  0.4305
12225TIP3    H158166   3.024   2.646  11.696  0.0805  0.2140 -0.5101
12225TIP3    H258167   3.148   2.601  11.771 -1.3539 -0.8218  1.2944
12226TIP3   OH258168   0.127   5.786   0.841  1.2634 -0.1678 -0.5885
12226TIP3    H158169   0.190   5.855   0.859  1.1516 -0.3400  0.5284
12226TIP3    H258170   0.127   5.732   0.921 -0.1384 -0.2839 -0.6528
12227TIP3   OH258171   4.244   3.741   4.907 -0.2718  0.1556  0.1963
12227TIP3    H158172   4.319   3.720   4.962 -0.7026 -0.8858  0.3995
12227TIP3    H258173   4.277   3.807   4.846  0.7478 -0.1315  0.4256
12228TIP3   OH258174   4.512   0.116  14.621  0.2572  0.0005 -0.5343
12228TIP3    H158175   4.454   0.084  14.552  1.2989 -1.1425 -0.9139
12228TIP3    H258176   4.600   0.111  14.583  0.8867 -0.9517  0.9760
12229TIP3   OH258177   1.289   0.287  10.681  0.4406  0.0725 -0.4916
12229TIP3    H158178   1.344   0.334  10.619  0.5638  0.3555 -0.1720
12229TIP3    H258179   1.328   0.199  10.685  1.1667  0.4016  0.0763
12230TIP3   OH258180   5.083   2.787  15.752  0.0330 -0.0546 -0.2907
12230TIP3    H158181   5.006   2.829  15.790 -0.7514 -2.8643  1.4859
12230TIP3    H258182   5.058   2.768  15.661 -0.2780  1.5118 -0.5589
12231TIP3   OH258183   2.975   6.593  11.706  0.6915 -0.3741  0.1856
12231TIP3    H158184   2.962   6.499  11.721  0.2969 -0.3577 -0.0152
12231TIP3    H258185   3.068   6.608  11.720  0.5704 -0.5947  1.2893
12232TIP3   OH258186   0.415   2.616  12.262  0.4389 -0.2809  0.1643
12232TIP3    H158187   0.486   2.679  12.248  1.0548 -1.2970 -1.5384
12232TIP3    H258188   0.457   2.542  12.305  1.2388 -2.2231 -3.5852
12233TIP3   OH258189   3.214   5.588  16.981  0.4112  0.2973  0.4660
12233TIP3    H158190   3.228   5.636  16.900  1.4390 -1.8761 -0.7080
12233TIP3    H258191   3.240   5.650  17.050  0.8556  1.7007 -0.9065
12234TIP3   OH258192   2.963   1.565  13.216 -0.1621  0.0613 -0.7503
12234TIP3    H158193   2.895   1.508  13.250 -1.1061 -0.2988 -3.0607
12234TIP3    H258194   3.041   1.509  13.210  0.6620  0.6451  2.5275
12235TIP3   OH258195   0.888   1.059   5.379 -0.2714 -0.8078 -0.1797
12235TIP3    H158196   0.891   1.154   5.366  0.8987 -0.8862 -0.6385
12235TIP3    H258197   0.795   1.037   5.376 -0.4728  0.1079 -1.7267
12236TIP3   OH258198   6.174   0.676   2.963  0.4802 -0.4797 -0.6673
12236TIP3    H158199   6.238   0.735   2.924  1.1199 -0.4113  0.4376
12236TIP3    H258200   6.093   0.727   2.965  0.8081  0.0465 -0.5327
12237TIP3   OH258201   2.863   3.985   2.124  0.0478 -0.7415  0.3743
12237TIP3    H158202   2.835   4.062   2.076  0.9705  0.3932  1.5751
12237TIP3    H258203   2.836   3.911   2.070  1.3031  0.4600 -2.0131
12238TIP3   OH258204   1.102   3.496   6.037 -0.7534 -0.1974  0.1102
12238TIP3    H158205   1.123   3.519   6.128 -0.1718 -0.7507  0.1208
12238TIP3    H258206   1.097   3.581   5.992  1.9569 -0.0036  0.0242
12239TIP3   OH258207   6.707   0.112  12.422 -0.2679 -0.0207  0.6591
12239TIP3    H158208   6.674   0.184  12.369 -2.7602 -1.3062  0.3312
12239TIP3    H258209   6.698   0.142  12.512 -0.3896  0.4205  0.5015
12240TIP3   OH258210   5.441   0.376   0.060 -0.2127  0.0971 -0.6347
12240TIP3    H158211   5.457   0.372   0.154  1.5918  1.4472 -0.8335
12240TIP3    H258212   5.442   0.285   0.031  2.4560 -0.2418  0.2257
12241TIP3   OH258213   3.356   5.161  13.388  0.1119 -0.1980 -0.2596
12241TIP3    H158214   3.387   5.229  13.329 -0.8905 -0.1517 -0.7558
12241TIP3    H258215   3.361   5.201  13.475  2.2236 -0.4938 -0.1893
12242TIP3   OH258216   5.165   2.538   5.328  0.3903  0.3271 -0.2728
12242TIP3    H158217   5.162   2.632   5.344 -1.6164  0.0440  1.5851
12242TIP3    H258218   5.119   2.526   5.245 -2.2736  0.8297  1.0123
12243TIP3   OH258219   1.998   6.681  15.387 -0.2585  0.0713 -0.1578
12243TIP3    H158220   2.040   6.711  15.467  0.0975 -0.4150 -0.1605
12243TIP3    H258221   1.985   6.761  15.335 -1.7972  0.6023  0.9742
12244TIP3   OH258222   0.282   1.134  16.355  0.1492  0.5448  0.0102
12244TIP3    H158223   0.343   1.174  16.294 -0.9520  1.7568 -0.3360
12244TIP3    H258224   0.214   1.200  16.368 -1.8444 -1.2637 -0.7281
12245TIP3   OH258225   4.219   5.516  12.744 -0.1236 -0.5381 -0.3104
12245TIP3    H158226   4.252   5.604  12.728  0.8805 -0.5908  1.2272
12245TIP3    H258227   4.277   5.459  12.694  0.3039 -0.4290  0.0562
12246TIP3   OH258228   1.748   2.545   3.563 -0.0899 -0.6635 -0.6829
12246TIP3    H158229   1.791   2.630   3.566  0.9988 -1.2267  0.3663
12246TIP3    H258230   1.713   2.539   3.474 -1.0872  1.2933 -0.4702
12247TIP3   OH258231   4.923   4.702   2.004  0.0529 -0.1292 -0.1143
12247TIP3    H158232   4.848   4.655   1.968  1.1882 -2.3267  0.2775
12247TIP3    H258233   4.892   4.736   2.088 -0.4446 -1.2118  0.1507
12248TIP3   OH258234   6.721   5.700   4.683  0.3782 -0.0051 -0.0664
12248TIP3    H158235   6.737   5.747   4.765  1.7320 -1.4067  0.5202
12248TIP3    H258236   6.714   5.608   4.709 -0.2638 -0.3570 -1.4137
12249TIP3   OH258237   6.155   5.141   0.143 -0.5512  0.0111 -0.5854
12249TIP3    H158238   6.231   5.152   0.201 -1.1884 -0.6564  0.4304
12249TIP3    H258239   6.181   5.072   0.083 -0.0242  0.4250 -0.8424
12250TIP3   OH258240   4.469   1.421   5.519  0.3612 -0.1003 -0.4026
12250TIP3    H158241   4.541   1.429   5.456  0.3399 -0.4171 -0.4717
12250TIP3    H258242   4.508   1.441   5.604  0.2897  0.7657 -0.5709
12251TIP3   OH258243   3.914   1.521  16.714  0.2157  0.3638  0.1049
12251TIP3    H158244   3.920   1.560  16.627 -0.2828 -1.1909 -0.6726
12251TIP3    H258245   3.968   1.442  16.708  2.9472  1.9347  2.2731
12252TIP3   OH258246   0.189   6.585  17.195 -0.1181  0.2770 -0.5445
12252TIP3    H158247   0.210   6.566  17.103 -0.3837 -1.7050 -0.2322
12252TIP3    H258248   0.268   6.628  17.229  0.2221  0.4720 -1.5398
12253TIP3   OH258249   3.974   1.415  17.323 -0.0665  0.1003  0.4202
12253TIP3    H158250   3.995   1.508  17.323 -1.1970  0.3708  0.2734
12253TIP3    H258251   4.002   1.383  17.409  1.5188  0.2655  0.0113
12254TIP3   OH258252   6.749   6.731   5.612  0.6189 -0.2035  0.5595
12254TIP3    H158253   6.812   6.662   5.628 -0.8466 -1.4006  1.4082
12254TIP3    H258254   6.697   6.735   5.692  0.0200  1.1896  0.1306
12255TIP3   OH258255   2.620   3.916  16.184  0.3837  0.0795 -0.1577
12255TIP3    H158256   2.680   3.853  16.224  0.8465  0.4369 -0.2769
12255TIP3    H258257   2.673   3.994  16.171 -0.3339  0.7128  0.5592
12256TIP3   OH258258   1.073   5.743   3.458 -0.2277  0.0128  0.4462
12256TIP3    H158259   1.066   5.835   3.481  1.2429  0.2149  0.1385
12256TIP3    H258260   1.151   5.737   3.403 -0.8959 -1.2480 -0.4312
12257TIP3   OH258261   0.518   4.190  13.840 -0.1502  0.0709  0.4342
12257TIP3    H158262   0.488   4.197  13.931  2.0149 -1.5313  1.3723
12257TIP3    H258263   0.610   4.215  13.843 -0.1386  0.3756 -1.4275
12258TIP3   OH258264   4.151   6.401  15.671 -0.6907  0.1245  0.6084
12258TIP3    H158265   4.127   6.370  15.584 -1.2446  1.5678  0.2123
12258TIP3    H258266   4.084   6.366  15.729 -1.8241  1.2701  0.0360
12259TIP3   OH258267   3.217   1.797   4.001  0.3871 -0.1468  0.1135
12259TIP3    H158268   3.184   1.707   4.004 -2.0748  0.6682 -0.1909
12259TIP3    H258269   3.174   1.840   4.076  0.5542  1.0606 -0.4654
12260TIP3   OH258270   0.799   2.898  17.103 -0.0966 -0.0113  0.7006
12260TIP3    H158271   0.832   2.919  17.191  1.6697 -1.1557  0.3480
12260TIP3    H258272   0.833   2.969  17.048  0.2986 -0.2397  0.6459
12261TIP3   OH258273   1.388   4.963   4.554  0.3068 -0.2027 -0.1473
12261TIP3    H158274   1.323   4.947   4.486  0.3205  0.4035 -0.3056
12261TIP3    H258275   1.351   5.033   4.608  0.9402  0.3435 -0.4033
12262TIP3   OH258276   6.485   1.848   3.185  0.1221  0.4783 -0.1706
12262TIP3    H158277   6.397   1.836   3.220 -0.5854  2.9107 -0.9007
12262TIP3    H258278   6.544   1.829   3.258 -1.0481  0.1376  0.7044
12263TIP3   OH258279   2.477   1.698   0.781  0.1697 -0.4494 -0.0263
12263TIP3    H158280   2.556   1.664   0.741  1.3456  0.7444  1.1616
12263TIP3    H258281   2.435   1.622   0.822  0.6855 -1.0897 -0.6832
12264TIP3   OH258282   6.751   6.399   0.610 -0.2471  0.9805  0.5192
12264TIP3    H158283   6.721   6.322   0.561 -0.5250  2.2194 -1.3886
12264TIP3    H258284   6.670   6.447   0.630  0.0331  1.5873  0.2226
12265TIP3   OH258285   5.106   3.060  14.840  0.1943 -0.6385  0.4026
12265TIP3    H158286   5.095   3.138  14.785 -1.3012 -1.4535 -0.5285
12265TIP3    H258287   5.198   3.036  14.829  0.3258  0.1776 -0.4192
12266TIP3   OH258288   3.774   0.036   0.877 -0.0481 -0.1940  0.8600
12266TIP3    H158289   3.759  -0.057   0.896  0.7413 -0.7248 -0.8931
12266TIP3    H258290   3.867   0.049   0.891 -0.1781  0.3618  1.2105
12267TIP3   OH258291   4.410   5.394  14.735  0.2996 -0.1651  0.3623
12267TIP3    H158292   4.458   5.359  14.660  1.0172 -0.7756  1.0861
12267TIP3    H258293   4.466   5.374  14.810 -0.3687  0.5102  1.0521
12268TIP3   OH258294   4.939   5.781   6.493  0.0612 -0.5991 -0.8628
12268TIP3    H158295   4.915   5.728   6.417 -1.9414  1.2840 -1.6348
12268TIP3    H258296   4.867   5.768   6.555 -0.7849  1.5711 -1.3059
12269TIP3   OH258297   6.068   1.688  11.065  0.1302 -0.4342  0.3341
12269TIP3    H158298   6.106   1.606  11.032 -1.2437 -1.3717  1.0080
12269TIP3    H258299   6.034   1.732  10.987  0.7429 -0.5560 -0.0093
12270TIP3   OH258300   2.858   2.875   2.141 -0.8003  0.1308 -0.0395
12270TIP3    H158301   2.877   2.896   2.049  0.6926 -0.5581  0.0762
12270TIP3    H258302   2.863   2.959   2.186  2.1866  0.0410 -0.0356
12271TIP3   OH258303   6.082   0.105  11.789  0.2605 -0.6218  0.0467
12271TIP3    H158304   6.038   0.174  11.739  0.2241 -0.7665 -0.1239
12271TIP3    H258305   6.060   0.124  11.880 -1.2331 -1.4177 -0.1199
12272TIP3   OH258306   4.213   1.051   5.759  0.2380 -0.1302 -0.5829
12272TIP3    H158307   4.280   0.996   5.800  0.2464  0.3246  0.0188
12272TIP3    H258308   4.259   1.100   5.692  0.8378  1.3143  0.8414
12273TIP3   OH258309   2.570   5.011  14.679  0.4148 -0.4018  0.0334
12273TIP3    H158310   2.632   4.981  14.612 -0.4208 -1.2104 -0.3986
12273TIP3    H258311   2.551   4.932  14.730 -0.6786 -0.2810 -0.1822
12274TIP3   OH258312   0.384   0.992   3.567  0.0656  0.0356  0.1236
12274TIP3    H158313   0.404   1.081   3.596 -0.8156  0.5553 -0.8155
12274TIP3    H258314   0.463   0.963   3.521  0.6112  0.0606  1.0203
12275TIP3   OH258315   0.666   5.630   4.217 -0.5676  0.1748 -0.3188
12275TIP3    H158316   0.654   5.593   4.305 -0.9491  1.7001  0.3097
12275TIP3    H258317   0.760   5.646   4.211 -0.3651 -1.0442 -0.6860
12276TIP3   OH258318   2.083   1.575   5.631  0.1675  0.5018 -0.0059
12276TIP3    H158319   2.028   1.499   5.615  1.8712 -1.1071  1.3820
12276TIP3    H258320   2.021   1.645   5.654 -1.4066 -0.4868 -1.0165
12277TIP3   OH258321   0.904   5.683   3.889 -0.2652  0.1213 -0.0217
12277TIP3    H158322   0.941   5.654   3.806 -2.7034 -0.9365 -0.8236
12277TIP3    H258323   0.874   5.603   3.932 -1.7098  0.8807  0.4849
12278TIP3   OH258324   2.611   0.705   6.321  0.3753  0.1230 -1.1720
12278TIP3    H158325   2.674   0.704   6.392  0.4025  0.2676 -1.1936
12278TIP3    H258326   2.538   0.651   6.352 -0.0698  1.0246 -0.6170
12279TIP3   OH258327   5.918   3.774   3.831  0.1803 -0.3792  0.7307
12279TIP3    H158328   5.970   3.807   3.904  1.2834 -1.1935  0.3471
12279TIP3    H258329   5.981   3.727   3.777 -0.8653 -0.9053 -0.0569
12280TIP3   OH258330   1.486   4.678   6.092  0.1886 -0.5636 -0.5163
12280TIP3    H158331   1.442   4.742   6.035 -2.0304  1.3380  2.9362
12280TIP3    H258332   1.579   4.698   6.083 -0.2535  1.2633 -1.6849
12281TIP3   OH258333   2.018   5.771   5.722  0.2056 -0.2819 -0.0921
12281TIP3    H158334   1.987   5.854   5.757  1.0883  0.0432 -0.0536
12281TIP3    H258335   2.101   5.755   5.768 -0.0874 -1.3272  0.1132
12282TIP3   OH258336   1.225   6.148  17.318  0.2168  0.1417 -0.2295
12282TIP3    H158337   1.301   6.164  17.374  0.6231 -1.1468 -0.3813
12282TIP3    H258338   1.173   6.228  17.325  1.6523  1.1122 -0.2426
12283TIP3   OH258339   3.596   3.742   4.742 -0.1649  0.0518 -0.0012
12283TIP3    H158340   3.632   3.828   4.765 -0.1050 -0.0858  0.4393
12283TIP3    H258341   3.628   3.725   4.654 -0.9403  0.9042 -0.4721
12284TIP3   OH258342   2.641   2.054  15.153  0.2485 -0.4134  0.1052
12284TIP3    H158343   2.621   2.056  15.060  0.5393 -1.1842  0.0243
12284TIP3    H258344   2.724   2.101  15.162  1.0230 -1.6833 -0.2355
12285TIP3   OH258345   0.117   6.057  15.705  0.0396  0.3291 -0.2875
12285TIP3    H158346   0.045   6.012  15.659  0.7537  0.3992 -1.5094
12285TIP3    H258347   0.191   5.997  15.698 -0.5041 -0.9965  3.3155
12286TIP3   OH258348   4.342   5.587   5.860  0.2396 -0.6025  0.0374
12286TIP3    H158349   4.417   5.576   5.918  0.1339  0.9711  0.5283
12286TIP3    H258350   4.285   5.512   5.880  1.2532 -1.3224  0.2911
12287TIP3   OH258351   6.467   3.803  14.351  0.1573 -0.3534 -0.3329
12287TIP3    H158352   6.460   3.875  14.287 -0.8351  0.3473  0.5365
12287TIP3    H258353   6.469   3.847  14.436  4.3645 -1.0639  0.1618
12288TIP3   OH258354   5.270   4.151   0.142  0.1800 -0.1771 -0.0696
12288TIP3    H158355   5.325   4.193   0.208 -1.1193 -0.1481  1.0534
12288TIP3    H258356   5.313   4.067   0.125 -0.5505 -1.1915  2.5098
12289TIP3   OH258357   4.254   1.960  11.938 -0.0027  0.2818 -0.4540
12289TIP3    H158358   4.271   2.044  11.981  0.1111 -0.4079  0.8893
12289TIP3    H258359   4.324   1.903  11.969 -0.4856 -0.5075 -0.7952
12290TIP3   OH258360   3.308   0.686   4.521  0.4087 -0.3281  0.0781
12290TIP3    H158361   3.373   0.618   4.538  0.2556 -0.3883  0.4329
12290TIP3    H258362   3.356   0.753   4.472  1.3139  0.5875  2.0919
12291TIP3   OH258363   0.528   1.743  16.813 -0.1379  0.3104 -0.9957
12291TIP3    H158364   0.435   1.767  16.814  0.1725  1.9162  1.7612
12291TIP3    H258365   0.571   1.818  16.773  0.1855  1.1543  0.8099
12292TIP3   OH258366   1.796   0.048  12.828 -0.0475  0.6313  0.5746
12292TIP3    H158367   1.764  -0.006  12.900 -1.0012  0.7103  0.2207
12292TIP3    H258368   1.802   0.136  12.865 -1.0845  0.7829  0.4183
12293TIP3   OH258369   1.730   6.319   4.474  0.4451 -0.0030 -0.2464
12293TIP3    H158370   1.682   6.374   4.536 -0.3405  0.0754 -0.9052
12293TIP3    H258371   1.818   6.356   4.472  0.6115 -0.2613  1.1243
12294TIP3   OH258372   6.171   3.251   5.122 -0.2538 -0.0393 -0.2302
12294TIP3    H158373   6.129   3.242   5.208  1.5770  0.9781  0.8394
12294TIP3    H258374   6.233   3.178   5.118 -0.3841 -0.1213 -0.7134
12295TIP3   OH258375   0.467   3.899   4.904 -0.1751  0.1401  0.5353
12295TIP3    H158376   0.395   3.898   4.967 -0.9172  0.6015 -0.2822
12295TIP3    H258377   0.473   3.991   4.877 -0.8388 -0.2790 -1.1412
12296TIP3   OH258378   2.392   3.698  13.710  0.4064  0.0755  0.0203
12296TIP3    H158379   2.468   3.647  13.682  0.9846  1.1511 -0.4649
12296TIP3    H258380   2.428   3.782  13.738 -0.5777  0.5018  0.0691
12297TIP3   OH258381   4.435   0.299  15.078  0.4014  0.5139  0.6551
12297TIP3    H158382   4.523   0.326  15.053  0.6465  0.2446  1.1897
12297TIP3    H258383   4.420   0.219  15.028  0.6508  0.3023  0.9136
12298TIP3   OH258384   0.754   4.056   3.676  0.2613  0.2123  0.0438
12298TIP3    H158385   0.762   4.002   3.598  0.5913 -0.0676  0.2669
12298TIP3    H258386   0.778   3.998   3.748 -0.5769  0.3066  0.4163
12299TIP3   OH258387   5.297   2.283   0.875 -0.5505  0.4051  0.1614
12299TIP3    H158388   5.205   2.273   0.899 -0.5404  0.7844  0.3551
12299TIP3    H258389   5.296   2.336   0.795 -0.4994  0.4369  0.1811
12300TIP3   OH258390   3.326   6.347   0.347 -0.1258 -0.0603  0.2095
12300TIP3    H158391   3.336   6.429   0.396  0.2250 -0.6649  1.1797
12300TIP3    H258392   3.262   6.296   0.397  0.1189 -0.6237 -0.0415
12301TIP3   OH258393   1.703   5.041   5.946 -0.4912  0.1835  0.3745
12301TIP3    H158394   1.759   5.038   5.869  0.0555 -1.5964  0.7957
12301TIP3    H258395   1.617   5.011   5.915 -0.4077 -0.0251  0.3453
12302TIP3   OH258396   1.699   5.821  13.176  0.2136  0.6318 -0.1942
12302TIP3    H158397   1.793   5.816  13.156  0.1305 -0.4342 -0.3713
12302TIP3    H258398   1.666   5.890  13.119  0.8305  0.7992 -0.3620
12303TIP3   OH258399   2.066   1.095   1.889 -0.1918  0.2124  0.5223
12303TIP3    H158400   2.087   1.162   1.825  0.3145  1.1195  1.5931
12303TIP3    H258401   2.025   1.142   1.961 -1.5037 -0.8930  0.5434
12304TIP3   OH258402   1.517   3.680  16.401 -0.3374 -1.1195 -0.0294
12304TIP3    H158403   1.598   3.632  16.382  1.4179  1.7960 -0.4994
12304TIP3    H258404   1.516   3.688  16.497  0.6277 -0.1802 -0.0724
12305TIP3   OH258405   5.488   1.537   2.546  0.0901 -0.2170 -0.2423
12305TIP3    H158406   5.435   1.616   2.534 -1.7055 -1.0334  1.8488
12305TIP3    H258407   5.467   1.483   2.470 -0.1816  0.4668 -0.6700
12306TIP3   OH258408   5.985   4.354  13.805 -0.1483  0.2683  0.1376
12306TIP3    H158409   6.034   4.430  13.774  0.8032  0.1531  1.2474
12306TIP3    H258410   6.037   4.279  13.775 -0.8231  0.0625 -0.5389
12307TIP3   OH258411   3.556   2.486   3.922  0.5419 -0.4191  0.2950
12307TIP3    H158412   3.580   2.445   4.005  0.6475  1.0243  1.0029
12307TIP3    H258413   3.494   2.555   3.945 -1.1263 -1.3654 -1.0751
12308TIP3   OH258414   0.119   0.586  12.099 -0.4242  0.3449  0.0944
12308TIP3    H158415   0.149   0.503  12.062 -0.9384 -1.1060  2.6650
12308TIP3    H258416   0.059   0.622  12.034 -0.2430 -1.3361 -1.0556
12309TIP3   OH258417   4.779   0.898   0.493 -0.0773 -0.7080  0.5468
12309TIP3    H158418   4.742   0.946   0.419 -0.1853 -1.5199  0.0556
12309TIP3    H258419   4.738   0.811   0.488  0.6592 -1.0897  0.9724
12310TIP3   OH258420   2.122   4.517  11.395  0.1217  0.6905 -0.4592
12310TIP3    H158421   2.120   4.428  11.428 -0.6308  0.9592  0.2428
12310TIP3    H258422   2.201   4.521  11.341  0.4115 -0.2587 -0.1151
12311TIP3   OH258423   1.700   1.984   2.870 -0.0075 -0.0220  0.3016
12311TIP3    H158424   1.609   2.012   2.865 -0.1303 -0.1632  1.3741
12311TIP3    H258425   1.749   2.066   2.881  0.0254  0.0765 -0.5670
12312TIP3   OH258426   2.557   3.369   0.240 -0.1159 -0.7614  0.0058
12312TIP3    H158427   2.480   3.396   0.190 -0.5078 -1.5576  0.1649
12312TIP3    H258428   2.523   3.344   0.326  0.6329  1.2410  0.9482
12313TIP3   OH258429   4.767   5.829   4.211 -0.0748 -0.4172  0.8630
12313TIP3    H158430   4.765   5.741   4.173  0.6799 -1.0835  2.2983
12313TIP3    H258431   4.678   5.843   4.242 -0.1029 -0.8341  0.9780
12314TIP3   OH258432   6.246   0.546  16.030 -0.4889  0.2085  0.2348
12314TIP3    H158433   6.288   0.473  16.075 -0.3523 -0.3680 -0.7958
12314TIP3    H258434   6.278   0.624  16.075  0.0369 -0.3312  0.8011
12315TIP3   OH258435   3.104   0.023   1.001 -0.4258  0.0338 -0.0929
12315TIP3    H158436   3.108   0.006   1.095  0.2461  0.1918 -0.0892
12315TIP3    H258437   3.014  -0.002   0.976 -1.6058  2.6988  1.1002
12316TIP3   OH258438   4.993   0.573  11.658  0.2755  0.2318  0.2490
12316TIP3    H158439   5.031   0.589  11.571  0.9119 -1.6444  0.1422
12316TIP3    H258440   5.066   0.589  11.718  0.2250  0.1479  0.3315
12317TIP3   OH258441   0.929   1.124  14.161  0.0700 -0.4347  0.9782
12317TIP3    H158442   0.885   1.053  14.207 -1.8051  0.2757  0.3802
12317TIP3    H258443   0.872   1.143  14.086  0.9371  1.1632  0.6768
12318TIP3   OH258444   4.259   5.318   3.841 -0.4942 -0.2453  0.1034
12318TIP3    H158445   4.257   5.397   3.893  0.6496  1.0608 -1.7011
12318TIP3    H258446   4.247   5.348   3.751 -1.1473 -2.2559 -0.5431
12319TIP3   OH258447   5.794   0.651  15.540  0.1930 -0.2994 -0.1657
12319TIP3    H158448   5.716   0.679  15.493  0.6422 -0.9333 -1.3375
12319TIP3    H258449   5.838   0.592  15.480  2.4893  1.3679 -0.2658
12320TIP3   OH258450   4.587   3.005  14.150 -0.4473 -0.0644 -0.0927
12320TIP3    H158451   4.517   2.939  14.145 -0.3138 -0.5472  2.9159
12320TIP3    H258452   4.667   2.954  14.143 -0.3574  0.1222 -0.4394
12321TIP3   OH258453   3.395   4.945   5.010  0.0445  0.1395  0.1063
12321TIP3    H158454   3.474   4.941   4.956  0.3854  0.4161  0.5789
12321TIP3    H258455   3.387   4.858   5.048 -0.2312 -0.0748 -0.4347
12322TIP3   OH258456   1.241   1.771   0.239 -0.1187 -0.0629 -0.5019
12322TIP3    H158457   1.304   1.701   0.258  0.0509 -0.0183 -0.9047
12322TIP3    H258458   1.271   1.810   0.158 -0.0537  0.6740 -0.1310
12323TIP3   OH258459   6.344   3.199  12.339  0.2085 -0.3895  0.0153
12323TIP3    H158460   6.290   3.272  12.308  0.0489 -1.1216 -1.5571
12323TIP3    H258461   6.329   3.129  12.275  0.2732 -1.8597  1.5240
12324TIP3   OH258462   1.600   4.080  12.856 -0.4376  0.3798 -0.4571
12324TIP3    H158463   1.538   4.132  12.805  1.0656  1.2705 -1.4434
12324TIP3    H258464   1.624   4.007  12.799  0.5018  0.8405 -0.6790
12325TIP3   OH258465   4.636   5.199  16.919  0.0248  0.2719  0.2177
12325TIP3    H158466   4.690   5.210  16.997 -0.6201  1.9699  0.4600
12325TIP3    H258467   4.700   5.189  16.847  0.6165 -1.0594  0.8834
12326TIP3   OH258468   1.447   4.000   5.487 -0.0979  0.3083 -0.4236
12326TIP3    H158469   1.534   3.972   5.459 -1.1799 -2.4949 -1.3641
12326TIP3    H258470   1.391   3.924   5.470 -2.4703  1.4767  1.5450
12327TIP3   OH258471   2.117   2.771   2.934  0.2468 -0.1948 -0.0037
12327TIP3    H158472   2.111   2.803   2.844 -2.0292  0.7574  0.4258
12327TIP3    H258473   2.175   2.695   2.928  1.5573  0.8688 -1.9477
12328TIP3   OH258474   5.185   1.401  12.262 -0.1380 -0.5279  0.1211
12328TIP3    H158475   5.148   1.483  12.229  0.0650 -0.2517  0.5632
12328TIP3    H258476   5.209   1.352  12.184 -0.9511 -0.4876 -0.1554
12329TIP3   OH258477   5.354   3.872   5.552  0.3712 -0.2994 -0.1091
12329TIP3    H158478   5.410   3.893   5.478  0.1515 -1.2736 -0.5703
12329TIP3    H258479   5.311   3.790   5.527  0.3433 -0.6784  1.1231
12330TIP3   OH258480   6.329   1.731  14.970  0.4041  0.6752 -0.1860
12330TIP3    H158481   6.391   1.659  14.981 -2.2322 -1.5949  1.0387
12330TIP3    H258482   6.243   1.693  14.989 -1.4396  3.6291 -1.6438
12331TIP3   OH258483   0.496   3.097   0.125  0.4476  0.0158 -0.2404
12331TIP3    H158484   0.425   3.081   0.063  0.9277  0.3793 -0.9107
12331TIP3    H258485   0.469   3.054   0.205 -0.1646 -0.5333 -0.7300
12332TIP3   OH258486   0.419   1.490   0.033  0.0662  0.0687  0.2438
12332TIP3    H158487   0.408   1.477   0.127 -2.3869  0.0363  0.0179
12332TIP3    H258488   0.481   1.562   0.026 -0.1738  0.4817  1.9167
12333TIP3   OH258489   2.406   6.235   5.238 -0.0978 -0.2224 -0.3799
12333TIP3    H158490   2.384   6.157   5.289  1.8714 -0.5962 -0.0421
12333TIP3    H258491   2.444   6.296   5.301 -0.7364  0.6523 -0.8145
12334TIP3   OH258492   3.306   6.617  10.654 -0.0998 -0.8065  0.4450
12334TIP3    H158493   3.244   6.654  10.716 -0.5721 -2.0604  0.7486
12334TIP3    H258494   3.358   6.554  10.705  1.7491  0.5228  0.3037
12335TIP3   OH258495   6.162   2.658   2.666 -0.1299 -0.2498 -0.8078
12335TIP3    H158496   6.191   2.714   2.737 -0.4444  2.4469 -2.6527
12335TIP3    H258497   6.213   2.578   2.676  2.4023  1.4037  0.4008
12336TIP3   OH258498   3.180   1.761  14.268  0.3247  0.0356 -0.0321
12336TIP3    H158499   3.134   1.838  14.300  2.3916  0.9142  1.0012
12336TIP3    H258500   3.180   1.700  14.342  1.0049  0.1478  0.0700
12337TIP3   OH258501   6.712   5.010  11.854 -0.4131  0.2410  0.3432
12337TIP3    H158502   6.743   4.973  11.937  1.2124  0.4730 -0.1370
12337TIP3    H258503   6.787   5.004  11.795 -2.2421 -2.5032 -2.0182
12338TIP3   OH258504   3.433   3.751  14.422 -0.0780  0.3968  0.0531
12338TIP3    H158505   3.417   3.788  14.336  2.9502  1.2059 -0.2687
12338TIP3    H258506   3.406   3.659  14.414 -2.9413  1.1932 -0.6516
12339TIP3   OH258507   2.194   2.891   0.958 -0.5425 -0.2090 -0.3874
12339TIP3    H158508   2.148   2.884   1.042 -0.9449  0.9674 -0.4848
12339TIP3    H258509   2.245   2.972   0.966  2.1759 -1.8588  0.0136
12340TIP3   OH258510   1.617   1.869   3.775  0.0382  0.0152 -0.1495
12340TIP3    H158511   1.591   1.782   3.805  0.2604  0.4811  1.5255
12340TIP3    H258512   1.613   1.923   3.854  3.0934  0.8052 -0.4207
12341TIP3   OH258513   4.481   1.964  16.508 -0.5216 -0.0220  0.1354
12341TIP3    H158514   4.394   1.983  16.542 -0.9656 -0.4529 -0.7451
12341TIP3    H258515   4.506   2.043  16.461 -1.6039 -0.8583 -1.9559
12342TIP3   OH258516   1.470   1.705   1.245  0.0389  0.1763  0.4565
12342TIP3    H158517   1.505   1.618   1.229 -0.4309  0.4906 -2.8942
12342TIP3    H258518   1.379   1.701   1.215 -0.8730  1.1607  2.8032
12343TIP3   OH258519   1.216   6.367   1.177 -0.1079 -0.3659  0.1597
12343TIP3    H158520   1.219   6.298   1.243  0.3002 -1.2271 -0.7528
12343TIP3    H258521   1.272   6.336   1.107 -0.2707  0.6987 -0.4569
12344TIP3   OH258522   0.991   4.755  14.016  0.4684  0.1711 -0.1788
12344TIP3    H158523   0.951   4.833  14.056  1.1359  0.0165  0.8054
12344TIP3    H258524   1.054   4.790  13.954  1.1990  0.4367  0.6919
12345TIP3   OH258525   1.395   2.546   1.524 -0.3550 -0.3648 -0.4397
12345TIP3    H158526   1.320   2.490   1.501  0.3788 -2.0175  0.9453
12345TIP3    H258527   1.419   2.589   1.442 -2.0654 -0.7226 -1.1733
12346TIP3   OH258528   6.009   3.466   2.168 -0.0237  0.3644  0.1735
12346TIP3    H158529   5.989   3.559   2.166 -0.6481  0.2716  1.2959
12346TIP3    H258530   5.930   3.424   2.133  0.9512  0.3154 -2.1211
12347TIP3   OH258531   3.828   1.665   3.187 -0.1163  0.4498  0.0045
12347TIP3    H158532   3.741   1.651   3.149  0.7783 -0.7691 -1.7158
12347TIP3    H258533   3.814   1.661   3.282 -1.6481 -1.7783 -0.2469
12348TIP3   OH258534   2.065   0.259  15.393 -0.0814 -0.0164  0.7078
12348TIP3    H158535   2.066   0.342  15.441 -1.4120  1.6670 -1.8754
12348TIP3    H258536   1.973   0.232  15.395  0.1626 -0.8581  0.6287
12349TIP3   OH258537   6.492   4.591  12.153 -0.2914  0.4191  0.1143
12349TIP3    H158538   6.522   4.509  12.191  0.7351  1.0408  0.6887
12349TIP3    H258539   6.565   4.621  12.099 -1.0455  0.4595 -0.9180
12350TIP3   OH258540   6.089   6.690   4.208 -0.6034  0.3498 -0.3693
12350TIP3    H158541   6.161   6.713   4.151  1.5883 -0.6633  1.8085
12350TIP3    H258542   6.097   6.595   4.220 -1.1214  0.4882  1.3964
12351TIP3   OH258543   2.559   1.562  16.409 -0.4431 -0.1161 -0.2370
12351TIP3    H158544   2.648   1.586  16.435 -0.8543  1.1183  0.1083
12351TIP3    H258545   2.571   1.489  16.347  0.6748 -1.4958  1.5027
12352TIP3   OH258546   0.095   1.576   0.284 -0.0546  1.0353 -0.0453
12352TIP3    H158547   0.031   1.559   0.215 -1.3392 -0.1698  1.3850
12352TIP3    H258548   0.180   1.557   0.244 -0.8427 -0.6866 -1.0037
12353TIP3   OH258549   6.656   6.479   2.537  0.3733 -0.7172  0.0601
12353TIP3    H158550   6.721   6.548   2.546 -0.4987  0.1249  0.0902
12353TIP3    H258551   6.680   6.414   2.604 -0.8134  1.2349  2.5502
12354TIP3   OH258552   4.065   5.508   1.486  0.3183 -0.3459 -0.2003
12354TIP3    H158553   4.017   5.482   1.565  2.5002 -1.7741  0.7618
12354TIP3    H258554   4.026   5.591   1.461  0.5892  1.0504  3.4014
12355TIP3   OH258555   0.579   4.010   4.049  0.5133  0.0384 -0.8468
12355TIP3    H158556   0.573   3.976   3.960  0.6120 -0.6185 -0.6075
12355TIP3    H258557   0.547   3.939   4.105  1.0196  0.2144 -0.3125
12356TIP3   OH258558   0.243   3.336  12.948 -0.8346 -0.1113  0.0991
12356TIP3    H158559   0.275   3.258  12.993  0.0125  0.3975  0.4096
12356TIP3    H258560   0.281   3.409  12.997 -1.7061  0.5037 -0.1174
12357TIP3   OH258561   6.650   2.465  13.441  0.0294 -0.5181 -0.3324
12357TIP3    H158562   6.560   2.498  13.442 -0.0777 -0.7859  0.8687
12357TIP3    H258563   6.655   2.408  13.518  1.6523  0.6917  0.5214
12358TIP3   OH258564   0.968   0.185  13.632 -0.0991  0.0135 -0.2990
12358TIP3    H158565   0.953   0.279  13.641  0.9492  0.1328  0.4171
12358TIP3    H258566   1.047   0.178  13.578  1.4209 -0.3344  1.8413
12359TIP3   OH258567   5.975   1.352   1.367  0.5807  0.0885  0.1242
12359TIP3    H158568   5.949   1.408   1.441  0.9868 -0.5962  0.7928
12359TIP3    H258569   5.906   1.286   1.362  0.4568  0.2442 -0.2352
12360TIP3   OH258570   3.999   0.468  16.426 -0.4368  0.2061 -0.4177
12360TIP3    H158571   3.953   0.384  16.435 -1.2453  0.5376 -1.2823
12360TIP3    H258572   3.991   0.490  16.333  0.1443  1.0298 -0.2833
12361TIP3   OH258573   0.268   6.193  14.973  0.0985  0.1904  0.0557
12361TIP3    H158574   0.305   6.183  15.060  0.6631  0.1733 -0.1795
12361TIP3    H258575   0.251   6.287  14.964  0.9294  0.3300 -0.1619
12362TIP3   OH258576   4.289   4.294  14.205 -0.6402 -0.7431 -0.1895
12362TIP3    H158577   4.296   4.389  14.200  0.8682 -0.8076  0.2261
12362TIP3    H258578   4.265   4.267  14.116 -0.9650  0.0132 -0.3364
12363TIP3   OH258579   1.717   6.091   3.974 -0.0482 -1.0994  0.1927
12363TIP3    H158580   1.687   6.004   4.000  0.2921 -1.2635  0.0440
12363TIP3    H258581   1.657   6.119   3.905 -0.3992 -1.0481  0.5166
12364TIP3   OH258582   3.396   0.962   0.924  0.0057  0.1195 -0.6135
12364TIP3    H158583   3.462   0.992   0.987 -0.7476  0.0695  0.2336
12364TIP3    H258584   3.344   0.898   0.974 -1.2884  0.8828 -0.9525
12365TIP3   OH258585   2.331   3.402   0.078 -0.0795  0.4222  0.2274
12365TIP3    H158586   2.302   3.493   0.083 -2.1492 -0.2884  2.9580
12365TIP3    H258587   2.252   3.350   0.091  1.1900 -1.8093 -0.4181
12366TIP3   OH258588   2.744   4.152  16.132 -0.1132 -0.0648  0.4625
12366TIP3    H158589   2.703   4.238  16.128  1.1148  0.4877 -1.9909
12366TIP3    H258590   2.837   4.169  16.123  0.3124 -1.5691  1.7059
12367TIP3   OH258591   2.364   6.309  12.212 -0.1198 -0.1263  0.1663
12367TIP3    H158592   2.306   6.289  12.286  0.2637  0.7009  0.7044
12367TIP3    H258593   2.306   6.348  12.147 -0.1218  1.0921  0.8678
12368TIP3   OH258594   0.852   1.694  15.724  0.3004 -0.2573  0.7135
12368TIP3    H158595   0.844   1.607  15.686 -0.1156 -0.5366  1.4160
12368TIP3    H258596   0.836   1.754  15.651  0.1418 -0.7728  0.3219
12369TIP3   OH258597   5.465   5.726  12.482  0.4440 -0.2715 -0.0001
12369TIP3    H158598   5.470   5.790  12.554  1.9173 -1.3937  0.9696
12369TIP3    H258599   5.535   5.753  12.422  0.8635 -0.7798  0.2565
12370TIP3   OH258600   1.978   1.053   5.223 -0.2791  0.0002  0.2368
12370TIP3    H158601   2.068   1.074   5.249 -0.2973 -0.9961  1.1491
12370TIP3    H258602   1.935   1.139   5.215  0.1952  0.4267  1.8655
12371TIP3   OH258603   4.582   3.791   5.230  0.1052  1.0309  0.6168
12371TIP3    H158604   4.555   3.821   5.143 -0.3623 -2.3176 -0.5348
12371TIP3    H258605   4.500   3.774   5.276  0.2252 -0.9676  0.2000
12372TIP3   OH258606   1.831   2.730  12.044 -0.0914  0.2263 -0.1214
12372TIP3    H158607   1.808   2.706  12.134 -1.3936  0.8141 -0.2818
12372TIP3    H258608   1.754   2.709  11.992  0.5611  0.1011 -1.0822
12373TIP3   OH258609   3.209   2.098   1.541 -0.1671  0.2077 -0.0008
12373TIP3    H158610   3.261   2.018   1.551 -0.6089 -0.1486 -0.5147
12373TIP3    H258611   3.240   2.155   1.612  2.4069  0.8474 -1.4902
12374TIP3   OH258612   2.705   1.187  15.060 -0.2291  0.0324  0.4448
12374TIP3    H158613   2.712   1.247  14.986  0.1885  0.2278  0.6411
12374TIP3    H258614   2.661   1.237  15.128 -0.0503  0.0513  0.5451
12375TIP3   OH258615   3.926   5.429   3.961 -0.1758  0.4061 -0.0003
12375TIP3    H158616   3.993   5.479   4.008 -0.3704 -0.1470  0.9027
12375TIP3    H258617   3.950   5.338   3.975 -1.3551  0.1769  0.7473
12376TIP3   OH258618   1.362   3.228   5.324  0.2817 -0.7966  0.2375
12376TIP3    H158619   1.390   3.167   5.392 -0.5155 -0.6646  0.7107
12376TIP3    H258620   1.299   3.285   5.369 -1.5358 -1.7373 -0.9897
12377TIP3   OH258621   2.325   3.223   4.686  0.1581 -0.0776  0.0174
12377TIP3    H158622   2.388   3.191   4.622 -0.2830 -0.2236 -0.3478
12377TIP3    H258623   2.257   3.265   4.633  0.8178  1.6564  0.4856
12378TIP3   OH258624   2.750   3.674   0.692  0.2687 -0.2534 -0.0264
12378TIP3    H158625   2.822   3.614   0.712 -0.0869 -0.6940 -0.0472
12378TIP3    H258626   2.675   3.617   0.675  0.1140  0.1675 -0.8162
12379TIP3   OH258627   5.337   0.820   0.777  0.6619 -0.2307  1.0251
12379TIP3    H158628   5.262   0.763   0.756  0.4983 -0.4787  2.2060
12379TIP3    H258629   5.308   0.869   0.854 -0.0415  3.1205 -1.1792
12380TIP3   OH258630   1.122   0.431  14.046  0.0883 -0.2352  0.1574
12380TIP3    H158631   1.105   0.339  14.067 -0.1726 -0.8829 -2.5428
12380TIP3    H258632   1.188   0.428  13.978  0.3212  1.6305  0.2532
12381TIP3   OH258633   5.999   6.511  16.446  0.2216  0.2318 -0.4522
12381TIP3    H158634   5.966   6.599  16.426 -0.7368  0.3806  1.6136
12381TIP3    H258635   5.963   6.456  16.377 -1.1867  1.0630 -0.4179
12382TIP3   OH258636   5.911   2.826   1.711  0.4955  0.4949  0.1239
12382TIP3    H158637   5.903   2.864   1.798  1.2756  1.9283 -0.3893
12382TIP3    H258638   5.821   2.819   1.679  0.2099 -0.0349  1.0350
12383TIP3   OH258639   0.235   0.627  11.244 -0.2638  0.1019  0.0355
12383TIP3    H158640   0.236   0.553  11.184  0.7729  0.6102 -0.5894
12383TIP3    H258641   0.266   0.591  11.327 -0.4460 -0.3104 -0.0736
12384TIP3   OH258642   2.363   4.771   6.478 -0.0359 -0.4944 -0.0882
12384TIP3    H158643   2.408   4.835   6.533  1.3427 -1.0980 -0.4648
12384TIP3    H258644   2.275   4.765   6.514 -0.7823  2.8607 -1.0591
12385TIP3   OH258645   1.981   3.886   1.667  0.2047  0.3534  0.4909
12385TIP3    H158646   2.055   3.904   1.726 -0.2889  0.2634  1.1581
12385TIP3    H258647   1.904   3.897   1.723 -0.2635 -0.0244 -0.0758
12386TIP3   OH258648   0.393   5.310  17.376 -0.3394  0.5386 -0.4312
12386TIP3    H158649   0.371   5.217  17.374 -1.4406  0.7497 -3.4643
12386TIP3    H258650   0.309   5.355  17.370  0.2827  1.6832 -0.9430
12387TIP3   OH258651   0.337   1.988   5.787  0.5034  0.3305 -0.0160
12387TIP3    H158652   0.297   2.036   5.714  0.2953  0.6463  0.3002
12387TIP3    H258653   0.393   1.923   5.745  0.5410  0.6426 -0.4556
12388TIP3   OH258654   5.391   0.775  13.022  0.4091  0.5681 -0.2718
12388TIP3    H158655   5.301   0.743  13.021  0.8213 -0.6846 -1.4048
12388TIP3    H258656   5.400   0.820  12.938  1.1276 -0.2500 -0.6478
12389TIP3   OH258657   2.632   4.202   2.747  0.2188  1.0023 -0.3098
12389TIP3    H158658   2.717   4.195   2.703  0.0909  1.4676 -0.6465
12389TIP3    H258659   2.599   4.288   2.721 -0.2862  0.8921 -0.0504
12390TIP3   OH258660   5.459   3.650   1.519  0.4031 -0.0429 -0.3219
12390TIP3    H158661   5.478   3.739   1.488  0.6772 -0.0451 -0.1676
12390TIP3    H258662   5.489   3.593   1.449 -1.8044  0.0490 -1.4155
12391TIP3   OH258663   0.944   2.424   0.923 -0.2701  0.1502 -0.3763
12391TIP3    H158664   1.019   2.482   0.936  0.7051 -1.1217 -0.0455
12391TIP3    H258665   0.881   2.450   0.991  1.1124 -0.6612  1.2854
12392TIP3   OH258666   1.384   2.503   3.377  0.3057  0.2222  0.5322
12392TIP3    H158667   1.333   2.433   3.336 -1.5499  1.5489  0.4507
12392TIP3    H258668   1.366   2.495   3.470 -0.6862  1.1215  0.4403
12393TIP3   OH258669   0.422   1.570   5.247 -0.3540 -0.1303  0.6170
12393TIP3    H158670   0.456   1.562   5.336  2.3852  1.0894 -0.2137
12393TIP3    H258671   0.384   1.484   5.228 -1.3268 -0.3002  3.0231
12394TIP3   OH258672   5.243   4.166  13.904 -0.0435  0.2106 -0.0709
12394TIP3    H158673   5.331   4.169  13.943 -0.3166 -1.8416  0.8261
12394TIP3    H258674   5.210   4.079  13.926 -1.2070 -0.1615 -2.8553
12395TIP3   OH258675   5.678   3.238   4.894  0.0337  0.6731  0.2013
12395TIP3    H158676   5.667   3.325   4.934 -2.5332  0.8923 -0.7649
12395TIP3    H258677   5.594   3.194   4.910  0.0311 -0.3479 -2.2278
12396TIP3   OH258678   6.109   1.412   6.261 -0.0406  0.2794  0.9492
12396TIP3    H158679   6.094   1.330   6.308 -0.4585 -0.3716 -0.2717
12396TIP3    H258680   6.193   1.398   6.216 -1.2837 -0.4939 -1.2613
12397TIP3   OH258681   5.394   1.378  13.482  0.4802  0.1439  0.3488
12397TIP3    H158682   5.419   1.301  13.432  1.4746  0.4019  0.4241
12397TIP3    H258683   5.477   1.413  13.516  0.1190  1.5506 -0.1298
12398TIP3   OH258684   2.560   1.306  16.623  0.2305 -0.1608  0.0660
12398TIP3    H158685   2.614   1.232  16.596 -1.7064 -1.2412 -1.0676
12398TIP3    H258686   2.559   1.301  16.719  1.2029 -0.7940  0.0545
12399TIP3   OH258687   4.974   5.357   0.789 -0.1865 -0.5707 -0.1707
12399TIP3    H158688   5.012   5.419   0.726 -2.1672 -0.1710 -1.0514
12399TIP3    H258689   4.900   5.318   0.742 -1.1581 -0.9694  1.6158
12400TIP3   OH258690   2.068   5.805   3.046 -0.0996 -0.1894  0.2958
12400TIP3    H158691   2.137   5.815   3.111  0.8358  0.7442 -0.7887
12400TIP3    H258692   2.037   5.894   3.030 -0.4109 -0.4160 -0.4112
12401TIP3   OH258693   6.069   5.967  16.322 -0.2625  0.3208  0.3488
12401TIP3    H158694   6.029   6.012  16.248  1.8427  0.7162 -0.6511
12401TIP3    H258695   6.163   5.988  16.314  0.2239 -0.8999  2.2409
12402TIP3   OH258696   6.465   5.231  15.919 -0.3249 -0.3545 -0.6735
12402TIP3    H158697   6.485   5.283  15.997 -1.1393  0.2278 -0.8431
12402TIP3    H258698   6.370   5.233  15.912 -0.3112 -1.1337 -1.1915
12403TIP3   OH258699   3.833   2.254  12.294 -0.4004  0.0190  0.3877
12403TIP3    H158700   3.794   2.192  12.232  0.4309  0.1612 -0.2941
12403TIP3    H258701   3.822   2.339  12.253  0.4428  0.0825  0.2785
12404TIP3   OH258702   3.753   2.002   5.285  0.2427 -0.1808 -0.6492
12404TIP3    H158703   3.775   1.916   5.320  1.2112  0.2107 -0.2525
12404TIP3    H258704   3.723   1.985   5.195  3.7008 -0.6888 -1.8594
12405TIP3   OH258705   6.627   3.128  16.052 -0.8800  0.4934  0.0148
12405TIP3    H158706   6.693   3.167  15.995  1.1024 -1.7029  0.6875
12405TIP3    H258707   6.613   3.193  16.121  0.6514  0.9542 -0.0902
12406TIP3   OH258708   2.308   5.559   3.355 -0.2616 -0.8618  0.0937
12406TIP3    H158709   2.260   5.506   3.418  2.0955 -1.5096  1.4963
12406TIP3    H258710   2.331   5.498   3.285  2.3185 -1.8117  1.6346
12407TIP3   OH258711   3.638   3.507   1.984 -0.1110 -0.4352  0.7476
12407TIP3    H158712   3.711   3.456   1.948  0.0799 -0.0350  0.5549
12407TIP3    H258713   3.657   3.514   2.078 -0.1909 -0.7989  0.7927
12408TIP3   OH258714   3.089   3.375   2.862 -0.2414 -0.8202  0.0178
12408TIP3    H158715   3.055   3.463   2.880 -0.8536 -0.7861 -1.1742
12408TIP3    H258716   3.143   3.354   2.938 -1.2608 -0.0139  0.9968
12409TIP3   OH258717   6.382   5.267   4.598  0.2609  0.2284 -0.0543
12409TIP3    H158718   6.401   5.340   4.657  0.3178 -1.0611  1.5752
12409TIP3    H258719   6.322   5.211   4.646  0.6047 -1.0640 -1.0614
12410TIP3   OH258720   6.332   0.777   4.589 -0.3188 -0.0456 -0.2249
12410TIP3    H158721   6.259   0.782   4.526 -1.7946  2.0437  1.5011
12410TIP3    H258722   6.302   0.715   4.656  0.1993 -0.3994 -0.3161
12411TIP3   OH258723   3.497   5.735  15.681 -0.0038  0.3024 -0.2945
12411TIP3    H158724   3.450   5.818  15.674 -0.2130  0.2058 -0.0472
12411TIP3    H258725   3.445   5.683  15.743 -1.0669 -0.8233 -2.0484
12412TIP3   OH258726   4.896   1.597   5.815  0.6511  0.2025 -0.3885
12412TIP3    H158727   4.909   1.550   5.898 -0.5381  1.1566  0.3783
12412TIP3    H258728   4.919   1.688   5.837  1.7678  0.2218 -1.5248
12413TIP3   OH258729   2.229   1.293   4.287  0.1603  0.2640 -0.3338
12413TIP3    H158730   2.176   1.360   4.329 -0.5986 -1.0638  0.8878
12413TIP3    H258731   2.172   1.256   4.219  0.2877  0.2865 -0.4545
12414TIP3   OH258732   0.278   1.933  14.713  0.0292 -0.4616 -0.1740
12414TIP3    H158733   0.261   1.846  14.677 -2.2605 -0.3758  0.5640
12414TIP3    H258734   0.260   1.993  14.640  1.1663 -0.5624 -0.5510
12415TIP3   OH258735   3.051   2.285  17.159 -0.7120  0.6856 -0.6791
12415TIP3    H158736   3.086   2.367  17.124 -0.8827  0.4922 -1.3150
12415TIP3    H258737   3.073   2.287  17.252 -1.0961  1.6626 -0.5942
12416TIP3   OH258738   2.226   1.684   1.041 -0.9345  0.3742 -0.6209
12416TIP3    H158739   2.268   1.599   1.025 -2.9462 -0.7681 -0.0996
12416TIP3    H258740   2.227   1.693   1.137 -2.5020 -0.0345 -0.5464
12417TIP3   OH258741   5.088   0.653  12.463 -0.5972 -0.0286 -0.0964
12417TIP3    H158742   5.057   0.564  12.446 -0.2807 -0.0847 -0.4080
12417TIP3    H258743   5.027   0.709  12.417 -0.2854 -0.1349 -0.6572
12418TIP3   OH258744   3.076   4.345   0.831  0.1602 -0.6467 -0.2169
12418TIP3    H158745   3.001   4.285   0.829  1.8618 -2.9182 -1.0469
12418TIP3    H258746   3.125   4.319   0.909  0.7374 -0.0923 -0.3849
12419TIP3   OH258747   4.871   2.949  12.932  0.1746  0.1168 -0.4558
12419TIP3    H158748   4.938   2.894  12.892 -0.7203 -1.1918 -0.2041
12419TIP3    H258749   4.837   3.002  12.859  0.9080  0.2139 -0.7379
12420TIP3   OH258750   5.663   3.510   2.492 -0.2401  0.6096 -0.6133
12420TIP3    H158751   5.653   3.599   2.457 -0.3775  1.0157  0.4285
12420TIP3    H258752   5.631   3.516   2.582  1.0979 -0.1641 -0.0574
12421TIP3   OH258753   3.978   1.097   0.701  0.4137 -0.5708  0.2829
12421TIP3    H158754   4.052   1.070   0.755 -0.0247 -0.9151  0.7371
12421TIP3    H258755   3.901   1.081   0.757  0.0745  1.0246  0.3297
12422TIP3   OH258756   2.966   3.293   6.081  0.6828 -0.3742  0.0785
12422TIP3    H158757   2.928   3.211   6.050  0.0081  0.1750 -0.5667
12422TIP3    H258758   2.890   3.349   6.098  1.1122 -0.0741  1.0852
12423TIP3   OH258759   0.420   5.511  13.947 -0.1326  0.3118 -0.2895
12423TIP3    H158760   0.419   5.500  14.042  0.4743  1.0203 -0.1952
12423TIP3    H258761   0.490   5.453  13.916  0.0494  0.5090 -0.2471
12424TIP3   OH258762   4.536   1.854   2.293 -0.4524 -0.0740  0.8236
12424TIP3    H158763   4.581   1.886   2.215  1.3411 -1.0369  1.4044
12424TIP3    H258764   4.468   1.795   2.259  1.2568 -1.6563 -0.0512
12425TIP3   OH258765   4.810   2.193   2.831  0.1302  0.0481 -0.5729
12425TIP3    H158766   4.772   2.139   2.900  0.0953 -0.5819 -1.0700
12425TIP3    H258767   4.873   2.250   2.876 -1.7697  1.5285  0.3694
12426TIP3   OH258768   6.514   2.222   0.935  0.0599 -0.4186 -0.1905
12426TIP3    H158769   6.423   2.223   0.905  0.0618  0.7005 -0.1907
12426TIP3    H258770   6.554   2.297   0.891  0.5295  0.1588  1.1887
12427TIP3   OH258771   3.086   0.240  16.511  0.0484 -0.2041 -0.0742
12427TIP3    H158772   3.045   0.314  16.467 -3.1468 -2.2626 -0.9282
12427TIP3    H258773   3.112   0.274  16.597  0.7602  2.3658 -1.2262
12428TIP3   OH258774   2.373   3.871   5.400 -0.5972  0.1991 -0.4197
12428TIP3    H158775   2.319   3.889   5.476 -2.6186 -2.7457 -0.9917
12428TIP3    H258776   2.398   3.779   5.409  2.5186  0.8165 -1.3630
12429TIP3   OH258777   5.987   5.485   0.050  0.2394  0.1127  0.4566
12429TIP3    H158778   5.968   5.396   0.079  0.8041 -0.4126 -0.6995
12429TIP3    H258779   6.030   5.526   0.125 -1.6415  0.0164  1.6460
12430TIP3   OH258780   2.235   5.826   5.265  0.1630  0.0644  0.3426
12430TIP3    H158781   2.151   5.800   5.227 -0.2175 -2.6337  2.6766
12430TIP3    H258782   2.214   5.854   5.354  1.7004 -1.0781  1.1191
12431TIP3   OH258783   5.924   6.182   1.469  0.1775  0.1254  0.0509
12431TIP3    H158784   5.872   6.205   1.392 -0.7857  1.9720  1.1884
12431TIP3    H258785   5.895   6.243   1.537  1.0109 -1.4153  1.8911
12432TIP3   OH258786   1.615   1.440   1.256  0.1721  0.6361 -0.2109
12432TIP3    H158787   1.680   1.484   1.311 -0.1398  1.4836 -0.5092
12432TIP3    H258788   1.640   1.347   1.259  0.3832  0.7098  1.0644
12433TIP3   OH258789   4.041   0.321  14.682  0.2347 -0.2973  0.3310
12433TIP3    H158790   4.066   0.344  14.592  0.4505  0.9770  0.7096
12433TIP3    H258791   4.118   0.341  14.734 -0.9125  1.9739  1.2519
12434TIP3   OH258792   4.362   6.197  11.911  0.9062 -0.2994 -0.2885
12434TIP3    H158793   4.300   6.128  11.936  1.1524 -0.5502 -0.3547
12434TIP3    H258794   4.307   6.270  11.882  0.6460 -0.6447 -0.6790
12435TIP3   OH258795   6.283   2.109   2.393 -0.1576  0.0493 -0.5397
12435TIP3    H158796   6.218   2.040   2.404  0.0827 -0.1511 -0.3756
12435TIP3    H258797   6.232   2.190   2.388 -0.3757 -0.0387  0.2451
12436TIP3   OH258798   4.586   1.172  13.380  0.3439 -0.6421 -0.7169
12436TIP3    H158799   4.612   1.188  13.470  0.2018 -0.3668 -0.7239
12436TIP3    H258800   4.608   1.253  13.334  0.6980 -0.8910 -0.9931
12437TIP3   OH258801   4.114   4.270  11.447  0.4621 -1.1153 -0.0208
12437TIP3    H158802   4.195   4.219  11.452  0.5466 -0.9180  0.7885
12437TIP3    H258803   4.044   4.206  11.460  0.3415 -1.6259 -2.6293
12438TIP3   OH258804   4.361   5.063  16.082 -0.8605 -0.2668  0.3548
12438TIP3    H158805   4.441   5.069  16.135 -0.5871  1.2276 -0.1857
12438TIP3    H258806   4.300   5.015  16.138  0.1149 -0.6150  1.1597
12439TIP3   OH258807   6.250   6.037  15.233  0.2003  0.9568  0.2781
12439TIP3    H158808   6.332   6.016  15.189 -0.5331  0.0951 -0.7108
12439TIP3    H258809   6.184   5.983  15.190 -1.1420  2.6320  0.1018
12440TIP3   OH258810   3.154   2.542   4.544 -0.1730 -0.2049  0.3493
12440TIP3    H158811   3.199   2.460   4.526  1.7061  0.7299  0.5735
12440TIP3    H258812   3.220   2.597   4.587 -2.0667  0.5722  2.4963
12441TIP3   OH258813   4.001   3.003   1.778 -0.1945  0.4782 -0.1128
12441TIP3    H158814   4.022   2.916   1.743 -1.3261  0.1960 -0.1596
12441TIP3    H258815   4.078   3.056   1.759  0.4694 -0.4866 -0.1916
12442TIP3   OH258816   4.832   4.009  14.994  0.5115  0.5967 -0.7321
12442TIP3    H158817   4.859   3.917  14.993  1.8159  0.9099  1.0372
12442TIP3    H258818   4.911   4.057  14.969  0.1427  1.2849 -0.5859
12443TIP3   OH258819   5.024   4.917   6.485 -0.5967 -0.0468  0.2960
12443TIP3    H158820   5.090   4.854   6.513 -0.4865  0.7101  1.8712
12443TIP3    H258821   5.072   4.984   6.437 -0.1914  0.4906  1.4209
12444TIP3   OH258822   6.373   2.779  15.747 -0.4900 -0.4086 -0.3557
12444TIP3    H158823   6.389   2.744  15.835  0.0090  0.6375 -0.0024
12444TIP3    H258824   6.425   2.724  15.689  2.1496  1.0590  0.4300
12445TIP3   OH258825   3.729   2.510  11.318 -0.0188  0.0425  0.2957
12445TIP3    H158826   3.647   2.538  11.277  0.4646 -0.3431 -1.0024
12445TIP3    H258827   3.752   2.429  11.272  0.9730  0.0358  0.7815
12446TIP3   OH258828   1.572   4.932   0.268  0.2093  0.8091 -0.6905
12446TIP3    H158829   1.477   4.937   0.277  0.1912  0.9234 -0.9421
12446TIP3    H258830   1.603   5.022   0.278  0.3019  0.7587 -0.5103
12447TIP3   OH258831   1.536   4.228  16.798  0.0773 -0.3746  0.5619
12447TIP3    H158832   1.595   4.198  16.729 -0.0327  0.3368  0.1467
12447TIP3    H258833   1.450   4.194  16.772  0.3122 -1.5178  1.2351
12448TIP3   OH258834   5.803   6.226  13.970 -0.0577  0.1356  0.4616
12448TIP3    H158835   5.768   6.284  13.902 -0.1843 -0.1819  0.2521
12448TIP3    H258836   5.807   6.280  14.049 -0.9930  0.1776  0.4857
12449TIP3   OH258837   4.961   3.223   6.724  0.7351 -0.2651 -0.2662
12449TIP3    H158838   4.975   3.131   6.701  0.8367  0.1067 -1.7787
12449TIP3    H258839   4.979   3.271   6.643 -1.3197  0.9358 -0.0793
12450TIP3   OH258840   1.157   0.834  15.132 -0.5027  0.4586 -0.2507
12450TIP3    H158841   1.204   0.837  15.049  1.2354  3.2581  0.6953
12450TIP3    H258842   1.223   0.807  15.196 -1.4702 -0.3560  0.4257
12451TIP3   OH258843   2.592   6.434  10.674 -0.2233 -0.1911  0.0514
12451TIP3    H158844   2.583   6.502  10.741 -0.5197 -0.0770 -0.1045
12451TIP3    H258845   2.585   6.352  10.722  1.5044 -0.1534  0.4639
12452TIP3   OH258846   5.922   2.161  12.556  1.2351  0.0504  0.0406
12452TIP3    H158847   5.874   2.100  12.500  1.8284 -0.8766  0.4992
12452TIP3    H258848   5.893   2.139  12.645  0.6252  1.2049  0.1433
12453TIP3   OH258849   0.959   5.478   1.702 -1.0706 -0.0725 -0.0252
12453TIP3    H158850   0.968   5.401   1.758 -1.3856  0.6896  1.1236
12453TIP3    H258851   0.866   5.499   1.706 -0.7945  1.1182  0.7559
12454TIP3   OH258852   0.542   2.034   0.809 -0.0141 -0.2325 -0.4258
12454TIP3    H158853   0.549   2.039   0.905 -0.9355 -0.7647 -0.3188
12454TIP3    H258854   0.631   2.012   0.780  0.3570  0.3072  0.2728
12455TIP3   OH258855   3.153   3.451   4.180  0.0504 -0.5734  0.3623
12455TIP3    H158856   3.229   3.506   4.160 -0.2677 -0.6188 -1.0789
12455TIP3    H258857   3.117   3.488   4.261  1.0462  0.0395  0.5430
12456TIP3   OH258858   1.487   1.134  15.121 -0.0542 -0.0385  0.4748
12456TIP3    H158859   1.418   1.183  15.077 -0.7925 -1.1082  0.4218
12456TIP3    H258860   1.441   1.072  15.177  0.8729  0.2177  1.5541
12457TIP3   OH258861   5.619   2.526   1.286  0.1155  0.1912  0.4163
12457TIP3    H158862   5.686   2.540   1.352  0.5465  1.4276 -0.2487
12457TIP3    H258863   5.549   2.587   1.309 -0.5540 -0.6850  0.7778
12458TIP3   OH258864   1.781   5.831   1.748  0.3130 -0.4079  0.2351
12458TIP3    H158865   1.793   5.761   1.684 -1.5372 -0.4575 -0.1126
12458TIP3    H258866   1.857   5.824   1.805  0.2577 -2.6354  0.1371
12459TIP3   OH258867   4.642   5.692  14.038  0.1039  0.0626 -0.2921
12459TIP3    H158868   4.649   5.600  14.011  0.1492 -0.2619  0.7494
12459TIP3    H258869   4.556   5.698  14.081  1.3715 -0.3424  2.5280
12460TIP3   OH258870   3.963   6.621   2.618  0.5162  0.5778 -0.4262
12460TIP3    H158871   3.903   6.675   2.567 -0.2852  1.9864  1.8635
12460TIP3    H258872   4.008   6.683   2.676  1.5288 -0.8974  0.4411
12461TIP3   OH258873   4.337   5.892   4.530 -0.1617  0.5366  0.6232
12461TIP3    H158874   4.267   5.907   4.467 -1.2126  1.6108  1.9704
12461TIP3    H258875   4.304   5.824   4.588  1.7320 -2.1675 -1.2526
12462TIP3   OH258876   0.388   4.633   3.046  0.0259  0.4273  0.1957
12462TIP3    H158877   0.424   4.558   3.094  0.6174 -0.5774 -1.7327
12462TIP3    H258878   0.431   4.709   3.086  0.8377 -0.3961  0.9454
12463TIP3   OH258879   5.877   4.183   0.299  0.0166  0.2546 -0.6936
12463TIP3    H158880   5.929   4.105   0.283 -0.3800 -0.5392  1.5278
12463TIP3    H258881   5.902   4.211   0.387  0.3999  2.8747 -1.5223
12464TIP3   OH258882   5.566   3.470  11.706 -0.0849  0.2536 -0.0617
12464TIP3    H158883   5.558   3.459  11.612  1.8786  1.7588 -0.4773
12464TIP3    H258884   5.621   3.396  11.734 -0.3488  0.0205 -0.1593
12465TIP3   OH258885   0.525   5.093   1.974 -0.6436  0.0893 -0.2948
12465TIP3    H158886   0.588   5.151   1.931 -0.3373 -0.2215 -0.2676
12465TIP3    H258887   0.473   5.058   1.902  0.0986 -0.7049 -0.4604
12466TIP3   OH258888   3.717   3.110  14.442 -0.1711  0.0406  0.0826
12466TIP3    H158889   3.812   3.117  14.444 -0.0569 -1.3893  2.2528
12466TIP3    H258890   3.699   3.022  14.411 -0.8222  0.3462 -0.4548
12467TIP3   OH258891   5.045   3.304  14.712 -0.6214 -0.8653  0.3891
12467TIP3    H158892   5.025   3.239  14.644  1.3697 -1.1603  0.0142
12467TIP3    H258893   5.062   3.385  14.663  1.7963 -1.3091  0.3514
12468TIP3   OH258894   3.621   2.135   4.030 -0.3788 -0.0640 -0.2100
12468TIP3    H158895   3.683   2.195   4.072  1.0658 -1.9733  0.5345
12468TIP3    H258896   3.544   2.189   4.013  0.0511  1.5251  2.3199
12469TIP3   OH258897   2.803   2.613  12.428 -0.1755 -0.9584 -0.1500
12469TIP3    H158898   2.795   2.561  12.348  1.9485 -1.7490  0.0854
12469TIP3    H258899   2.810   2.548  12.498 -2.5845 -0.2782  0.7961
12470TIP3   OH258900   1.655   4.068  12.511  0.0849  0.5491  0.3975
12470TIP3    H158901   1.600   3.991  12.520 -0.8900  1.3457  1.4650
12470TIP3    H258902   1.664   4.080  12.416 -1.5920  0.3948  0.1876
12471TIP3   OH258903   3.779   2.097   2.576 -0.2729 -0.1373  0.0112
12471TIP3    H158904   3.746   2.152   2.647 -0.2349 -0.3196  0.1743
12471TIP3    H258905   3.701   2.070   2.528 -0.1507  1.6560 -1.2794
12472TIP3   OH258906   2.773   6.096   1.263  0.3257 -0.1795  0.0264
12472TIP3    H158907   2.822   6.019   1.292 -0.1752 -0.4067  0.2769
12472TIP3    H258908   2.831   6.139   1.200  0.4232 -1.0109 -0.4657
12473TIP3   OH258909   3.924   2.227   4.084  0.1109  0.2859 -0.5987
12473TIP3    H158910   4.001   2.174   4.103 -0.8826 -0.5823  1.1598
12473TIP3    H258911   3.940   2.310   4.129 -0.6919 -0.5093  1.2264
12474TIP3   OH258912   0.409   0.489   1.402 -0.2326 -0.1626 -0.3932
12474TIP3    H158913   0.447   0.542   1.472 -1.4069  1.8901 -1.2357
12474TIP3    H258914   0.343   0.435   1.445 -1.9268  2.0765 -0.0340
12475TIP3   OH258915   3.059   0.526  12.213 -0.1327  0.7578 -0.2943
12475TIP3    H158916   3.026   0.543  12.125 -0.6324 -2.5179 -0.8790
12475TIP3    H258917   3.095   0.437  12.208  2.5590  1.5464  2.1041
12476TIP3   OH258918   6.100   0.672  13.557 -0.3499 -0.4929  0.8019
12476TIP3    H158919   6.147   0.597  13.521 -2.3646 -1.0997 -0.7419
12476TIP3    H258920   6.134   0.747  13.508 -0.0765 -0.7315  0.6203
12477TIP3   OH258921   1.218   3.401   0.556 -0.6873  0.8880 -0.3834
12477TIP3    H158922   1.133   3.401   0.601 -1.0814 -0.5182 -1.0719
12477TIP3    H258923   1.204   3.348   0.478  0.2414  2.5235 -1.7271
12478TIP3   OH258924   3.152   3.435   2.090  0.0699 -0.5639 -0.3729
12478TIP3    H158925   3.216   3.497   2.057  0.8032  0.0998  2.1357
12478TIP3    H258926   3.067   3.472   2.064  0.5930 -0.1510 -1.5528
12479TIP3   OH258927   4.521   2.863   6.071 -0.0200  0.3569 -0.3828
12479TIP3    H158928   4.453   2.886   6.134  1.2100  1.9402  0.4429
12479TIP3    H258929   4.514   2.768   6.061 -0.8710  0.1978  1.4048
12480TIP3   OH258930   1.630   2.561   4.946 -0.5082  0.1133 -0.5963
12480TIP3    H158931   1.714   2.550   4.991 -1.1322  0.0761  0.6192
12480TIP3    H258932   1.645   2.629   4.882  0.6871 -0.5373 -1.0252
12481TIP3   OH258933   2.563   5.494   1.958 -0.1959 -0.3336 -0.7046
12481TIP3    H158934   2.611   5.452   1.887  1.5370  1.5416 -0.7372
12481TIP3    H258935   2.627   5.505   2.028 -0.9953  0.7333 -0.0965
12482TIP3   OH258936   4.349   3.454  15.331 -0.0900  0.0347 -0.3892
12482TIP3    H158937   4.382   3.369  15.362  0.5956  0.6796  0.7068
12482TIP3    H258938   4.312   3.435  15.245  1.8266 -1.0315 -1.0607
12483TIP3   OH258939   1.616   2.534  12.472  0.3826 -0.0389  0.5604
12483TIP3    H158940   1.626   2.441  12.489  0.6209  0.1591  1.5599
12483TIP3    H258941   1.615   2.575  12.559  0.0227  0.8630  0.1509
12484TIP3   OH258942   0.495   3.415  12.131  0.3059  0.0758 -0.4373
12484TIP3    H158943   0.569   3.466  12.097 -0.5650 -0.1177 -2.8424
12484TIP3    H258944   0.419   3.472  12.117 -0.2850 -0.6520 -0.2454
12485TIP3   OH258945   3.217   2.795   3.531 -0.1422 -0.3074  0.2016
12485TIP3    H158946   3.205   2.726   3.597 -0.2510  0.4098  0.9566
12485TIP3    H258947   3.171   2.870   3.568  0.4263  0.3239 -0.3645
12486TIP3   OH258948   4.403   2.341  14.632 -0.5044 -0.0285 -0.0884
12486TIP3    H158949   4.481   2.370  14.585 -1.0255 -0.3056 -1.1501
12486TIP3    H258950   4.436   2.310  14.717  0.4529  0.4382 -0.2788
12487TIP3   OH258951   1.797   0.197  13.057 -0.0908 -0.1236 -0.1447
12487TIP3    H158952   1.834   0.167  13.140  1.3467  0.9441 -0.3405
12487TIP3    H258953   1.733   0.264  13.082 -0.5380 -0.6554  0.1408
12488TIP3   OH258954   1.502   6.041  13.066 -0.1472 -0.2461  0.0752
12488TIP3    H158955   1.455   6.089  12.998 -2.1498  0.0463  1.5724
12488TIP3    H258956   1.440   5.973  13.094  0.4626 -0.1161  1.8367
12489TIP3   OH258957   6.717   5.618  17.049  0.2346  0.6349  0.1435
12489TIP3    H158958   6.735   5.634  17.142 -0.9122  3.1770  0.0223
12489TIP3    H258959   6.784   5.667  17.002  2.1260 -2.3223 -0.5139
12490TIP3   OH258960   4.828   6.365   5.343  0.0247 -0.0239 -0.0222
12490TIP3    H158961   4.752   6.405   5.386 -0.2896 -0.8276  0.1922
12490TIP3    H258962   4.870   6.437   5.296 -0.2039  0.6695  0.8029
12491TIP3   OH258963   6.687   2.922  15.858  0.0169  0.2280  0.0436
12491TIP3    H158964   6.655   2.986  15.922 -1.3598 -1.6801  1.3962
12491TIP3    H258965   6.773   2.953  15.833 -0.2603  2.1435  1.2870
12492TIP3   OH258966   2.378   1.078   2.494  0.3333 -0.2339 -0.0738
12492TIP3    H158967   2.317   1.109   2.427 -0.6228  0.4689  1.1003
12492TIP3    H258968   2.366   0.983   2.494  0.7062 -0.3054 -1.2131
12493TIP3   OH258969   1.168   2.828   4.429 -0.0596  0.1739 -0.4247
12493TIP3    H158970   1.077   2.812   4.454 -0.1039 -0.7674 -1.1766
12493TIP3    H258971   1.176   2.924   4.431 -1.6112  0.4096 -2.2072
12494TIP3   OH258972   6.571   0.980   5.063 -0.2515 -0.1408  0.0066
12494TIP3    H158973   6.616   0.944   4.987 -2.2589 -0.5862 -1.0358
12494TIP3    H258974   6.503   0.916   5.084 -2.0315  1.6137 -0.0713
12495TIP3   OH258975   0.669   2.214   2.572 -0.0295  0.4116  0.3917
12495TIP3    H158976   0.701   2.302   2.552 -0.1003  0.3748  0.1151
12495TIP3    H258977   0.703   2.159   2.502 -2.6176  0.7775 -1.3063
12496TIP3   OH258978   6.221   0.940   6.596  0.1606 -0.0506 -0.1399
12496TIP3    H158979   6.226   1.012   6.659  1.8046  2.0902 -2.5522
12496TIP3    H258980   6.129   0.912   6.599 -0.2666  1.3645  1.6823
12497TIP3   OH258981   1.024   6.095  10.433 -0.7568  0.4827 -0.2423
12497TIP3    H158982   0.979   6.051  10.362 -0.3771  0.4548 -0.4714
12497TIP3    H258983   0.955   6.141  10.482 -0.9923  0.6629 -0.7431
12498TIP3   OH258984   2.434   4.180  16.918  0.6393 -0.3647 -0.2342
12498TIP3    H158985   2.360   4.183  16.858 -0.8353 -0.0970  1.5106
12498TIP3    H258986   2.495   4.246  16.885 -0.4371  0.2700 -1.0279
12499TIP3   OH258987   3.326   5.718   1.178 -0.0365  0.7094 -0.5994
12499TIP3    H158988   3.300   5.626   1.168  0.5329  0.5062 -0.3178
12499TIP3    H258989   3.272   5.750   1.250  1.3810 -0.0914  0.8928
12500TIP3   OH258990   5.355   1.288   1.644  0.1312  0.2729 -0.0536
12500TIP3    H158991   5.268   1.307   1.608 -0.2814 -0.6374  0.4214
12500TIP3    H258992   5.347   1.309   1.737  0.0269 -0.9873  0.2393
12501TIP3   OH258993   0.968   0.150  11.505 -0.0826  0.5644  0.4695
12501TIP3    H158994   0.883   0.152  11.461 -0.2647 -0.8150  0.7046
12501TIP3    H258995   0.982   0.240  11.535 -1.4138  0.8332  0.3467
12502TIP3   OH258996   6.703   0.854   4.014  0.3063 -0.5069 -0.1118
12502TIP3    H158997   6.798   0.845   4.010  0.4386 -1.0690  2.5465
12502TIP3    H258998   6.673   0.835   3.925  2.7193  0.7658 -1.3052
12503TIP3   OH258999   4.496   3.874  12.186  0.1031  0.0165 -0.6114
12503TIP3    H159000   4.480   3.780  12.191 -0.0362  0.0233 -0.9132
12503TIP3    H259001   4.591   3.882  12.176  0.2622 -0.0427  0.6673
12504TIP3   OH259002   5.627   6.730   0.852 -0.3429  0.0647  0.5061
12504TIP3    H159003   5.630   6.636   0.833 -0.1187  0.2079 -0.1977
12504TIP3    H259004   5.536   6.747   0.874 -0.2553 -0.4376  1.3111
12505TIP3   OH259005   1.576   1.725   5.023  0.0783 -0.2772 -0.1202
12505TIP3    H159006   1.491   1.752   4.988  0.6167  0.2771 -1.0409
12505TIP3    H259007   1.583   1.771   5.107 -0.8199 -0.8765  0.2992
12506TIP3   OH259008   3.535   0.671   5.671  0.1305 -0.2804  0.5197
12506TIP3    H159009   3.471   0.716   5.615 -2.2942 -2.0571  1.6882
12506TIP3    H259010   3.608   0.732   5.676 -1.2002  1.6436 -1.3647
12507TIP3   OH259011   0.304   2.560  11.470  0.0875  0.4566  0.2846
12507TIP3    H159012   0.396   2.537  11.487 -0.6038 -2.3429  0.6830
12507TIP3    H259013   0.256   2.528  11.546 -1.1958  2.5176  0.4095
12508TIP3   OH259014   5.879   4.635   5.096 -0.0807 -0.4821  0.2746
12508TIP3    H159015   5.946   4.621   5.029 -0.7564 -0.8093 -0.3308
12508TIP3    H259016   5.832   4.552   5.101  1.1772 -1.1619  2.5491
12509TIP3   OH259017   4.946   4.204   6.754 -0.0354  0.3194 -0.4079
12509TIP3    H159018   4.903   4.120   6.738  0.2407  0.3767 -1.5117
12509TIP3    H259019   4.896   4.243   6.826 -3.1618  1.2736 -2.8769
12510TIP3   OH259020   5.277   1.591  11.959  0.1341 -0.1329  0.2746
12510TIP3    H159021   5.278   1.640  12.041  0.7815  0.1938  0.0800
12510TIP3    H259022   5.230   1.648  11.898  1.5384  0.6333 -0.1603
12511TIP3   OH259023   1.867   1.233  13.863  0.0210 -0.1693 -0.2846
12511TIP3    H159024   1.861   1.222  13.958  0.0774  1.8702  0.0056
12511TIP3    H259025   1.914   1.316  13.852 -0.3227 -0.1825 -2.0884
12512TIP3   OH259026   2.729   5.676  12.466 -0.6708 -0.4727  0.3027
12512TIP3    H159027   2.685   5.616  12.527 -2.1956 -0.7660 -1.0263
12512TIP3    H259028   2.720   5.634  12.381  1.3213 -0.0114 -0.1894
12513TIP3   OH259029   2.721   5.155   2.840 -0.5466 -0.0952  0.0271
12513TIP3    H159030   2.638   5.204   2.839 -0.1669  0.5829  0.6686
12513TIP3    H259031   2.709   5.090   2.909 -1.5555 -1.8545 -1.7181
12514TIP3   OH259032   0.242   0.421  14.110 -0.1390 -0.0870 -0.3361
12514TIP3    H159033   0.211   0.493  14.165 -0.7038 -0.4039 -0.2310
12514TIP3    H259034   0.192   0.345  14.139 -1.2742 -0.0464 -2.0350
12515TIP3   OH259035   3.203   6.363  11.217  0.1613  0.0188 -0.1196
12515TIP3    H159036   3.217   6.387  11.309  1.2679  0.2280 -0.3298
12515TIP3    H259037   3.260   6.422  11.168  1.4892 -1.7195 -0.7794
12516TIP3   OH259038   1.588   4.398   5.707 -0.4403  0.1582  0.1960
12516TIP3    H159039   1.677   4.380   5.677  0.0203  0.3531  1.4248
12516TIP3    H259040   1.536   4.326   5.670 -0.0721  0.8190 -1.7552
12517TIP3   OH259041   5.932   4.295  16.303  0.7862  0.1030 -0.3897
12517TIP3    H159042   5.864   4.362  16.302 -1.1069 -1.7234 -0.7067
12517TIP3    H259043   5.898   4.225  16.247  2.3086 -1.4822  0.5637
12518TIP3   OH259044   5.972   3.795   3.137  0.0679 -0.2590  0.6242
12518TIP3    H159045   5.893   3.753   3.171  0.2627 -0.5484  0.7262
12518TIP3    H259046   5.980   3.763   3.047 -0.5224  0.6121  0.2419
12519TIP3   OH259047   5.683   6.010   2.341 -0.6775  0.3255  0.2076
12519TIP3    H159048   5.763   5.999   2.391  0.0152 -3.2609 -1.4144
12519TIP3    H259049   5.624   5.941   2.373 -1.6888  0.4909 -1.1884
12520TIP3   OH259050   0.783   1.083   2.449 -0.2344  0.4100  0.2107
12520TIP3    H159051   0.689   1.089   2.430 -0.0576 -1.0808 -1.3725
12520TIP3    H259052   0.820   1.164   2.413 -0.6961  0.2034 -0.7609
12521TIP3   OH259053   4.877   1.875   6.611 -0.1961  0.5120  0.2037
12521TIP3    H159054   4.915   1.790   6.588 -0.2455 -0.0503  2.0780
12521TIP3    H259055   4.782   1.862   6.605 -0.1957  0.6610 -0.2009
12522TIP3   OH259056   5.683   6.379  14.826 -0.4858  0.6038  0.1342
12522TIP3    H159057   5.754   6.326  14.791 -1.0131  0.7520 -1.2219
12522TIP3    H259058   5.697   6.379  14.921 -1.0955 -2.8615  0.3505
12523TIP3   OH259059   4.710   2.410   5.750  0.3214  0.6798  0.3547
12523TIP3    H159060   4.621   2.388   5.777  0.8976 -1.6442  0.5211
12523TIP3    H259061   4.718   2.504   5.770 -2.4594  1.2823 -0.8193
12524TIP3   OH259062   5.798   6.184   3.606  0.2973 -0.1833 -0.7342
12524TIP3    H159063   5.851   6.252   3.646  0.6016 -0.3201 -0.9028
12524TIP3    H259064   5.755   6.227   3.533  0.9801 -0.3201 -1.2260
12525TIP3   OH259065   4.831   0.542   1.287 -0.2593 -0.2466  0.0529
12525TIP3    H159066   4.827   0.494   1.204 -1.0574  0.5865 -0.4144
12525TIP3    H259067   4.924   0.561   1.299 -0.1940  0.2272 -1.0253
12526TIP3   OH259068   3.894   4.394  16.684  0.2465  0.1953 -0.1228
12526TIP3    H159069   3.951   4.319  16.668  0.0153  0.2741 -1.3502
12526TIP3    H259070   3.868   4.425  16.597 -0.5369  1.0320  0.3850
12527TIP3   OH259071   0.294   2.532  15.938  0.2507  0.0400  0.4726
12527TIP3    H159072   0.207   2.559  15.967 -0.4019 -2.3629  0.9907
12527TIP3    H259073   0.354   2.591  15.984 -1.0601  1.4448  0.4446
12528TIP3   OH259074   2.792   0.584  15.633  0.0987  0.9343 -0.3833
12528TIP3    H159075   2.746   0.514  15.681  0.9117 -0.5961 -1.7161
12528TIP3    H259076   2.876   0.545  15.610  0.0882  1.9198 -2.2415
12529TIP3   OH259077   1.479   5.177  15.762  0.0537  0.8357  0.0918
12529TIP3    H159078   1.400   5.127  15.741  0.2280  0.3717  0.5250
12529TIP3    H259079   1.447   5.261  15.795 -0.4542 -0.8495  4.4231
12530TIP3   OH259080   4.791   5.705  11.048 -0.0678 -0.0677  0.1474
12530TIP3    H159081   4.799   5.614  11.020  0.7504 -0.4831  1.6110
12530TIP3    H259082   4.776   5.754  10.968  1.6293 -1.2347 -0.9492
12531TIP3   OH259083   6.665   4.342  12.246  0.4460  0.2124 -0.2585
12531TIP3    H159084   6.685   4.249  12.233  2.1990  0.3333  1.0826
12531TIP3    H259085   6.617   4.344  12.329  1.8858  0.5953  0.6065
12532TIP3   OH259086   2.730   2.483   4.533 -0.0701 -0.4958  0.8216
12532TIP3    H159087   2.794   2.412   4.523  1.8925  1.4269 -1.7358
12532TIP3    H259088   2.661   2.463   4.470  0.2016 -0.4615  0.5070
12533TIP3   OH259089   3.378   1.052   4.292 -0.1767  0.3826  0.2807
12533TIP3    H159090   3.432   1.118   4.337 -1.5631  0.8451  1.3461
12533TIP3    H259091   3.373   1.083   4.202  0.2289  1.0732  0.4866
12534TIP3   OH259092   4.333   2.975   1.827  0.5889  0.0364 -0.0276
12534TIP3    H159093   4.384   2.905   1.867 -2.0881 -1.4407  1.0474
12534TIP3    H259094   4.296   3.023   1.901 -0.8253  0.0563 -0.7175
12535TIP3   OH259095   0.707   4.563   3.687  0.3481  0.2441  0.5143
12535TIP3    H159096   0.730   4.476   3.654 -0.0197  0.5494 -0.5990
12535TIP3    H259097   0.722   4.558   3.781  1.5736 -0.6316  0.2952
12536TIP3   OH259098   2.418   2.933   3.433 -0.4092  1.0090 -0.7755
12536TIP3    H159099   2.369   2.851   3.434  1.5726 -0.2602 -0.9091
12536TIP3    H259100   2.402   2.970   3.347 -0.2084  0.0138 -1.2509
12537TIP3   OH259101   2.791   3.234   2.387 -0.6324 -0.3333  0.2917
12537TIP3    H159102   2.739   3.171   2.338 -1.0967 -0.7075  1.2384
12537TIP3    H259103   2.730   3.271   2.451 -0.3026  0.9108 -0.0971
12538TIP3   OH259104   1.892   4.270  11.643 -0.6462 -0.1432  0.7048
12538TIP3    H159105   1.980   4.302  11.625 -0.7157 -0.0790  0.4807
12538TIP3    H259106   1.839   4.299  11.569 -0.7276 -0.6983  0.5366
12539TIP3   OH259107   0.226   2.304  12.471 -0.2318  0.2282  0.5905
12539TIP3    H159108   0.176   2.370  12.520 -2.2477 -0.8922  0.1375
12539TIP3    H259109   0.281   2.262  12.537  0.5225  1.7982  1.0204
12540TIP3   OH259110   4.808   5.552  15.522 -0.1574  0.5973 -0.4308
12540TIP3    H159111   4.725   5.582  15.559  0.7235  0.4497  1.7934
12540TIP3    H259112   4.851   5.632  15.490  0.5603  1.3351  2.1178
12541TIP3   OH259113   4.951   2.660   6.763  0.4719 -0.2151 -0.3894
12541TIP3    H159114   4.876   2.702   6.722 -0.2682 -0.0953  1.0387
12541TIP3    H259115   4.998   2.731   6.808  2.0798 -0.0923 -2.1102
12542TIP3   OH259116   2.750   5.196   1.089 -0.1491  0.1195 -0.4064
12542TIP3    H159117   2.805   5.264   1.050  0.1887 -0.2408 -0.5696
12542TIP3    H259118   2.661   5.219   1.063 -0.0903  0.7563 -0.0752
12543TIP3   OH259119   4.880   1.418  12.522  0.0086 -0.2946  0.5696
12543TIP3    H159120   4.935   1.342  12.504 -1.2445 -1.0903 -0.0097
12543TIP3    H259121   4.842   1.441  12.438  0.5449  1.1388  0.6960
12544TIP3   OH259122   0.592   6.584  11.981 -0.0813 -0.0932 -0.1303
12544TIP3    H159123   0.622   6.532  11.906 -0.0303 -2.0614  1.1790
12544TIP3    H259124   0.562   6.519  12.044  1.8577  1.3293  2.4400
12545TIP3   OH259125   6.743   4.469  11.650  0.6192  0.7666 -0.5733
12545TIP3    H159126   6.791   4.414  11.713 -0.9369  2.5843  2.4401
12545TIP3    H259127   6.762   4.430  11.565  0.0611 -4.1184  1.2289
12546TIP3   OH259128   1.187   5.363  15.276 -0.2175  0.3597  0.0927
12546TIP3    H159129   1.187   5.271  15.305 -2.0512 -0.4076 -2.1262
12546TIP3    H259130   1.237   5.362  15.194 -0.6041  1.2789 -0.1594
12547TIP3   OH259131   1.196   1.815   4.112 -0.2004 -0.1228 -0.4071
12547TIP3    H159132   1.229   1.812   4.022  1.0983 -0.2438  0.0488
12547TIP3    H259133   1.263   1.769   4.163 -1.6270 -1.3487  0.4198
12548TIP3   OH259134   6.418   5.603  15.976 -0.2670  0.6920 -0.9095
12548TIP3    H159135   6.445   5.686  15.937 -0.1697  0.7857 -0.6474
12548TIP3    H259136   6.402   5.545  15.902  0.0646  0.8219 -1.0823
12549TIP3   OH259137   1.595   2.973  15.292 -0.2687  0.4189  0.5578
12549TIP3    H159138   1.535   2.960  15.219 -0.6052  0.0279  0.8936
12549TIP3    H259139   1.681   2.978  15.252 -0.4337  0.0516  0.1430
12550TIP3   OH259140   2.490   1.860  12.598 -0.3271 -0.3622  0.0146
12550TIP3    H159141   2.578   1.898  12.603 -1.1516  1.5463  0.8879
12550TIP3    H259142   2.473   1.828  12.686 -0.1203 -1.7545 -0.4213
12551TIP3   OH259143   2.558   6.346   3.404 -0.0758 -0.0973  0.3404
12551TIP3    H159144   2.557   6.423   3.348 -1.2025  1.5990  2.5500
12551TIP3    H259145   2.617   6.369   3.476 -1.2554 -0.8425  1.5900
12552TIP3   OH259146   1.583   4.361   5.966 -0.5589  0.4101 -0.8183
12552TIP3    H159147   1.577   4.378   5.872 -4.6477 -0.5265 -0.9389
12552TIP3    H259148   1.537   4.434   6.006 -0.4967 -0.1300  0.2657
12553TIP3   OH259149   6.191   3.040  13.217 -0.1485 -0.5794  0.0714
12553TIP3    H159150   6.149   3.086  13.290  1.3193 -1.5171  1.6015
12553TIP3    H259151   6.136   2.963  13.202  0.0226 -0.8557  0.8261
12554TIP3   OH259152   4.647   5.729  10.492  0.7951  0.0677 -0.2852
12554TIP3    H159153   4.641   5.661  10.559 -0.1954  0.0237 -0.4023
12554TIP3    H259154   4.673   5.808  10.540 -1.3864  0.4128  0.4627
12555TIP3   OH259155   2.792   3.458   4.754  0.2490 -0.7670 -0.5277
12555TIP3    H159156   2.880   3.427   4.778  0.5499  0.8418  0.5785
12555TIP3    H259157   2.738   3.437   4.830  0.1988  0.3198 -0.2559
12556TIP3   OH259158   6.272   4.090  10.938 -0.0809  0.0431 -0.3654
12556TIP3    H159159   6.183   4.091  10.903 -0.0833 -1.6335 -0.4918
12556TIP3    H259160   6.286   3.999  10.964  1.5403  0.3147 -0.1992
12557TIP3   OH259161   3.696   0.281   0.983 -0.2570  0.1400 -0.7635
12557TIP3    H159162   3.719   0.190   0.967 -0.0629  0.1116 -0.3481
12557TIP3    H259163   3.701   0.323   0.897 -2.3313 -0.6582 -1.3366
12558TIP3   OH259164   2.409   6.189  16.848 -0.0507 -0.1550  0.0035
12558TIP3    H159165   2.476   6.215  16.912  1.7021 -0.3159 -1.6786
12558TIP3    H259166   2.412   6.257  16.781 -1.2350 -0.4466 -0.3685
12559TIP3   OH259167   2.158   1.372  13.987  0.3682  0.2100 -0.5706
12559TIP3    H159168   2.158   1.357  14.082 -1.2755 -2.1256 -0.8636
12559TIP3    H259169   2.087   1.434  13.973  0.8558  0.8529 -0.2664
12560TIP3   OH259170   6.175   5.829   2.671  0.2150 -0.4425 -0.3212
12560TIP3    H159171   6.111   5.850   2.739 -0.3751  0.4656 -1.1268
12560TIP3    H259172   6.259   5.852   2.710 -0.0637 -0.4645  0.3095
12561TIP3   OH259173   3.730   0.756   1.779  0.2154 -0.6398 -0.0057
12561TIP3    H159174   3.796   0.825   1.776 -0.3731  0.3385  3.8599
12561TIP3    H259175   3.767   0.689   1.835 -1.8801 -0.1511  2.1160
12562TIP3   OH259176   3.255   1.658  17.246 -0.0613  0.1505 -0.3087
12562TIP3    H159177   3.349   1.645  17.239  0.0740  1.5233 -1.5981
12562TIP3    H259178   3.245   1.733  17.305 -0.2983  0.4303 -0.6977
12563TIP3   OH259179   1.157   1.670  12.595  0.9163  0.2109  0.3277
12563TIP3    H159180   1.215   1.611  12.642 -0.3070  0.6946  2.5855
12563TIP3    H259181   1.069   1.641  12.617  0.2909  2.0601  0.4994
12564TIP3   OH259182   5.051   2.647  13.104 -0.2220 -0.0715 -0.4708
12564TIP3    H159183   4.986   2.646  13.174 -0.2222  0.2752 -0.4620
12564TIP3    H259184   5.097   2.730  13.115 -1.0982  0.6136 -1.6582
12565TIP3   OH259185   1.951   1.165   1.577  0.3491  0.2576 -0.2305
12565TIP3    H159186   1.925   1.079   1.545 -1.7050  1.2525 -1.4261
12565TIP3    H259187   2.042   1.174   1.548 -0.2496 -0.4535 -2.5404
12566TIP3   OH259188   5.808   3.866   0.841 -0.2710 -0.0705  0.4375
12566TIP3    H159189   5.726   3.822   0.866 -0.6168  0.4658  0.2598
12566TIP3    H259190   5.854   3.879   0.924  0.0572 -1.1838  0.4499
12567TIP3   OH259191   6.674   4.435  14.477  0.4826  0.5102  0.2250
12567TIP3    H159192   6.613   4.504  14.452  1.5126  0.7605 -1.8192
12567TIP3    H259193   6.700   4.395  14.394  1.1664 -1.2650  1.2308
12568TIP3   OH259194   5.711   5.942   3.695 -0.1058  0.2651  0.3744
12568TIP3    H159195   5.654   5.944   3.618  1.8971 -0.3684 -1.2338
12568TIP3    H259196   5.740   6.033   3.705  1.7553 -0.0425 -1.4258
12569TIP3   OH259197   0.051   5.408   1.215 -0.1565  0.0754  0.2964
12569TIP3    H159198  -0.002   5.329   1.226  2.1970 -1.4979  1.0202
12569TIP3    H259199   0.086   5.401   1.126 -3.3886  2.6874 -1.4140
12570TIP3   OH259200   0.678   1.974   0.077  0.2177 -0.2053 -0.2654
12570TIP3    H159201   0.617   1.970   0.150 -1.7133  0.8631 -1.7105
12570TIP3    H259202   0.625   1.953  -0.000  1.8979 -0.1550 -1.5023
12571TIP3   OH259203   3.165   2.570   1.022 -0.1612 -0.0571  0.3427
12571TIP3    H159204   3.220   2.505   1.066  0.7696  0.4114 -0.1062
12571TIP3    H259205   3.132   2.524   0.945 -0.1410 -0.2415  0.4423
12572TIP3   OH259206   6.294   3.183  13.850 -0.0415  0.2102  0.7888
12572TIP3    H159207   6.260   3.259  13.898 -0.3950  0.2938  0.4177
12572TIP3    H259208   6.340   3.131  13.915  1.6330  1.5593  0.7570
12573TIP3   OH259209   5.726   3.826   2.739 -0.0723  0.0724 -0.0061
12573TIP3    H159210   5.688   3.905   2.777  1.2968  0.8000 -0.0799
12573TIP3    H259211   5.667   3.756   2.766 -1.4881  1.1463 -0.1880
12574TIP3   OH259212   1.265   3.425   5.540 -0.7683 -0.0308 -0.0232
12574TIP3    H159213   1.238   3.378   5.619 -0.2449 -0.7579 -0.2613
12574TIP3    H259214   1.189   3.418   5.482 -0.2765 -1.7287 -0.5406
12575TIP3   OH259215   2.624   5.113  16.798 -0.6790 -0.0728  0.0976
12575TIP3    H159216   2.659   5.193  16.837 -0.8729 -0.8584  1.9623
12575TIP3    H259217   2.614   5.134  16.705  0.2237  1.7221  0.3712
12576TIP3   OH259218   4.903   2.559   0.152  0.3573 -0.3133 -0.3578
12576TIP3    H159219   4.873   2.477   0.190 -0.3673 -0.3334 -0.9551
12576TIP3    H259220   4.999   2.551   0.151  0.2906 -1.2002 -0.5094
12577TIP3   OH259221   2.034   5.462  15.993 -0.4371  0.4379  0.2606
12577TIP3    H159222   1.985   5.379  15.992  0.7983 -0.3705  1.9619
12577TIP3    H259223   2.121   5.438  15.961 -0.0083  1.0384  0.9668
12578TIP3   OH259224   0.939   5.201  12.714  0.1175  0.2810  0.2856
12578TIP3    H159225   0.901   5.206  12.626 -0.4064 -0.9660  0.4360
12578TIP3    H259226   1.015   5.144  12.704 -0.0848 -0.0608  0.6966
12579TIP3   OH259227   4.326   0.921   2.233  0.0944 -0.4879 -0.4760
12579TIP3    H159228   4.396   0.976   2.197  0.9776  0.3536  2.2602
12579TIP3    H259229   4.264   0.982   2.271  0.6070 -1.2711  1.7790
12580TIP3   OH259230   4.947   2.741  15.323 -0.3841  0.2198 -0.7210
12580TIP3    H159231   4.897   2.785  15.254 -1.4028 -1.1393 -0.8962
12580TIP3    H259232   4.894   2.754  15.402 -1.4467 -1.7866 -1.0285
12581TIP3   OH259233   5.643   0.956   6.034 -0.4230 -0.6179  0.0201
12581TIP3    H159234   5.645   0.866   6.000 -1.3468 -0.3914 -0.6662
12581TIP3    H259235   5.557   0.965   6.075  0.2831 -0.5491  1.5475
12582TIP3   OH259236   2.569   4.580   5.928 -0.3356 -0.2100  1.1160
12582TIP3    H159237   2.638   4.611   5.986 -0.7998  0.9918  1.0575
12582TIP3    H259238   2.522   4.513   5.979  0.2563 -0.3271  1.5132
12583TIP3   OH259239   1.936   1.785  12.906 -0.2138 -0.4030 -0.1236
12583TIP3    H159240   1.961   1.787  12.999 -0.8488  1.0990  0.0511
12583TIP3    H259241   1.846   1.818  12.906  0.0984  0.5068 -1.3583
12584TIP3   OH259242   6.482   5.527   2.604 -0.8872  0.0856  0.1334
12584TIP3    H159243   6.544   5.489   2.542  0.2793 -1.1115  1.9426
12584TIP3    H259244   6.530   5.599   2.644 -1.0707 -0.1136  0.7200
12585TIP3   OH259245   6.563   4.329   6.559  0.0750 -0.1225 -0.3143
12585TIP3    H159246   6.623   4.268   6.602  1.9180  1.6522 -0.2227
12585TIP3    H259247   6.614   4.409   6.547 -2.4072  1.6713  0.1446
12586TIP3   OH259248   3.159   4.844   2.257 -0.2279 -0.3974 -0.4478
12586TIP3    H159249   3.196   4.929   2.233  0.2091 -0.8647 -1.5515
12586TIP3    H259250   3.181   4.788   2.182 -2.2768 -0.9722 -0.6687
12587TIP3   OH259251   1.044   1.349  13.232  0.1729  0.5700  0.6968
12587TIP3    H159252   1.013   1.309  13.150  1.4983 -0.4923  0.6849
12587TIP3    H259253   1.016   1.440  13.226  0.6014  0.6143 -1.1267
12588TIP3   OH259254   2.509   0.837  14.705 -0.0107 -0.1935  0.1076
12588TIP3    H159255   2.472   0.900  14.767 -1.2628 -1.7018  1.0029
12588TIP3    H259256   2.531   0.888  14.628  0.1695  1.5116  1.2361
12589TIP3   OH259257   5.427   5.056  17.285  0.0580 -0.0832  0.3374
12589TIP3    H159258   5.387   5.078  17.370  0.3529  1.6121  0.0785
12589TIP3    H259259   5.361   5.082  17.221  0.3456 -0.1558  0.0146
12590TIP3   OH259260   4.928   3.749  14.770  1.0582 -0.0538  0.6499
12590TIP3    H159261   4.904   3.807  14.698  1.4654  0.6145  1.0489
12590TIP3    H259262   5.023   3.754  14.775  1.0538 -0.3089  1.0651
12591TIP3   OH259263   5.204   0.022  11.780  0.1102 -0.0516 -0.4257
12591TIP3    H159264   5.254  -0.060  11.787 -0.2772 -0.2743 -0.2634
12591TIP3    H259265   5.121  -0.004  11.741 -0.3514  0.1208  0.4173
12592TIP3   OH259266   1.027   3.761  15.054  0.0532  0.0061  0.3391
12592TIP3    H159267   1.031   3.690  14.990  1.1757  1.8048 -1.7365
12592TIP3    H259268   0.943   3.804  15.037 -0.9588 -1.1536  2.0769
12593TIP3   OH259269   2.382   2.363   1.859  0.2799 -0.4610 -0.3710
12593TIP3    H159270   2.324   2.290   1.878  1.9964 -1.2083  2.8483
12593TIP3    H259271   2.378   2.374   1.764 -1.8447 -3.1482 -0.7017
12594TIP3   OH259272   0.687   1.792  15.042 -0.0211  0.1292 -0.2444
12594TIP3    H159273   0.705   1.706  15.080 -0.0446  0.1147 -0.2665
12594TIP3    H259274   0.597   1.787  15.012 -0.0410  0.1804 -0.1951
12595TIP3   OH259275   3.693   3.883   0.699 -0.3125 -0.1436  0.4569
12595TIP3    H159276   3.691   3.939   0.776 -2.3778  0.9585 -0.3005
12595TIP3    H259277   3.695   3.794   0.733  0.7446  0.3430  1.7247
12596TIP3   OH259278   4.874   2.628   1.597  0.2245 -0.0887 -0.2366
12596TIP3    H159279   4.966   2.632   1.573 -0.1028  2.7103 -1.4851
12596TIP3    H259280   4.828   2.618   1.513 -0.6689 -3.9881  0.5078
12597TIP3   OH259281   5.156   6.344  11.911 -0.0176 -0.3039 -0.3044
12597TIP3    H159282   5.163   6.291  11.991  0.7552 -0.5246 -0.5148
12597TIP3    H259283   5.073   6.391  11.921 -0.3537 -0.9893  0.2281
12598TIP3   OH259284   4.741   5.956   5.375 -0.5396 -0.2012  0.9800
12598TIP3    H159285   4.689   5.897   5.320  1.3257 -1.6475  0.6884
12598TIP3    H259286   4.759   6.031   5.318  0.4360 -1.1825 -0.0598
12599TIP3   OH259287   3.918   3.558  11.319  0.8809  0.0329 -0.4524
12599TIP3    H159288   3.944   3.483  11.266  0.2029 -1.8434  1.7093
12599TIP3    H259289   3.979   3.557  11.393  1.1301  1.8978 -0.5931
12600TIP3   OH259290   4.753   2.291  16.170 -0.4132 -0.1736 -0.6350
12600TIP3    H159291   4.840   2.323  16.195 -0.7839 -1.0462  2.1637
12600TIP3    H259292   4.718   2.359  16.112  1.2905  1.3087 -0.0228
12601TIP3   OH259293   2.324   5.386   0.943  0.6636  0.1293 -0.0380
12601TIP3    H159294   2.366   5.367   0.859  1.5199  0.7130  0.2426
12601TIP3    H259295   2.234   5.410   0.920  0.8981  0.3152 -0.8003
12602TIP3   OH259296   4.270   1.407   1.609 -0.3843 -0.1712 -0.0749
12602TIP3    H159297   4.294   1.386   1.519 -2.3961  0.7142 -0.8820
12602TIP3    H259298   4.241   1.324   1.646 -2.9353 -0.0053 -1.4467
12603TIP3   OH259299   4.574   3.607  11.801  0.1094 -0.2325  0.0866
12603TIP3    H159300   4.552   3.620  11.709  0.8424 -3.2411 -0.6253
12603TIP3    H259301   4.548   3.688  11.844  1.3879  2.0210 -3.0311
12604TIP3   OH259302   1.959   4.998  11.360 -0.1649 -0.2319 -0.2546
12604TIP3    H159303   1.948   4.921  11.415 -1.7674 -0.9231 -1.4570
12604TIP3    H259304   1.925   4.972  11.274  1.3506  1.1043 -1.3452
12605TIP3   OH259305   4.259   2.116   5.345 -0.1868 -0.2832 -0.3788
12605TIP3    H159306   4.179   2.167   5.334  0.8161  1.4127 -0.0413
12605TIP3    H259307   4.326   2.166   5.298  1.0507 -0.7347  0.8589
12606TIP3   OH259308   2.875   0.154   2.667  0.3378 -0.5496  0.4996
12606TIP3    H159309   2.780   0.146   2.656 -0.1842  3.6510  0.2474
12606TIP3    H259310   2.912   0.122   2.585 -1.0624 -0.1597 -0.3087
12607TIP3   OH259311   2.753   5.706   2.738 -0.3048 -0.5380 -0.1463
12607TIP3    H159312   2.844   5.705   2.770 -1.0157  0.2255  2.0397
12607TIP3    H259313   2.708   5.766   2.796 -2.9734 -3.3581  0.9475
12608TIP3   OH259314   2.765   3.418   5.836  0.1301 -0.1431  0.3930
12608TIP3    H159315   2.742   3.497   5.788 -1.2900 -0.0589  1.1494
12608TIP3    H259316   2.763   3.445   5.928  0.3111 -0.8858  0.6219
12609TIP3   OH259317   3.542   4.559  16.499 -0.5420 -0.2861 -0.2274
12609TIP3    H159318   3.544   4.582  16.406  0.2405  0.1255 -0.1182
12609TIP3    H259319   3.591   4.629  16.542 -2.8799  0.8329  0.7988
12610TIP3   OH259320   3.707   3.339  17.183  0.3525  0.0868  0.1770
12610TIP3    H159321   3.715   3.324  17.089  3.9820 -0.9445  0.5086
12610TIP3    H259322   3.671   3.428  17.190  0.3918  0.3547 -2.1459
12611TIP3   OH259323   4.128   4.208  13.160 -0.4732  0.3470 -0.0584
12611TIP3    H159324   4.140   4.301  13.179  0.3910  0.3220 -0.4241
12611TIP3    H259325   4.051   4.183  13.211  0.7024  0.6857  2.0296
12612TIP3   OH259326   0.023   4.830   2.551 -0.5929  0.6294 -0.0893
12612TIP3    H159327   0.061   4.744   2.533 -0.0287  0.7767  0.3352
12612TIP3    H259328  -0.011   4.860   2.467 -1.0939 -0.1478 -0.1742
12613TIP3   OH259329   3.433   1.393  12.124  0.1741 -0.3054 -0.5070
12613TIP3    H159330   3.454   1.379  12.032  1.0317 -0.6166 -0.2746
12613TIP3    H259331   3.483   1.326  12.171  1.3083  1.0574  0.3190
12614TIP3   OH259332   2.597   3.212   2.622 -1.0188  0.3152  0.5316
12614TIP3    H159333   2.515   3.165   2.610 -0.2377 -1.1876  0.9410
12614TIP3    H259334   2.628   3.186   2.708 -0.4255  1.3910  0.6591
12615TIP3   OH259335   1.711   5.282   1.562 -0.3003 -0.4764  0.1613
12615TIP3    H159336   1.689   5.259   1.652  1.1255 -1.5774  0.2722
12615TIP3    H259337   1.804   5.262   1.554 -0.3107 -0.0530 -1.4581
12616TIP3   OH259338   6.095   1.427   3.553 -0.5547  0.7520 -0.2731
12616TIP3    H159339   6.120   1.425   3.646 -2.4643 -0.5694  0.2703
12616TIP3    H259340   6.146   1.356   3.513 -1.5594 -0.3317  0.3151
12617TIP3   OH259341   2.290   6.533  17.269 -0.3035  0.1639  0.3363
12617TIP3    H159342   2.278   6.575  17.354 -0.9920 -0.5344  0.5838
12617TIP3    H259343   2.331   6.602  17.215  0.7483  0.4099  1.3904
12618TIP3   OH259344   4.413   1.501   3.949  0.0131 -0.1555  0.1051
12618TIP3    H159345   4.425   1.409   3.972 -0.4249 -0.5296 -1.1196
12618TIP3    H259346   4.396   1.544   4.033 -0.4629 -1.3052  0.6185
12619TIP3   OH259347   4.988   1.338   4.490  0.0435  0.1199  0.6573
12619TIP3    H159348   4.942   1.269   4.538 -0.3629 -0.6127 -0.7522
12619TIP3    H259349   4.919   1.381   4.440  0.7327 -0.3604 -0.7366
12620TIP3   OH259350   2.539   1.081   6.267 -0.0823  0.1582 -0.2670
12620TIP3    H159351   2.472   1.102   6.332  1.7479  0.0827  1.7725
12620TIP3    H259352   2.603   1.152   6.274  0.6256 -0.3435 -1.3431
12621TIP3   OH259353   6.639   6.388  16.232 -0.0041  0.0017  0.1104
12621TIP3    H159354   6.627   6.305  16.185  1.6921 -1.2257  1.6894
12621TIP3    H259355   6.694   6.365  16.307 -0.6266  2.3262  1.3658
12622TIP3   OH259356   0.057   5.219  17.278  0.0994  0.2280 -0.4861
12622TIP3    H159357   0.011   5.303  17.284  0.2423  0.3316 -0.8172
12622TIP3    H259358   0.115   5.218  17.354 -1.8184 -0.7522  1.0432
12623TIP3   OH259359   0.448   0.110  16.565 -0.6612  0.3888 -0.6396
12623TIP3    H159360   0.372   0.068  16.606 -0.4611 -0.0232 -0.6943
12623TIP3    H259361   0.512   0.040  16.554  1.1034  1.2647  2.5445
12624TIP3   OH259362   1.318   2.292  11.666 -0.1433  0.0611 -0.2222
12624TIP3    H159363   1.345   2.331  11.582 -3.8442  0.3713 -1.4261
12624TIP3    H259364   1.351   2.202  11.662  1.8179  0.7545 -0.8751
12625TIP3   OH259365   6.261   2.735  14.651  0.4925 -0.0871 -0.3603
12625TIP3    H159366   6.248   2.649  14.693 -0.2411  0.1562 -0.0806
12625TIP3    H259367   6.281   2.794  14.724 -1.4743  0.4840 -0.2368
12626TIP3   OH259368   2.525   4.029  14.731  0.1062  0.2592  0.1628
12626TIP3    H159369   2.543   3.990  14.816  0.4150 -0.0837 -0.0564
12626TIP3    H259370   2.448   3.983  14.699 -1.1383  1.6335  1.0422
12627TIP3   OH259371   1.172   5.172   5.694  0.0681 -0.8132  0.1407
12627TIP3    H159372   1.101   5.117   5.730 -0.0467 -1.5777 -1.1769
12627TIP3    H259373   1.180   5.144   5.603 -0.9756  2.3650 -1.0668
12628TIP3   OH259374   2.212   2.931   0.576  0.2009  0.1573  0.0557
12628TIP3    H159375   2.304   2.917   0.596 -0.0255 -0.6575  0.5581
12628TIP3    H259376   2.180   2.985   0.648  0.0324 -0.4943  0.4812
12629TIP3   OH259377   2.558   5.437   2.455  0.0511  0.7910  1.0651
12629TIP3    H159378   2.552   5.432   2.550 -1.5111  0.5500  0.9734
12629TIP3    H259379   2.497   5.370   2.423  0.8492  0.5820 -0.1134
12630TIP3   OH259380   2.439   2.471   0.465  0.3222 -0.2748  0.1340
12630TIP3    H159381   2.460   2.385   0.501  0.9874 -0.6268 -1.0375
12630TIP3    H259382   2.426   2.455   0.371  1.0975  1.0034 -0.2125
12631TIP3   OH259383   1.717   3.963  14.006  0.0244  0.2563 -0.4688
12631TIP3    H159384   1.634   3.980  14.051 -0.9057 -1.4243 -1.4518
12631TIP3    H259385   1.768   3.913  14.069 -0.2563  0.0949 -0.3674
12632TIP3   OH259386   0.844   2.243  15.226  0.0669 -0.0328  0.0530
12632TIP3    H159387   0.809   2.161  15.191  1.5795 -0.4775 -0.4977
12632TIP3    H259388   0.767   2.290  15.258 -0.8786 -1.4725 -0.0158
12633TIP3   OH259389   4.540   1.126  12.996 -0.5637  0.0382  0.9944
12633TIP3    H159390   4.547   1.219  12.975 -1.1344 -0.3302 -0.9314
12633TIP3    H259391   4.529   1.083  12.912 -0.8628 -1.7386  1.9081
12634TIP3   OH259392   0.226   0.834   0.911 -0.2592  0.0903 -0.1462
12634TIP3    H159393   0.250   0.766   0.848  0.4597 -0.9290  1.1819
12634TIP3    H259394   0.284   0.908   0.891  1.4772 -0.9974  0.6551
12635TIP3   OH259395   5.704   0.152   3.437  0.0942 -0.0785  0.1973
12635TIP3    H159396   5.766   0.124   3.505  0.4493  0.4437  0.0996
12635TIP3    H259397   5.663   0.231   3.473 -0.2191 -0.1909  0.0886
12636TIP3   OH259398   2.282   2.476  11.852 -0.3761 -0.2605 -0.2814
12636TIP3    H159399   2.195   2.513  11.843  0.0128  0.2799 -2.2949
12636TIP3    H259400   2.342   2.548  11.831  0.5166 -0.9639 -0.2400
12637TIP3   OH259401   6.617   2.457  16.363 -0.6201  0.1374 -0.0914
12637TIP3    H159402   6.627   2.362  16.367 -0.2038  0.2114  1.1937
12637TIP3    H259403   6.614   2.485  16.455 -0.9357  1.3477 -0.4449
12638TIP3   OH259404   2.508   5.115   1.916  0.3702 -0.0921  0.2885
12638TIP3    H159405   2.488   5.022   1.918  2.8356 -0.7439 -1.2546
12638TIP3    H259406   2.586   5.125   1.970 -1.0919  1.5252  2.2725
12639TIP3   OH259407   3.205   3.866  13.790  0.7229  0.2429  0.0277
12639TIP3    H159408   3.210   3.961  13.778 -0.4294  0.0767 -2.4486
12639TIP3    H259409   3.123   3.853  13.839  1.4710  0.5448  1.4103
12640TIP3   OH259410   4.043   3.735  15.367  0.2461 -0.0021  0.3345
12640TIP3    H159411   4.045   3.768  15.278 -0.3833  1.6476  0.8969
12640TIP3    H259412   3.969   3.674  15.369  0.2459 -0.0198 -0.2481
12641TIP3   OH259413   4.957   3.594   5.928  0.0380 -0.4209 -0.7075
12641TIP3    H159414   4.910   3.573   6.009  0.0988 -0.3376 -0.6498
12641TIP3    H259415   4.890   3.627   5.869  0.0960  0.1642 -0.4600
12642TIP3   OH259416   2.849   0.120  11.765 -0.8583  0.3202  0.5397
12642TIP3    H159417   2.856   0.031  11.731  0.6895  0.6564 -0.1176
12642TIP3    H259418   2.795   0.166  11.700  0.7704  0.5624 -0.6841
12643TIP3   OH259419   0.619   0.443   5.826 -0.6956 -0.2558 -0.5923
12643TIP3    H159420   0.690   0.393   5.866  0.0096  0.2118 -1.2265
12643TIP3    H259421   0.658   0.528   5.806 -1.3222 -0.1202 -1.2972
12644TIP3   OH259422   1.868   3.761   5.335 -0.2106  0.1893  0.0286
12644TIP3    H159423   1.803   3.705   5.291 -1.6420 -0.1686  2.4012
12644TIP3    H259424   1.932   3.700   5.370 -0.0273  0.3112 -0.0970
12645TIP3   OH259425   4.283   3.636  16.373 -0.1065 -0.4816 -0.1109
12645TIP3    H159426   4.264   3.544  16.389 -0.1021 -0.4449  0.1193
12645TIP3    H259427   4.314   3.669  16.458 -1.5983  0.1065  0.2441
12646TIP3   OH259428   4.888   0.524   2.099 -0.1265  0.0164 -0.2488
12646TIP3    H159429   4.856   0.445   2.056 -0.5895  0.6829 -1.1610
12646TIP3    H259430   4.978   0.504   2.122 -0.2296 -0.7662 -0.4943
12647TIP3   OH259431   5.898   2.661  16.819 -0.3058 -0.0463  0.2763
12647TIP3    H159432   5.926   2.753  16.817  2.6445 -0.8351  0.1628
12647TIP3    H259433   5.866   2.644  16.730 -0.9795  0.8644  0.3245
12648TIP3   OH259434   4.622   0.544   0.904  0.1305  0.7802  0.2465
12648TIP3    H159435   4.715   0.565   0.901  0.3055  0.0036  0.0938
12648TIP3    H259436   4.599   0.550   0.997  0.1517  1.6980  0.2040
12649TIP3   OH259437   3.223   0.513  12.525 -0.6844  0.6585 -0.1153
12649TIP3    H159438   3.306   0.495  12.569 -0.5579 -0.8733 -0.9058
12649TIP3    H259439   3.159   0.517  12.596 -0.2519 -0.2583  0.3476
12650TIP3   OH259440   2.390   2.144   2.905  0.3596  0.3129  0.7609
12650TIP3    H159441   2.402   2.107   2.992 -1.4644 -0.7590  0.6013
12650TIP3    H259442   2.452   2.217   2.901  1.2699 -0.3119  2.5206
12651TIP3   OH259443   2.321   4.670  16.266  0.2597 -0.1231  0.4045
12651TIP3    H159444   2.353   4.661  16.355  0.7644 -1.1281  0.1303
12651TIP3    H259445   2.389   4.720  16.221  0.5002 -0.5331  0.3161
12652TIP3   OH259446   6.061   3.913   2.568  0.3564 -0.1936 -0.3439
12652TIP3    H159447   6.150   3.912   2.534  0.3599 -1.6485 -0.3624
12652TIP3    H259448   6.065   3.968   2.646  1.2254 -0.1118 -0.4393
12653TIP3   OH259449   3.589   2.896  13.258 -0.4279 -0.2841 -0.0842
12653TIP3    H159450   3.553   2.813  13.289 -1.3950 -0.2550 -1.0767
12653TIP3    H259451   3.645   2.872  13.184 -1.7528  0.0411 -1.2240
12654TIP3   OH259452   6.298   5.266   6.283  0.1860 -0.2243 -0.4226
12654TIP3    H159453   6.361   5.260   6.212  0.4466 -0.4187 -0.1761
12654TIP3    H259454   6.323   5.345   6.331  0.3221 -0.3733 -0.2484
12655TIP3   OH259455   4.742   6.023  17.352  0.1562 -0.2251 -0.1846
12655TIP3    H159456   4.830   6.043  17.320 -0.2996 -0.9493 -2.0016
12655TIP3    H259457   4.726   5.933  17.325 -1.2369 -0.0249 -0.1147
12656TIP3   OH259458   5.884   0.557   1.085 -0.4435 -0.1030 -0.2260
12656TIP3    H159459   5.918   0.577   0.998 -0.9962  0.2689 -0.3647
12656TIP3    H259460   5.802   0.511   1.068 -0.4936 -0.1354  0.0998
12657TIP3   OH259461   2.336   3.258  14.106 -0.3758 -0.0640 -0.5097
12657TIP3    H159462   2.394   3.209  14.164 -1.3059 -0.8486 -0.2119
12657TIP3    H259463   2.277   3.192  14.069 -0.8705  0.6593 -1.0506
12658TIP3   OH259464   6.730   5.704   1.221  0.1315 -0.0827 -0.2556
12658TIP3    H159465   6.819   5.725   1.192 -0.5051  0.0445 -2.3320
12658TIP3    H259466   6.736   5.615   1.256  1.3595  0.5354  1.2178
12659TIP3   OH259467   2.615   4.444  15.789  0.1666 -0.4537 -0.1025
12659TIP3    H159468   2.526   4.410  15.780 -0.5634  1.1982  0.4812
12659TIP3    H259469   2.672   4.372  15.760 -1.2435 -2.2442  1.3223
12660TIP3   OH259470   5.907   2.492   2.954 -0.0559  0.0240  0.3370
12660TIP3    H159471   5.961   2.549   3.009  0.3230  0.6959 -0.7062
12660TIP3    H259472   5.969   2.437   2.907 -0.3400 -0.0997  0.0996
12661TIP3   OH259473   5.941   1.661   0.846  0.5933 -0.2002  0.6051
12661TIP3    H159474   5.924   1.624   0.759 -0.5046  0.3581  0.5652
12661TIP3    H259475   5.861   1.643   0.896 -0.0844  2.2748  0.5088
12662TIP3   OH259476   0.082   6.628   0.688 -0.0361  0.3624  0.1120
12662TIP3    H159477   0.055   6.537   0.671  0.9351 -0.2664  1.7074
12662TIP3    H259478   0.060   6.675   0.607 -2.5670 -0.8108  0.0295
12663TIP3   OH259479   0.952   1.685  14.201 -0.2903 -0.6037 -0.2916
12663TIP3    H159480   0.930   1.636  14.122  1.8656  0.1692 -1.4542
12663TIP3    H259481   1.019   1.632  14.244 -0.7088 -0.5128  0.4883
12664TIP3   OH259482   1.655   3.695  15.075 -0.1497 -0.1042  0.1586
12664TIP3    H159483   1.659   3.634  15.002 -0.4972 -0.7120  0.6395
12664TIP3    H259484   1.659   3.640  15.153  1.5097  0.5993  0.6296
12665TIP3   OH259485   0.881   6.703   1.212 -0.2240 -0.5652 -0.3880
12665TIP3    H159486   0.825   6.760   1.160  0.3891  1.4012  1.0054
12665TIP3    H259487   0.823   6.667   1.279  0.1458  1.8984  1.3969
12666TIP3   OH259488   1.343   4.743   3.878 -0.2285  0.2641 -0.8587
12666TIP3    H159489   1.366   4.824   3.833  0.4339  1.7340  1.9240
12666TIP3    H259490   1.417   4.727   3.937 -1.6552 -0.7678  0.7246
12667TIP3   OH259491   3.100   4.448   2.803  0.2140  0.2640 -0.1178
12667TIP3    H159492   3.187   4.430   2.768  0.0900 -1.5728  0.4062
12667TIP3    H259493   3.059   4.362   2.811 -1.2432  0.9931  0.6889
12668TIP3   OH259494   5.185   4.588  12.612 -1.3626  0.2414  0.1000
12668TIP3    H159495   5.132   4.561  12.537  1.5317 -0.1796 -1.9737
12668TIP3    H259496   5.210   4.678  12.593  2.0866 -0.8299 -1.3657
12669TIP3   OH259497   1.989   0.379   4.911 -0.3522 -0.4107 -0.4651
12669TIP3    H159498   2.031   0.293   4.904  1.3213  0.2655  0.5242
12669TIP3    H259499   2.058   0.435   4.948 -1.5819  1.2204 -0.5840
12670TIP3   OH259500   2.246   3.490  17.193  1.2086 -0.5164  0.5005
12670TIP3    H159501   2.166   3.477  17.243  1.2446 -0.4419  0.5774
12670TIP3    H259502   2.247   3.418  17.131  0.0487  0.5983 -0.8718
12671TIP3   OH259503   2.666   3.924   5.475  0.2559  0.0121  0.4000
12671TIP3    H159504   2.694   3.833   5.464  1.1007  0.1326  1.3493
12671TIP3    H259505   2.641   3.952   5.388  0.5617 -0.9581 -0.0144
12672TIP3   OH259506   3.561   0.135   1.702  0.2982  0.0975 -0.0591
12672TIP3    H159507   3.600   0.062   1.750  0.7388 -0.5204 -1.3402
12672TIP3    H259508   3.611   0.212   1.730 -0.3609 -0.0016  1.5260
12673TIP3   OH259509   1.258   2.549  11.733  0.7404  0.2370 -0.6823
12673TIP3    H159510   1.262   2.554  11.828  0.0125 -2.2586 -0.4405
12673TIP3    H259511   1.320   2.481  11.709 -0.6450 -0.7305 -1.7422
12674TIP3   OH259512   6.233   0.980  14.790  0.2392 -0.0013 -0.2957
12674TIP3    H159513   6.210   0.963  14.881  0.9383  0.0478 -0.1023
12674TIP3    H259514   6.283   0.903  14.763  1.1481  0.5504 -0.2291
12675TIP3   OH259515   4.619   2.773   0.942 -0.1740  0.0718 -0.2408
12675TIP3    H159516   4.570   2.759   0.861 -0.3850  0.9222 -0.2681
12675TIP3    H259517   4.552   2.785   1.009 -0.0163  0.9557 -0.2268
12676TIP3   OH259518   1.523   3.327  13.301  0.3923 -0.2129 -0.1718
12676TIP3    H159519   1.589   3.258  13.297  0.4072 -0.2740  0.9290
12676TIP3    H259520   1.516   3.349  13.394  0.1523  1.0439 -0.4643
12677TIP3   OH259521   1.997   4.078   3.654  0.2856  0.0481  0.2815
12677TIP3    H159522   2.041   4.083   3.569 -1.4976  1.9132 -0.6212
12677TIP3    H259523   2.061   4.111   3.716  2.2117 -2.8553  0.0199
12678TIP3   OH259524   5.864   4.172   6.066  0.3807  0.2193 -0.0882
12678TIP3    H159525   5.817   4.191   5.985 -1.5674  1.2469  1.2190
12678TIP3    H259526   5.956   4.169   6.039 -0.1744  0.7818 -2.2820
12679TIP3   OH259527   3.120   5.897  16.509  0.9225  0.5924  0.1389
12679TIP3    H159528   3.194   5.955  16.493  1.4020 -0.6212 -2.6111
12679TIP3    H259529   3.054   5.953  16.550  2.6264  2.1730  0.8423
12680TIP3   OH259530   6.416   4.621  11.215 -0.0465 -0.2084  0.2338
12680TIP3    H159531   6.511   4.631  11.213 -0.1793  1.1959 -1.3419
12680TIP3    H259532   6.401   4.526  11.216  1.3886 -0.4898 -1.2548
12681TIP3   OH259533   1.608   6.755   0.261  0.6150 -0.0497 -0.1570
12681TIP3    H159534   1.571   6.714   0.183  1.3705  0.3073 -0.7210
12681TIP3    H259535   1.533   6.776   0.316 -0.1849  1.8926 -1.8613
12682TIP3   OH259536   0.491   4.640  15.242 -0.1812  0.0958 -0.4493
12682TIP3    H159537   0.423   4.708  15.246 -0.2421  0.0149 -0.0921
12682TIP3    H259538   0.460   4.579  15.175 -1.4008 -0.9398  0.9956
12683TIP3   OH259539   2.772   1.657   5.090 -0.0902 -0.2779  0.7487
12683TIP3    H159540   2.706   1.724   5.072  0.0010 -0.3978 -0.0540
12683TIP3    H259541   2.723   1.585   5.131 -0.3607 -0.1427  0.6643
12684TIP3   OH259542   6.299   4.884  16.742  0.1737 -0.0320 -0.5158
12684TIP3    H159543   6.210   4.918  16.732  0.3967  0.1243 -2.1787
12684TIP3    H259544   6.300   4.847  16.830 -1.4983  0.0779 -0.4126
12685TIP3   OH259545   4.519   3.671   0.377  0.3418  0.1690 -0.2065
12685TIP3    H159546   4.613   3.656   0.362  0.9604  2.6738  0.6964
12685TIP3    H259547   4.507   3.764   0.360 -2.3797 -0.3816 -1.9320
12686TIP3   OH259548   6.200   1.760   5.011  0.1662  0.3210 -0.1384
12686TIP3    H159549   6.288   1.785   5.040 -0.1241  0.8638  0.2904
12686TIP3    H259550   6.209   1.669   4.985  0.4230 -0.2724  1.8396
12687TIP3   OH259551   0.156   4.744   4.118  0.2309 -0.0527  0.7096
12687TIP3    H159552   0.232   4.779   4.071 -0.6021 -1.4209 -1.8809
12687TIP3    H259553   0.193   4.688   4.186  1.5566  0.2396  0.2488
12688TIP3   OH259554   4.496   2.943  15.888  0.4669  0.1840  0.7269
12688TIP3    H159555   4.429   3.009  15.909 -2.4169 -0.5589 -4.5577
12688TIP3    H259556   4.562   2.991  15.839  0.1177 -0.2442 -0.1776
12689TIP3   OH259557   1.399   6.346   0.558 -0.0757  0.4707 -0.1330
12689TIP3    H159558   1.337   6.411   0.591 -0.3049  1.0663 -1.6698
12689TIP3    H259559   1.344   6.275   0.526  0.0749  0.5728 -0.6172
12690TIP3   OH259560   3.137   2.969  16.445  0.0344  0.3171  0.2801
12690TIP3    H159561   3.218   2.990  16.399  0.3555 -1.8331 -0.2231
12690TIP3    H259562   3.160   2.969  16.538  0.7259 -0.6778  0.1176
12691TIP3   OH259563   5.515   4.831  15.608  0.2012  0.0358  0.1805
12691TIP3    H159564   5.591   4.799  15.559 -2.0891 -2.4877 -2.0663
12691TIP3    H259565   5.486   4.908  15.560  0.3240 -0.0124  0.0281
12692TIP3   OH259566   3.336   6.314  15.714 -0.1960 -0.3246  0.2904
12692TIP3    H159567   3.424   6.291  15.684  0.2021 -0.5443  1.5900
12692TIP3    H259568   3.278   6.254  15.665  0.0874  1.4927 -2.4723
12693TIP3   OH259569   4.467   1.038   0.900  0.2079 -0.0558  0.4741
12693TIP3    H159570   4.437   1.025   0.990  1.4262  1.5314  1.1644
12693TIP3    H259571   4.493   1.130   0.897  0.4054 -0.1368 -1.4513
12694TIP3   OH259572   2.471   6.690  11.562  0.4737 -0.2905 -0.4064
12694TIP3    H159573   2.445   6.733  11.643  0.5981 -0.2401 -0.3927
12694TIP3    H259574   2.563   6.713  11.551  1.2056 -2.3331  0.7809
12695TIP3   OH259575   3.633   6.394  15.143 -0.2548 -0.4629  0.3191
12695TIP3    H159576   3.675   6.480  15.136 -1.0903 -0.1552 -1.5063
12695TIP3    H259577   3.654   6.351  15.060  0.8438 -2.3987  1.5187
12696TIP3   OH259578   4.274   6.054  16.252 -0.4663 -0.3128  0.0828
12696TIP3    H159579   4.352   6.108  16.266 -0.9593  0.4641 -0.1045
12696TIP3    H259580   4.304   5.965  16.265  0.5589 -0.0559 -0.4315
12697TIP3   OH259581   2.914   1.250  11.920  0.5148  0.6811  0.0116
12697TIP3    H159582   2.993   1.269  11.970  0.4277  0.9714  0.0401
12697TIP3    H259583   2.897   1.158  11.936  1.9723  0.0659 -1.5431
12698TIP3   OH259584   0.094   5.462   3.120 -0.0188 -0.0282 -0.8503
12698TIP3    H159585   0.056   5.480   3.034 -2.5761 -0.0131  0.2203
12698TIP3    H259586   0.180   5.423   3.100 -0.8920 -0.8393 -3.4091
12699TIP3   OH259587   3.074   5.400  15.221  0.3879 -0.3010  0.4338
12699TIP3    H159588   3.014   5.368  15.153 -1.0636 -0.0890  1.5694
12699TIP3    H259589   3.113   5.479  15.184 -1.9922  1.0248  0.6136
12700TIP3   OH259590   6.729   5.708   0.634  0.1259 -0.5179  0.4333
12700TIP3    H159591   6.783   5.745   0.704  1.4411 -2.3058  0.4313
12700TIP3    H259592   6.673   5.644   0.677  0.4473 -1.1244 -0.0341
12701TIP3   OH259593   1.304   4.642   0.026  0.4611 -0.2191 -0.0672
12701TIP3    H159594   1.238   4.606  -0.033  0.0655  0.2288  0.0986
12701TIP3    H259595   1.364   4.691  -0.030 -0.9405  1.7583  0.0765
12702TIP3   OH259596   4.165   5.250   1.756 -0.1537  0.4083  0.0913
12702TIP3    H159597   4.102   5.318   1.780 -0.7085 -0.4568  1.1607
12702TIP3    H259598   4.237   5.297   1.715 -0.0789  1.7721  1.6865
12703TIP3   OH259599   2.358   4.569   4.392  0.0104  0.3287  0.2032
12703TIP3    H159600   2.443   4.577   4.434  1.0825  0.9677 -1.9391
12703TIP3    H259601   2.336   4.658   4.365 -0.1053 -0.1672 -1.4661
12704TIP3   OH259602   1.408   4.010  12.327 -0.3425  0.1872 -0.1500
12704TIP3    H159603   1.320   4.039  12.301 -1.2035 -0.1080  2.1830
12704TIP3    H259604   1.394   3.957  12.405  2.0750  2.0253  1.6876
12705TIP3   OH259605   1.119   4.163  11.926  0.8488 -0.1927 -0.3587
12705TIP3    H159606   1.173   4.100  11.878  1.3914 -0.3684  0.4629
12705TIP3    H259607   1.123   4.243  11.874 -0.3444 -0.9832 -1.7413
12706TIP3   OH259608   5.939   1.182  17.314 -0.0136 -0.3749  0.3890
12706TIP3    H159609   5.954   1.162  17.406  0.0825  1.3048  0.7649
12706TIP3    H259610   6.025   1.208  17.280 -0.1328 -0.5585 -0.0732
12707TIP3   OH259611   1.802   4.860  12.789 -0.0789 -0.0519 -0.2602
12707TIP3    H159612   1.708   4.876  12.794 -0.1940 -0.2678 -1.4644
12707TIP3    H259613   1.816   4.779  12.837 -0.5234 -0.0543 -0.1373
12708TIP3   OH259614   2.081   6.078   0.958  0.6436  0.1961  0.4503
12708TIP3    H159615   2.047   6.031   0.882 -0.9407  1.2452  0.4708
12708TIP3    H259616   2.173   6.092   0.938  0.6131 -0.8715 -0.5798
12709TIP3   OH259617   0.480   6.172   0.343 -0.6348 -0.3830 -0.3039
12709TIP3    H159618   0.454   6.133   0.260 -1.8812 -2.8795  1.1371
12709TIP3    H259619   0.398   6.187   0.389 -0.0265  2.0000  0.1078
12710TIP3   OH259620   4.563   0.320   0.011  0.2933 -0.6925 -0.1575
12710TIP3    H159621   4.473   0.300   0.033 -0.0572 -0.1291 -1.0311
12710TIP3    H259622   4.563   0.414  -0.008  0.9372 -0.7945 -0.7153
12711TIP3   OH259623   2.739   0.612  11.425 -0.6717  0.0052 -0.4311
12711TIP3    H159624   2.771   0.672  11.357 -0.2838  1.4642  0.9862
12711TIP3    H259625   2.784   0.639  11.504  1.1120 -3.4818 -0.0431
12712TIP3   OH259626   1.378   6.420   4.126 -0.8229 -0.5460 -0.2422
12712TIP3    H159627   1.409   6.492   4.071  0.8184 -0.2288  1.0281
12712TIP3    H259628   1.457   6.371   4.148 -1.7324 -1.9296  0.0720
12713TIP3   OH259629   0.733   4.566   0.080  0.3872 -0.0562 -0.6996
12713TIP3    H159630   0.813   4.538   0.036  0.2209 -3.2600  0.7830
12713TIP3    H259631   0.762   4.589   0.168 -0.0261  1.1299 -0.8572
12714TIP3   OH259632   4.157   3.814   0.218 -0.1118  0.7252  0.1198
12714TIP3    H159633   4.176   3.858   0.301 -1.9549  1.0524  0.4228
12714TIP3    H259634   4.079   3.859   0.184 -0.9011 -1.0211 -0.5123
12715TIP3   OH259635   3.810   4.331   0.020 -0.4978 -0.2860  0.2057
12715TIP3    H159636   3.737   4.271   0.038 -0.6133 -0.1111  0.3148
12715TIP3    H259637   3.883   4.296   0.071  0.6561 -2.7383 -2.7649
12716TIP3   OH259638   2.414   3.611   2.889  0.4784  0.0549 -0.3635
12716TIP3    H159639   2.401   3.589   2.797 -0.7385  1.0536 -0.4503
12716TIP3    H259640   2.503   3.647   2.892  1.9578 -3.2358 -0.4643
12717TIP3   OH259641   0.665   1.858  11.520 -0.2216 -0.3803  0.2356
12717TIP3    H159642   0.704   1.847  11.433 -1.8857  0.2060 -0.6377
12717TIP3    H259643   0.609   1.781  11.530 -0.8966  0.0986  0.2687
12718TIP3   OH259644   1.831   4.918  17.194  0.0339 -0.0806  0.4970
12718TIP3    H159645   1.876   4.879  17.269  0.9526  0.3146  0.1754
12718TIP3    H259646   1.880   4.998  17.176  0.6893 -0.8286 -1.3610
12719TIP3   OH259647   2.510   3.189   5.670 -0.2878 -0.0096  0.0405
12719TIP3    H159648   2.497   3.127   5.741  1.7470 -0.4129  0.0955
12719TIP3    H259649   2.595   3.228   5.686 -0.5894  1.2533 -1.1768
12720TIP3   OH259650   5.132   0.927  15.375 -0.5201  0.1026 -0.1828
12720TIP3    H159651   5.143   0.856  15.312 -0.1662  1.0271 -1.1912
12720TIP3    H259652   5.183   1.000  15.339  0.9986  0.1929  1.9528
12721TIP3   OH259653   2.280   2.884   5.950  0.4809 -0.3487  0.1627
12721TIP3    H159654   2.208   2.857   6.006 -0.1717  1.1810  0.0922
12721TIP3    H259655   2.272   2.829   5.872  0.3219 -1.2455  0.8035
12722TIP3   OH259656   1.348   6.157   3.151 -0.8105 -0.5309 -0.4126
12722TIP3    H159657   1.260   6.187   3.132 -0.4802  0.2922 -0.7049
12722TIP3    H259658   1.347   6.135   3.244 -0.1566  4.0363  0.9444
12723TIP3   OH259659   6.247   2.422  17.454 -0.1054  0.4343 -0.3746
12723TIP3    H159660   6.190   2.357  17.496  0.5943  0.2699  0.3355
12723TIP3    H259661   6.334   2.403  17.488  0.6683 -0.3187 -2.6524
12724TIP3   OH259662   1.365   3.913  17.167  0.2512 -0.3698  0.3330
12724TIP3    H159663   1.449   3.950  17.195  0.1331 -0.7567  1.2438
12724TIP3    H259664   1.362   3.827  17.209 -0.7519 -0.2121  0.6162
12725TIP3   OH259665   3.834   6.215   5.144 -0.0161  0.2042 -0.0048
12725TIP3    H159666   3.819   6.306   5.170 -1.2337  0.1623 -0.4876
12725TIP3    H259667   3.929   6.203   5.151  0.0855  1.3027  0.7180
12726TIP3   OH259668   4.971   1.268  10.702 -0.3329  0.6303  0.1983
12726TIP3    H159669   4.997   1.343  10.755  1.5587  0.0553  0.1750
12726TIP3    H259670   4.992   1.294  10.612  0.7154 -0.0439  0.2309
12727TIP3   OH259671   5.828   0.283  17.452  0.0657  0.4675 -0.3781
12727TIP3    H159672   5.891   0.333  17.504  2.0111 -1.0062 -1.1921
12727TIP3    H259673   5.802   0.211  17.509 -1.3125  1.3363  0.1303
12728TIP3   OH259674   6.281   3.991  15.179 -0.1513 -0.1361 -0.5092
12728TIP3    H159675   6.307   3.945  15.258 -0.5200  1.2821  0.4860
12728TIP3    H259676   6.284   4.084  15.203 -0.8416  0.3084 -1.9852
12729TIP3   OH259677   1.511   4.687  17.196 -0.0260 -0.1800  0.0485
12729TIP3    H159678   1.420   4.714  17.205 -0.0654 -0.6253  1.0513
12729TIP3    H259679   1.552   4.758  17.147 -0.9367 -0.0420 -0.5297
12730TIP3   OH259680   6.233   2.493  16.747  0.1649  0.2606 -0.0331
12730TIP3    H159681   6.327   2.486  16.764  0.1343  1.4388  0.7726
12730TIP3    H259682   6.198   2.407  16.769  1.2862 -0.8745 -2.2795
12731TIP3   OH259683   3.918   6.072  13.420  0.6989  0.3308 -0.2760
12731TIP3    H159684   3.958   5.985  13.422 -2.0409 -1.0472 -0.4693
12731TIP3    H259685   3.825   6.055  13.406  0.0606  3.3252 -0.2971
12732TIP3   OH259686   1.643   2.295   2.866  0.1934 -0.5676 -0.1246
12732TIP3    H159687   1.635   2.304   2.771 -0.0830 -0.4591 -0.0905
12732TIP3    H259688   1.556   2.269   2.895  0.3783 -0.9895  0.0538
12733TIP3   OH259689   3.462   0.388   1.966 -0.1697 -0.8440  0.3527
12733TIP3    H159690   3.480   0.396   1.872 -0.2476 -0.0119  0.3948
12733TIP3    H259691   3.545   0.362   2.004 -0.1585 -1.2749  0.0436
12734TIP3   OH259692   1.957   0.785  14.534 -0.6454 -0.2928  0.0258
12734TIP3    H159693   2.021   0.854  14.520 -0.2850 -0.7926 -0.8918
12734TIP3    H259694   2.004   0.717  14.581 -0.7693 -0.2596  0.1978
12735TIP3   OH259695   6.627   5.025  15.717 -0.4198 -0.3174  0.3937
12735TIP3    H159696   6.535   5.014  15.692 -0.5203 -1.0167  1.0176
12735TIP3    H259697   6.664   4.936  15.712  0.5854  0.1478 -1.1662
12736TIP3   OH259698   4.702   1.149   2.619 -0.0482  0.1233  1.3264
12736TIP3    H159699   4.777   1.099   2.587  0.0133  1.4388 -0.8012
12736TIP3    H259700   4.694   1.125   2.711  3.3637  0.3591  1.8179
12737TIP3   OH259701   2.938   0.705   0.335  0.2498 -0.0632  0.5298
12737TIP3    H159702   3.005   0.669   0.393  0.1009  1.1577  1.4952
12737TIP3    H259703   2.880   0.631   0.316  2.8283 -1.6501 -1.8676
12738TIP3   OH259704   4.962   1.964  14.756  0.1711 -0.9122  0.0618
12738TIP3    H159705   4.950   1.870  14.771 -1.0482 -0.7903 -0.0600
12738TIP3    H259706   4.915   2.006  14.828 -0.1065 -0.3890 -0.4210
12739TIP3   OH259707   3.289   0.068  13.485  0.1985  0.1630  0.1216
12739TIP3    H159708   3.263   0.097  13.572  1.1341 -0.8492  0.7491
12739TIP3    H259709   3.214   0.019  13.453  0.2685 -0.4095  0.8144
12740TIP3   OH259710   0.759   1.263   6.773 -0.1755 -0.4372 -0.1240
12740TIP3    H159711   0.812   1.243   6.696 -0.6568  0.6822 -0.7683
12740TIP3    H259712   0.674   1.223   6.755 -0.6968  0.8922 -0.7878
12741TIP3   OH259713   0.458   3.545  17.154  0.1974  0.1155 -0.5879
12741TIP3    H159714   0.403   3.531  17.076  0.7236  1.6722 -1.2804
12741TIP3    H259715   0.400   3.525  17.228 -1.8549  3.0897 -1.2250
12742TIP3   OH259716   6.254   2.835   2.449  0.2740  0.1286 -0.3347
12742TIP3    H159717   6.231   2.774   2.520 -1.0059 -1.0573 -1.7095
12742TIP3    H259718   6.203   2.914   2.468  1.9904  0.8992  1.4920
12743TIP3   OH259719   5.725   3.544   5.800 -0.4200 -0.0953  0.3812
12743TIP3    H159720   5.812   3.506   5.812 -0.5665 -1.0158 -1.1346
12743TIP3    H259721   5.670   3.499   5.864  0.0643 -0.0323  0.8488
12744TIP3   OH259722   1.617   0.798   4.936  0.1666 -0.4181 -0.0181
12744TIP3    H159723   1.688   0.777   4.997  1.2950 -0.7471 -1.3978
12744TIP3    H259724   1.630   0.738   4.862 -0.4605  0.7412 -1.1068
12745TIP3   OH259725   4.688   4.937  15.632  0.0428 -0.2647 -0.6325
12745TIP3    H159726   4.768   4.987  15.617  0.2855 -0.0794  1.1274
12745TIP3    H259727   4.626   5.000  15.666 -0.9856 -0.3467 -2.2684
12746TIP3   OH259728   3.047   3.938   5.138 -0.2924 -0.4578 -0.0124
12746TIP3    H159729   2.970   3.885   5.119  0.4334 -1.4929 -0.1462
12746TIP3    H259730   3.117   3.874   5.151  0.9231  0.4863 -1.5628
12747TIP3   OH259731   4.673   2.920   0.362 -0.1503  1.0034 -0.2598
12747TIP3    H159732   4.737   2.863   0.406 -0.1936  2.1246  1.3273
12747TIP3    H259733   4.717   2.945   0.280 -0.5726 -2.1411 -1.6221
12748TIP3   OH259734   3.810   4.298  12.873  0.5420 -0.0526 -0.0226
12748TIP3    H159735   3.836   4.334  12.958 -2.8791  0.0135  1.1611
12748TIP3    H259736   3.813   4.203  12.885  0.8296 -0.0538 -0.1012
12749TIP3   OH259737   2.278   5.992   2.232 -0.4603  0.3708  0.0244
12749TIP3    H159738   2.217   6.028   2.296 -0.1190  0.3192  0.3742
12749TIP3    H259739   2.267   5.897   2.240 -0.5759  0.3678 -0.1493
12750TIP3   OH259740   0.722   2.410   5.634 -0.9529  0.2811 -0.6182
12750TIP3    H159741   0.785   2.412   5.706  0.0497  1.0831 -1.4705
12750TIP3    H259742   0.651   2.354   5.665 -1.6007  2.2551  1.8570
12751TIP3   OH259743   5.801   4.037   3.789  0.2226  0.0103  0.3757
12751TIP3    H159744   5.870   4.101   3.769 -0.0924  0.2435  0.0188
12751TIP3    H259745   5.847   3.954   3.797  0.9191  0.5324  2.6210
12752TIP3   OH259746   0.386   3.825  17.304 -0.1112 -0.0453 -0.7086
12752TIP3    H159747   0.477   3.818  17.333  0.0627 -0.1195 -1.2416
12752TIP3    H259748   0.393   3.831  17.208 -0.7188 -1.2382 -0.8491
12753TIP3   OH259749   1.297   1.517  12.307 -0.6752  0.0658  0.0559
12753TIP3    H159750   1.329   1.495  12.220 -0.0837 -0.2935  0.3631
12753TIP3    H259751   1.353   1.469  12.367 -0.8092  0.6349  0.6556
12754TIP3   OH259752   1.091   5.218   3.535  0.6138  0.1078  0.5019
12754TIP3    H159753   1.005   5.232   3.495  0.7217 -0.6061  0.0015
12754TIP3    H259754   1.131   5.149   3.483  1.1291 -0.1990  1.2783
12755TIP3   OH259755   1.675   5.800   4.706 -0.5848  0.6658 -0.4496
12755TIP3    H159756   1.749   5.765   4.656 -1.2877 -1.2595 -0.2091
12755TIP3    H259757   1.599   5.785   4.651 -1.2465 -0.6307  0.7618
12756TIP3   OH259758   3.830   6.554  16.001  0.3601  0.3675  0.7834
12756TIP3    H159759   3.907   6.581  16.051  0.2191  1.7335  0.3067
12756TIP3    H259760   3.860   6.478  15.951  0.8385 -0.2912  2.0119
12757TIP3   OH259761   4.716   1.650  12.851  0.1182 -0.4447 -0.2246
12757TIP3    H159762   4.729   1.631  12.944 -0.4732 -1.7192 -0.3777
12757TIP3    H259763   4.622   1.656  12.840  0.2301  1.3621 -0.4681
12758TIP3   OH259764   3.467   4.876  12.421 -0.2240 -0.5243 -0.8978
12758TIP3    H159765   3.562   4.878  12.415 -0.1834 -0.4159 -0.3061
12758TIP3    H259766   3.443   4.784  12.406  0.1652 -1.0436  1.3122
12759TIP3   OH259767   0.686   3.091   5.127 -0.2370  0.0032 -0.2641
12759TIP3    H159768   0.729   3.013   5.094 -0.2736 -0.5852  1.0128
12759TIP3    H259769   0.641   3.062   5.207 -1.0286  1.1214 -0.2812
12760TIP3   OH259770   4.913   4.670   5.114  0.4839 -0.2270  0.3035
12760TIP3    H159771   4.849   4.715   5.059 -1.0578 -1.5791  0.8870
12760TIP3    H259772   4.888   4.694   5.204 -0.4676 -2.2159  0.6388
12761TIP3   OH259773   5.952   1.540   5.091  0.2441  0.7713  0.2202
12761TIP3    H159774   5.908   1.557   5.174  1.2481  0.8990  0.7352
12761TIP3    H259775   5.916   1.606   5.031 -1.6236 -0.2719  0.0977
12762TIP3   OH259776   1.888   6.123  10.892 -0.8190 -0.0038  0.0956
12762TIP3    H159777   1.808   6.109  10.841  0.0547 -0.2031 -1.2745
12762TIP3    H259778   1.956   6.138  10.827 -0.1096  2.4479  1.2731
12763TIP3   OH259779   2.076   3.649  14.156 -0.1352  0.1379 -0.5935
12763TIP3    H159780   2.170   3.660  14.140  0.1663 -1.2797  0.0413
12763TIP3    H259781   2.045   3.599  14.081 -0.4724  0.8926 -0.9714
12764TIP3   OH259782   1.409   4.185  12.705 -0.1144  0.4325  0.2025
12764TIP3    H159783   1.319   4.188  12.738  0.3153  0.9116  1.3973
12764TIP3    H259784   1.401   4.200  12.611 -1.2529  0.7342  0.3339
12765TIP3   OH259785   5.890   3.960  12.208 -0.1790 -0.0600 -0.0561
12765TIP3    H159786   5.836   3.883  12.226  0.2511 -0.5749 -0.8873
12765TIP3    H259787   5.975   3.925  12.182  0.5009  0.7402  1.0233
12766TIP3   OH259788   6.392   4.175   2.319  0.1828  0.0460 -0.3887
12766TIP3    H159789   6.387   4.216   2.233  2.1186 -1.0781 -1.0978
12766TIP3    H259790   6.389   4.081   2.301  1.8578 -0.2453  0.6249
12767TIP3   OH259791   1.650   0.795   1.954 -0.0991  0.0968  0.0531
12767TIP3    H159792   1.731   0.765   1.911 -1.2663  0.1341 -2.3480
12767TIP3    H259793   1.677   0.819   2.043  2.0403 -2.2660  0.1454
12768TIP3   OH259794   4.268   1.775   6.414 -0.4982  1.0078 -0.0440
12768TIP3    H159795   4.304   1.701   6.463 -1.4248  0.0914 -0.7184
12768TIP3    H259796   4.192   1.803   6.465 -2.2273 -0.7491 -1.4997
12769TIP3   OH259797   1.056   3.845   4.243 -0.0825 -0.3954 -0.0853
12769TIP3    H159798   1.104   3.841   4.160 -0.9003 -0.9773 -0.5386
12769TIP3    H259799   1.124   3.839   4.310  0.8752  2.4238 -0.6361
12770TIP3   OH259800   2.449   5.183  11.478 -0.6248 -0.6846  0.2107
12770TIP3    H159801   2.526   5.127  11.469  0.6892  0.5032  2.7911
12770TIP3    H259802   2.375   5.124  11.468  0.6188 -2.1380 -0.9805
12771TIP3   OH259803   2.539   1.309   0.100 -0.3830 -0.1706  0.4513
12771TIP3    H159804   2.523   1.335   0.010 -0.5116  0.5512  0.6760
12771TIP3    H259805   2.561   1.216   0.095 -0.2062 -0.0907 -0.3377
12772TIP3   OH259806   0.945   4.278  11.613  0.1453 -0.2876 -0.5476
12772TIP3    H159807   1.018   4.329  11.648  0.0894  0.1474 -1.0461
12772TIP3    H259808   0.946   4.196  11.663 -0.4319  0.6338  1.0356
12773TIP3   OH259809   5.011   2.286  11.440 -0.7230 -0.5599  0.0242
12773TIP3    H159810   5.024   2.379  11.418 -1.8069 -0.4452 -0.1812
12773TIP3    H259811   4.944   2.287  11.508 -0.4983 -1.1811  0.2567
12774TIP3   OH259812   2.265   4.425   3.218 -0.1416 -0.2070  0.1690
12774TIP3    H159813   2.339   4.471   3.257 -0.3524  1.1527 -0.9603
12774TIP3    H259814   2.242   4.477   3.141 -1.6490 -1.1477 -0.0583
12775TIP3   OH259815   1.733   5.626  12.090 -0.0961  0.3394 -0.7414
12775TIP3    H159816   1.735   5.672  12.006 -3.2490  0.9174 -0.6469
12775TIP3    H259817   1.692   5.542  12.070  0.3247 -0.0510  0.0078
12776TIP3   OH259818   4.013   6.243  16.206  0.7468  0.0004  0.0445
12776TIP3    H159819   3.968   6.205  16.282 -0.4570 -1.1091 -1.1582
12776TIP3    H259820   3.988   6.335  16.207 -0.7040 -0.3694  0.0323
12777TIP3   OH259821   1.301   5.342   2.974  0.0702 -0.0043 -0.2610
12777TIP3    H159822   1.345   5.312   2.895  2.8419 -0.1503  1.2396
12777TIP3    H259823   1.285   5.435   2.958  0.7484  0.0101 -0.9286
12778TIP3   OH259824   5.315   3.651  15.147  0.0167  0.7300  0.3844
12778TIP3    H159825   5.231   3.610  15.126 -0.0859  1.6067 -1.0533
12778TIP3    H259826   5.297   3.745  15.144  0.8606  0.9171  0.9096
12779TIP3   OH259827   2.481   6.207  13.766  0.4867  0.0732  0.6000
12779TIP3    H159828   2.424   6.132  13.782 -1.0594  1.3940  1.6475
12779TIP3    H259829   2.467   6.229  13.673 -0.7184  0.3507  0.8310
12780TIP3   OH259830   4.319   6.584   5.472  0.2215  0.4648 -0.9496
12780TIP3    H159831   4.253   6.536   5.521 -0.7176  2.2550 -0.4038
12780TIP3    H259832   4.270   6.646   5.418  1.2887 -0.5066 -3.2015
12781TIP3   OH259833   6.333   5.013  13.999  0.2582  0.7834  0.1257
12781TIP3    H159834   6.338   5.039  14.091  1.1632  1.0580  0.0147
12781TIP3    H259835   6.260   4.951  13.995  0.7801  0.0648  1.2054
12782TIP3   OH259836   3.983   3.637   4.703  0.2554 -0.1417  0.5307
12782TIP3    H159837   4.015   3.553   4.669 -1.5256 -0.5557 -0.2125
12782TIP3    H259838   4.046   3.701   4.671  0.8581 -1.0259 -0.1058
12783TIP3   OH259839   4.279   2.886  16.883  0.8881  0.3626 -0.1357
12783TIP3    H159840   4.291   2.823  16.954  1.6570  1.6720  0.9418
12783TIP3    H259841   4.367   2.919  16.864  0.4732  1.2910 -0.5003
12784TIP3   OH259842   6.074   4.912   5.458  0.4168 -0.2491  0.5003
12784TIP3    H159843   6.085   4.952   5.544  2.9045  0.0863  0.0953
12784TIP3    H259844   6.031   4.980   5.405  1.9849  0.8609  0.5998
12785TIP3   OH259845   1.909   0.000  11.279 -0.2243  0.1790  0.6176
12785TIP3    H159846   1.835  -0.060  11.278 -1.0923  1.0547 -3.2351
12785TIP3    H259847   1.873   0.082  11.314 -0.1202 -0.3248  1.9589
12786TIP3   OH259848   5.945   3.725  13.262  0.2893 -0.6824  0.1533
12786TIP3    H159849   5.885   3.791  13.296 -0.4934 -0.6940 -1.1431
12786TIP3    H259850   5.924   3.719  13.169  2.9951  0.0126 -0.5691
12787TIP3   OH259851   6.546   5.329  13.037 -0.0292 -0.8076 -0.1460
12787TIP3    H159852   6.557   5.253  12.980 -1.6352 -1.4160  0.3006
12787TIP3    H259853   6.466   5.311  13.086 -1.6331  2.0567 -1.4304
12788TIP3   OH259854   3.594   3.270  11.731  0.1998  0.4815  0.4117
12788TIP3    H159855   3.678   3.308  11.706  0.2204  0.6572  0.7472
12788TIP3    H259856   3.568   3.319  11.809 -1.3475  2.1195 -1.0243
12789TIP3   OH259857   4.846   0.301   2.734  0.0208 -0.4295 -0.3215
12789TIP3    H159858   4.940   0.321   2.735  0.1925 -1.1840  0.4273
12789TIP3    H259859   4.838   0.225   2.792 -1.2208  0.3375  0.5450
12790TIP3   OH259860   2.098   6.491   6.024  0.1135 -0.0387  0.4156
12790TIP3    H159861   2.058   6.446   6.099 -2.1132  0.6030 -0.3091
12790TIP3    H259862   2.127   6.420   5.967  1.5051 -0.5378  1.6602
12791TIP3   OH259863   4.311   2.006  13.775 -0.0003  0.5763  0.2454
12791TIP3    H159864   4.271   1.953  13.706  0.2112 -0.5753  0.9836
12791TIP3    H259865   4.308   1.951  13.853  0.4922  1.5457  0.9741
12792TIP3   OH259866   2.334   6.627  16.458  0.5595  0.2454  0.8914
12792TIP3    H159867   2.385   6.647  16.380 -2.4037  0.2180 -1.2015
12792TIP3    H259868   2.361   6.539  16.483  1.9151  0.4550  0.2547
12793TIP3   OH259869   2.710   3.367  12.520 -0.1768 -0.1912  0.1246
12793TIP3    H159870   2.704   3.373  12.615  0.1463  1.0943  0.0908
12793TIP3    H259871   2.770   3.294  12.504  2.9261  1.9494  1.0610
12794TIP3   OH259872   2.307   0.206   4.998  0.3213 -0.2243  0.3299
12794TIP3    H159873   2.329   0.296   5.023 -0.8363  0.8046 -2.0984
12794TIP3    H259874   2.367   0.186   4.926 -1.0212 -0.5057 -0.7314
12795TIP3   OH259875   0.465   4.959  11.707  0.4786 -0.4658  0.6846
12795TIP3    H159876   0.552   4.949  11.744  0.7233 -1.1639 -0.0630
12795TIP3    H259877   0.477   5.010  11.627 -0.1616  1.8280  1.9455
12796TIP3   OH259878   3.704   1.614  16.850 -0.2769  0.3468 -0.1584
12796TIP3    H159879   3.731   1.599  16.941 -0.6487  1.2559  0.1117
12796TIP3    H259880   3.779   1.586  16.798  0.0675  0.1253  0.4464
12797TIP3   OH259881   0.476   1.426  16.924  0.3766  0.1612 -0.1602
12797TIP3    H159882   0.518   1.444  16.840  0.9947  0.5471  0.2205
12797TIP3    H259883   0.387   1.398  16.902  0.7054 -0.2604 -0.9640
12798TIP3   OH259884   6.309   6.337   4.653 -0.4083  0.8850  0.2135
12798TIP3    H159885   6.378   6.288   4.608 -0.9224 -3.7028  3.6292
12798TIP3    H259886   6.229   6.315   4.606 -0.3702 -0.0030  0.5370
12799TIP3   OH259887   4.250   1.449   4.232  0.0491  0.1272  0.2029
12799TIP3    H159888   4.177   1.402   4.191 -0.9764  1.4453  0.4816
12799TIP3    H259889   4.328   1.403   4.201 -0.7496  0.3183 -2.2574
12800TIP3   OH259890   4.928   6.209  11.003 -0.4657  0.5527 -0.2963
12800TIP3    H159891   4.897   6.123  10.974  1.1094  0.0197 -0.4849
12800TIP3    H259892   5.000   6.230  10.944  0.4496  1.1023  0.9767
12801TIP3   OH259893   5.580   1.922  10.745  0.7193 -0.2110  0.1507
12801TIP3    H159894   5.666   1.926  10.787 -0.0891  1.1733  1.7902
12801TIP3    H259895   5.593   1.967  10.661  1.9604 -1.5152 -0.4042
12802TIP3   OH259896   0.859   2.502  14.121 -0.6537  0.4426 -0.0935
12802TIP3    H159897   0.928   2.569  14.112 -0.4951  0.1466 -1.2341
12802TIP3    H259898   0.784   2.550  14.154  0.3530  0.6063  2.1358
12803TIP3   OH259899   6.677   0.311  12.240  0.2646  0.4348  0.2871
12803TIP3    H159900   6.621   0.365  12.184 -0.3626  0.7002  1.1486
12803TIP3    H259901   6.718   0.248  12.180 -1.8323 -0.5228 -0.2410
12804TIP3   OH259902   6.764   4.812  14.965  0.5865  0.7554  0.3246
12804TIP3    H159903   6.822   4.773  14.900 -3.9122 -3.8759 -1.6282
12804TIP3    H259904   6.694   4.852  14.914 -1.6248 -0.4291  2.2360
12805TIP3   OH259905   6.184   2.514  14.793 -0.2912  0.0071 -0.2710
12805TIP3    H159906   6.113   2.450  14.781  0.1149 -0.2089 -1.7906
12805TIP3    H259907   6.231   2.484  14.870 -2.2980  0.6021  1.2608
12806TIP3   OH259908   2.731   3.536   6.084 -0.1271  0.0546  0.2921
12806TIP3    H159909   2.673   3.571   6.151  0.2155  0.7316  0.2412
12806TIP3    H259910   2.813   3.582   6.096 -0.2109  0.5803 -0.9181
12807TIP3   OH259911   0.868   1.204   1.955  0.8030  0.1246  0.0769
12807TIP3    H159912   0.846   1.188   1.863  1.3534 -0.3472  0.0204
12807TIP3    H259913   0.784   1.203   2.000  0.6390 -0.9159 -0.2319
12808TIP3   OH259914   4.817   4.572   3.709  0.3391 -0.0137  0.2538
12808TIP3    H159915   4.736   4.562   3.659 -0.3621  3.2395  0.5213
12808TIP3    H259916   4.798   4.531   3.794  0.0595 -1.7954 -0.6185
12809TIP3   OH259917   5.955   2.942  16.809  0.0207 -0.3103  0.2223
12809TIP3    H159918   6.006   2.926  16.888 -0.6665 -0.2602  0.6839
12809TIP3    H259919   5.891   3.008  16.835  0.1614  0.1428 -0.5395
12810TIP3   OH259920   2.560   3.641   5.402 -0.5597  0.0268  0.2307
12810TIP3    H159921   2.642   3.674   5.366 -1.2155  1.0056 -0.4063
12810TIP3    H259922   2.559   3.548   5.378 -0.2608  0.3127 -0.9376
12811TIP3   OH259923   6.450   5.957  15.065 -0.2829 -0.7103 -0.0296
12811TIP3    H159924   6.408   5.955  14.979  0.0495  0.6622 -0.2540
12811TIP3    H259925   6.542   5.972  15.046  0.1032 -2.2293  0.5209
12812TIP3   OH259926   5.146   0.673  11.877 -0.4687  0.2011 -0.4413
12812TIP3    H159927   5.085   0.723  11.932  1.0082  1.0791  0.4811
12812TIP3    H259928   5.215   0.645  11.938  0.0172 -0.8182 -1.4362
12813TIP3   OH259929   5.015   5.790   0.254 -0.4335  0.2287  0.6127
12813TIP3    H159930   4.951   5.861   0.259 -0.0897  0.4952  1.5486
12813TIP3    H259931   5.055   5.798   0.168 -0.3147  1.2591  0.7515
12814TIP3   OH259932   1.273   2.189   0.835  0.6433  0.6170  0.1309
12814TIP3    H159933   1.360   2.149   0.842  1.2066  1.9304  1.0923
12814TIP3    H259934   1.220   2.123   0.791  1.9868 -0.4382  0.0178
12815TIP3   OH259935   3.249   4.995   5.808 -0.0894 -0.1851 -0.3121
12815TIP3    H159936   3.280   4.946   5.732  1.2726  0.1615  0.0051
12815TIP3    H259937   3.181   4.939   5.846 -0.1791 -0.7509 -1.2751
12816TIP3   OH259938   1.378   1.271  12.177 -0.1690  0.8283  0.1456
12816TIP3    H159939   1.347   1.187  12.144  0.0911  0.6942  0.2388
12816TIP3    H259940   1.440   1.302  12.111  1.8735 -0.3714  1.4002
12817TIP3   OH259941   3.637   1.010   1.067  0.1235 -0.1440  0.0398
12817TIP3    H159942   3.651   1.094   1.110  0.6482  0.7331 -1.7404
12817TIP3    H259943   3.693   1.013   0.989  1.8290 -3.0006  0.9655
12818TIP3   OH259944   5.253   2.886  13.424  0.2210  0.0860  0.5599
12818TIP3    H159945   5.211   2.802  13.441  1.4883 -0.3119  1.8664
12818TIP3    H259946   5.257   2.892  13.329  0.4087 -1.4903  0.4465
12819TIP3   OH259947   6.123   3.214   2.471 -0.8672  0.4815  0.3513
12819TIP3    H159948   6.169   3.242   2.392  2.1295 -2.5555  0.8098
12819TIP3    H259949   6.172   3.255   2.543 -2.0330  1.1986  0.7712
12820TIP3   OH259950   1.828   4.353  16.803 -0.0357 -0.8892  0.0743
12820TIP3    H159951   1.859   4.316  16.720 -1.3308  2.8863 -2.3394
12820TIP3    H259952   1.894   4.418  16.827 -0.3580 -0.9876  1.3134
12821TIP3   OH259953   4.459   3.102  15.177 -0.1092 -0.1836 -0.2639
12821TIP3    H159954   4.399   3.063  15.240 -1.5028  0.2989 -1.2485
12821TIP3    H259955   4.424   3.079  15.092  0.2965  1.2912 -0.8712
12822TIP3   OH259956   2.196   4.499  13.856 -0.7140 -0.0625 -0.3951
12822TIP3    H159957   2.271   4.488  13.915 -2.1980  2.8777  2.3777
12822TIP3    H259958   2.123   4.455  13.900 -1.7455  1.7261 -0.1946
12823TIP3   OH259959   2.180   3.804   2.803  0.4540 -0.0970  0.4187
12823TIP3    H159960   2.219   3.867   2.865  1.5769 -1.5808  1.2845
12823TIP3    H259961   2.178   3.721   2.851  1.2442 -1.2782 -1.4719
12824TIP3   OH259962   0.117   1.112  12.269 -0.2858 -0.5289 -0.1461
12824TIP3    H159963   0.035   1.090  12.224 -0.0347 -1.5290 -0.1532
12824TIP3    H259964   0.110   1.205  12.289 -2.3155 -0.9798  1.6423
12825TIP3   OH259965   0.645   4.852  16.423 -0.1684  0.8802  0.1907
12825TIP3    H159966   0.705   4.895  16.484  2.4915  0.5588 -2.0358
12825TIP3    H259967   0.697   4.783  16.383 -3.1566 -1.9528  0.7536
12826TIP3   OH259968   4.392   6.224  15.703  0.3208 -0.5338 -0.4119
12826TIP3    H159969   4.395   6.218  15.798  0.2126  0.3547 -0.3497
12826TIP3    H259970   4.332   6.296  15.685  0.6902 -0.3994 -1.1455
12827TIP3   OH259971   4.524   6.598   1.085 -0.2938  0.0248  0.0047
12827TIP3    H159972   4.510   6.584   1.179 -0.9637  1.3179  0.1208
12827TIP3    H259973   4.528   6.510   1.049  0.6351 -0.5148  1.3286
12828TIP3   OH259974   5.224   5.716   3.426  0.0120 -0.3795  0.0273
12828TIP3    H159975   5.295   5.654   3.410 -0.2403 -0.3622 -1.2754
12828TIP3    H259976   5.159   5.667   3.476  0.1209 -0.9614 -0.3957
12829TIP3   OH259977   1.533   6.135   1.820 -0.2390 -1.0044  0.1970
12829TIP3    H159978   1.576   6.212   1.783  0.3549 -1.7571 -0.6981
12829TIP3    H259979   1.440   6.149   1.801 -0.0410 -0.9428 -0.7948
12830TIP3   OH259980   0.682   0.518  15.940  0.0271 -0.4804  0.5447
12830TIP3    H159981   0.733   0.558  16.010  0.3421 -1.3066  0.7982
12830TIP3    H259982   0.741   0.520  15.864  1.3630 -3.4080  1.3599
12831TIP3   OH259983   0.630   3.065  12.876 -0.1850 -0.6642 -0.2465
12831TIP3    H159984   0.688   3.139  12.858 -1.1584  0.1109 -0.2864
12831TIP3    H259985   0.661   3.030  12.960 -0.2352  0.3321  0.2062
12832TIP3   OH259986   5.384   2.711   1.295 -0.0231 -0.0527  0.2156
12832TIP3    H159987   5.307   2.749   1.252  0.2580  0.2783 -0.0053
12832TIP3    H259988   5.350   2.635   1.343 -0.5474  0.3052  0.4216
12833TIP3   OH259989   0.997   1.599   4.057  0.1961  0.2491  0.3143
12833TIP3    H159990   1.037   1.674   4.101  0.1214  0.7329 -0.4256
12833TIP3    H259991   0.992   1.625   3.965 -0.7551 -0.2595  0.2115
12834TIP3   OH259992   1.437   6.018  14.121 -0.0146  0.6964 -0.6280
12834TIP3    H159993   1.376   6.014  14.195  0.5636  1.1758 -0.1143
12834TIP3    H259994   1.518   5.978  14.154 -0.2885 -0.6887 -1.5639
12835TIP3   OH259995   3.157   0.400  17.297 -0.1785  0.3413  0.0538
12835TIP3    H159996   3.139   0.389  17.391  3.5342  2.1197  1.1875
12835TIP3    H259997   3.203   0.483  17.292 -1.6637  1.1229 -3.6985
12836TIP3   OH259998   2.948   6.118   2.932 -0.1184  0.3340 -0.4871
12836TIP3    H159999   2.867   6.115   2.983  0.6036 -2.9678  0.7459
12836TIP3    H260000   3.007   6.172   2.986 -0.4190 -0.2548  0.4596
12837TIP3   OH260001   0.509   5.248  13.394  0.6046  0.5974 -0.1856
12837TIP3    H160002   0.573   5.286  13.455  0.3172  0.6592  0.0846
12837TIP3    H260003   0.457   5.190  13.449  0.1865  0.8374 -0.3250
12838TIP3   OH260004   5.649   4.027   3.133 -0.2628  0.6163  0.3295
12838TIP3    H160005   5.571   3.988   3.173  0.9045  0.6537  2.8512
12838TIP3    H260006   5.672   4.099   3.192  1.8333  0.4142 -0.1611
12839TIP3   OH260007   1.944   2.544   3.321 -0.3027  0.3929 -0.0059
12839TIP3    H160008   1.983   2.473   3.270  0.0071  1.4175 -1.2525
12839TIP3    H260009   1.852   2.517   3.332  0.1305 -0.8718  0.8416
12840TIP3   OH260010   5.949   5.100   5.286 -0.3694  0.5197  0.1906
12840TIP3    H160011   5.912   5.025   5.239  0.7863  0.2080 -0.2669
12840TIP3    H260012   5.924   5.176   5.233 -2.0294  0.5438  0.9576
12841TIP3   OH260013   0.305   0.962  13.429  0.1182 -0.2872  0.5128
12841TIP3    H160014   0.328   1.054  13.414 -1.1481  0.5504  3.1247
12841TIP3    H260015   0.263   0.935  13.347  0.6594  1.3898 -0.3833
12842TIP3   OH260016   0.019   3.029   6.321 -0.1095  0.1602  0.4097
12842TIP3    H160017  -0.036   2.995   6.392 -0.1143  1.3167  0.9840
12842TIP3    H260018  -0.035   3.098   6.281 -1.1165 -2.0090 -2.3182
12843TIP3   OH260019   1.806   2.293  14.763 -0.3366  0.4796 -0.6902
12843TIP3    H160020   1.724   2.320  14.804 -1.3442  0.1001 -2.3513
12843TIP3    H260021   1.870   2.293  14.834 -1.6403  1.3441  0.5318
12844TIP3   OH260022   2.108   4.122  15.182  0.5340 -0.3928 -0.3796
12844TIP3    H160023   2.024   4.151  15.218  1.3583  0.0438  1.3221
12844TIP3    H260024   2.085   4.075  15.102 -1.1535  1.6971 -1.2358
12845TIP3   OH260025   5.922   1.124  14.995 -0.0371 -0.6477 -0.3490
12845TIP3    H160026   5.980   1.182  15.043  0.2084 -0.3747 -0.9581
12845TIP3    H260027   5.834   1.148  15.024  0.0899 -0.2765 -0.2661
12846TIP3   OH260028   0.749   1.395  14.106  0.2357 -0.0519 -0.0592
12846TIP3    H160029   0.694   1.322  14.135  1.5276 -1.2026 -0.3730
12846TIP3    H260030   0.837   1.372  14.135  0.8409  0.8876 -1.0585
12847TIP3   OH260031   4.559   5.142   6.696  0.2124  0.3937 -0.3343
12847TIP3    H160032   4.491   5.167   6.633  1.4749 -0.1060 -1.9632
12847TIP3    H260033   4.633   5.114   6.642  1.0157 -1.0122  1.3798
12848TIP3   OH260034   0.258   5.528   2.123  0.2315  0.4644 -0.0971
12848TIP3    H160035   0.313   5.452   2.145  0.0302  0.8010  1.7242
12848TIP3    H260036   0.319   5.594   2.094  0.4670 -0.2025 -1.1637
12849TIP3   OH260037   1.199   5.210  16.565 -0.5455  0.2589  0.0215
12849TIP3    H160038   1.131   5.150  16.537  0.5724 -1.4849  0.8833
12849TIP3    H260039   1.176   5.231  16.656  0.6113 -1.2611  0.7145
12850TIP3   OH260040   2.545   4.872  16.261  1.1081  0.3134 -0.2069
12850TIP3    H160041   2.540   4.892  16.355 -0.8452 -0.0900 -0.1792
12850TIP3    H260042   2.476   4.924  16.222  1.6865  0.2143 -1.4020
12851TIP3   OH260043   4.502   2.277  17.186  0.6186 -0.2305 -0.4390
12851TIP3    H160044   4.519   2.241  17.098 -1.1480 -2.2829 -0.0289
12851TIP3    H260045   4.549   2.218  17.245 -0.0177 -0.2165  0.0979
12852TIP3   OH260046   4.424   3.656  12.565 -0.0579  0.1450  0.3721
12852TIP3    H160047   4.432   3.719  12.636  0.5447 -0.2976  0.7085
12852TIP3    H260048   4.497   3.595  12.578 -1.7098 -1.7530  1.1761
12853TIP3   OH260049   0.078   2.204   4.900  0.0848  0.0097 -0.7316
12853TIP3    H160050   0.079   2.108   4.897 -0.1671  0.0209 -1.2955
12853TIP3    H260051   0.170   2.229   4.901  0.1606 -0.2143 -1.6029
12854TIP3   OH260052   3.408   0.264  15.269 -0.5134 -0.4666 -0.1957
12854TIP3    H160053   3.491   0.241  15.226  1.1930  0.6377  2.2560
12854TIP3    H260054   3.360   0.314  15.204  1.2783 -0.1203 -1.3241
12855TIP3   OH260055   1.245   6.314   2.651 -0.3262  0.1840 -0.2448
12855TIP3    H160056   1.195   6.367   2.712 -1.4962 -0.1653 -0.8651
12855TIP3    H260057   1.330   6.357   2.645 -1.3283  2.1789 -0.9587
12856TIP3   OH260058   5.921   3.946   1.788 -0.2568  0.6800  0.2030
12856TIP3    H160059   6.005   3.908   1.814  0.0047 -0.3843 -2.0049
12856TIP3    H260060   5.936   3.977   1.699 -2.3189  0.1476 -0.3593
12857TIP3   OH260061   1.688   2.812  11.016  0.0725  0.2384 -0.0433
12857TIP3    H160062   1.609   2.774  10.977  0.7456  0.2973 -1.5205
12857TIP3    H260063   1.682   2.789  11.109 -0.2841 -2.2107 -0.5920
12858TIP3   OH260064   5.374   0.210  13.322  0.4831  0.0122 -0.0605
12858TIP3    H160065   5.284   0.241  13.333  1.1010  1.9666 -0.0664
12858TIP3    H260066   5.396   0.169  13.405 -0.0933  0.4534  0.3193
12859TIP3   OH260067   3.801   0.854   6.138  0.2052 -0.0497  0.3601
12859TIP3    H160068   3.745   0.927   6.165 -2.5096 -2.0278  0.5491
12859TIP3    H260069   3.826   0.812   6.219 -0.3337 -0.7215  0.1912
12860TIP3   OH260070   0.488   4.418  15.879 -0.1816 -0.1738 -0.1957
12860TIP3    H160071   0.392   4.424  15.879 -0.1724  2.3871 -3.0571
12860TIP3    H260072   0.515   4.475  15.951 -0.8083  0.1671 -0.2174
12861TIP3   OH260073   4.234   5.238  15.884 -0.4388  0.6096  0.0923
12861TIP3    H160074   4.225   5.219  15.790  1.2309  1.0056 -0.1770
12861TIP3    H260075   4.296   5.172  15.916 -0.3446  1.0032  0.7386
12862TIP3   OH260076   0.186   4.934   3.549 -0.0361  0.3761 -0.2012
12862TIP3    H160077   0.110   4.893   3.590 -0.1246  0.2421 -0.5020
12862TIP3    H260078   0.154   5.019   3.518  0.1155  0.6235  0.3070
12863TIP3   OH260079   3.770   2.417  11.852 -0.2547 -0.4570 -0.4942
12863TIP3    H160080   3.829   2.489  11.829  0.1474 -0.3100  0.8928
12863TIP3    H260081   3.722   2.449  11.929 -0.9619 -1.2060 -0.6097
12864TIP3   OH260082   4.841   4.481   2.566  0.5919  0.1934  0.4484
12864TIP3    H160083   4.832   4.486   2.661 -0.3409 -0.5113  0.4103
12864TIP3    H260084   4.786   4.552   2.533  1.6945  1.0807  0.4403
12865TIP3   OH260085   5.224   6.491   2.469 -0.0690  0.1332 -0.5043
12865TIP3    H160086   5.147   6.473   2.524 -0.9794  1.9668 -1.0952
12865TIP3    H260087   5.225   6.419   2.406 -3.5623  1.8504 -2.8036
12866TIP3   OH260088   0.588   6.279  12.726 -1.1877 -0.1024 -0.2126
12866TIP3    H160089   0.528   6.330  12.780 -0.4196  0.3138  0.2643
12866TIP3    H260090   0.564   6.188  12.743 -0.0131 -0.0602  1.9952
12867TIP3   OH260091   0.687   0.624   0.962 -0.7331 -0.1287 -0.4764
12867TIP3    H160092   0.734   0.679   1.025 -0.2967 -0.1879 -0.7440
12867TIP3    H260093   0.643   0.558   1.017 -0.7046  0.0758 -0.2038
12868TIP3   OH260094   2.810   3.446  16.231  0.2580  0.1735  0.4896
12868TIP3    H160095   2.811   3.481  16.142  0.2514  0.9512  0.7869
12868TIP3    H260096   2.728   3.396  16.236 -0.2815  1.0184  0.3831
12869TIP3   OH260097   1.813   5.630   3.680 -0.2666  0.6786  0.1990
12869TIP3    H160098   1.724   5.632   3.645  0.1146 -0.9711 -0.9733
12869TIP3    H260099   1.809   5.565   3.751 -0.2932  1.6377  1.0969
12870TIP3   OH260100   3.269   1.925  15.268 -0.5151 -0.0730  0.2987
12870TIP3    H160101   3.274   1.919  15.363  0.3568  1.1549  0.3421
12870TIP3    H260102   3.254   2.018  15.250  0.0605 -0.1771 -0.7919
12871TIP3   OH260103   4.305   6.435   0.011 -0.3584 -0.0818 -0.2066
12871TIP3    H160104   4.367   6.507   0.019 -0.2300 -0.1809 -0.3187
12871TIP3    H260105   4.323   6.380   0.087  1.1086 -1.2139 -1.3261
12872TIP3   OH260106   1.758   5.264  14.038 -0.2963  0.2037 -0.1496
12872TIP3    H160107   1.691   5.293  13.977  1.6452  1.2636 -1.9029
12872TIP3    H260108   1.776   5.340  14.093  0.8510  0.6295 -1.0553
12873TIP3   OH260109   5.875   2.941   1.979 -0.5556 -0.9674 -0.8370
12873TIP3    H160110   5.797   2.891   2.004 -0.7087  0.4157  1.8551
12873TIP3    H260111   5.939   2.920   2.047 -0.3479  1.7764 -0.1051
12874TIP3   OH260112   5.232   4.889   3.310 -0.1443  0.3622 -0.1994
12874TIP3    H160113   5.284   4.967   3.291 -0.3731  0.2595 -1.3395
12874TIP3    H260114   5.279   4.817   3.269  0.3549 -0.2194  1.3168
12875TIP3   OH260115   1.128   4.052  14.000 -0.2583  0.1952  0.1853
12875TIP3    H160116   1.202   4.059  14.061  1.6480  1.3814 -2.0899
12875TIP3    H260117   1.064   4.116  14.032  0.8895  1.1251  0.6993
12876TIP3   OH260118   5.285   5.757  14.412 -0.0274  0.0891  0.1045
12876TIP3    H160119   5.224   5.758  14.338  1.2749  1.9213 -1.0583
12876TIP3    H260120   5.230   5.741  14.489 -1.6045 -0.6872 -1.1230
12877TIP3   OH260121   6.086   0.304  11.505  0.3318 -0.6456 -0.1273
12877TIP3    H160122   6.088   0.329  11.412 -2.7652 -3.7900 -1.2821
12877TIP3    H260123   6.010   0.348  11.541 -0.4721 -1.9997 -0.0786
12878TIP3   OH260124   5.190   0.494   1.025 -0.0554 -0.3289  0.1234
12878TIP3    H160125   5.219   0.574   1.069  0.8069  0.2580 -1.4395
12878TIP3    H260126   5.106   0.518   0.984  0.4950 -0.0062 -0.8533
12879TIP3   OH260127   1.308   0.486  15.475 -0.3700 -0.4848 -0.3984
12879TIP3    H160128   1.235   0.476  15.414  1.5701 -1.1747 -2.7742
12879TIP3    H260129   1.323   0.397  15.508 -0.6624 -0.3166  0.2033
12880TIP3   OH260130   3.759   5.864   3.777 -0.8676  0.0862  0.2281
12880TIP3    H160131   3.851   5.850   3.802 -0.4186 -0.1216 -1.4561
12880TIP3    H260132   3.709   5.819   3.846  0.3073 -0.4389  0.7715
12881TIP3   OH260133   2.041   0.600  15.053  0.1722  0.0061  0.2779
12881TIP3    H160134   2.082   0.514  15.061  3.3543  1.4235  0.7761
12881TIP3    H260135   2.022   0.625  15.144 -0.8894 -0.2014  0.1215
12882TIP3   OH260136   3.534   4.725  12.063 -0.2217 -0.5191  0.1556
12882TIP3    H160137   3.593   4.767  12.001 -0.1662 -0.7164  0.0725
12882TIP3    H260138   3.448   4.764  12.046 -0.2926 -0.8763 -0.3396
12883TIP3   OH260139   5.248   5.530  13.300  0.2688  0.3499  0.2921
12883TIP3    H160140   5.289   5.522  13.214 -2.3387  1.6997 -1.1913
12883TIP3    H260141   5.298   5.599  13.344  0.6847  0.7169 -0.7392
12884TIP3   OH260142   3.087   0.495   4.342  0.2694  0.0852  0.3825
12884TIP3    H160143   3.147   0.455   4.279  1.2597 -0.9523  1.9141
12884TIP3    H260144   3.135   0.497   4.424 -1.6345 -0.3949  1.5859
12885TIP3   OH260145   5.627   1.117   1.947 -0.1121  0.4946 -0.3279
12885TIP3    H160146   5.597   1.074   2.026  2.3822 -0.5106  0.1675
12885TIP3    H260147   5.611   1.210   1.962 -0.7385  0.2086  0.8397
12886TIP3   OH260148   3.623   3.566   2.859 -0.5365 -0.1630 -0.1175
12886TIP3    H160149   3.676   3.487   2.851 -0.1567 -0.1644  1.9144
12886TIP3    H260150   3.532   3.535   2.855 -0.3940 -0.4930 -0.9101
12887TIP3   OH260151   1.449   2.735   4.042 -0.1347 -0.7013  0.0741
12887TIP3    H160152   1.487   2.657   4.082  1.6650  0.1834  0.1463
12887TIP3    H260153   1.513   2.804   4.055 -1.4067  0.6727 -0.5431
12888TIP3   OH260154   3.521   6.612  13.827 -0.0370  0.7768 -1.1491
12888TIP3    H160155   3.462   6.659  13.886  0.3969  2.8016 -2.2362
12888TIP3    H260156   3.495   6.641  13.740  2.2194  1.3728 -1.6805
12889TIP3   OH260157   1.303   5.232   4.287 -0.6898  0.0102 -0.5793
12889TIP3    H160158   1.300   5.317   4.330 -0.8665  1.0095 -2.4858
12889TIP3    H260159   1.394   5.221   4.262 -0.9565  0.4040 -1.7648
12890TIP3   OH260160   0.911   2.496  12.005 -0.2732 -0.1834  0.5577
12890TIP3    H160161   0.900   2.417  12.059  1.6248 -1.7287 -1.1199
12890TIP3    H260162   0.999   2.527  12.026 -0.5996  0.8721  0.4062
12891TIP3   OH260163   2.666   6.625   2.702 -0.4621 -0.3537 -0.4717
12891TIP3    H160164   2.689   6.632   2.795 -3.0337  0.1877  0.1935
12891TIP3    H260165   2.742   6.582   2.662  2.3984  2.7180  1.1197
12892TIP3   OH260166   3.896   4.320   0.666  0.0036 -0.2118  0.1914
12892TIP3    H160167   3.955   4.390   0.693 -0.9183  0.7883 -0.2997
12892TIP3    H260168   3.954   4.251   0.633  1.0115 -0.3521  2.0976
12893TIP3   OH260169   5.514   3.492   3.140  0.2834  0.0334  0.3218
12893TIP3    H160170   5.564   3.573   3.147  2.5189 -1.3748  2.0199
12893TIP3    H260171   5.554   3.445   3.067  0.4108 -0.4578  0.7062
12894TIP3   OH260172   3.244   1.392  15.577  0.1107 -0.0477  0.1625
12894TIP3    H160173   3.283   1.341  15.506 -0.4676 -0.3261  0.0400
12894TIP3    H260174   3.253   1.483  15.549  0.0348 -0.1471 -0.1904
12895TIP3   OH260175   2.020   2.348  15.567  0.4471 -0.5102  0.2413
12895TIP3    H160176   2.054   2.273  15.519  2.2809 -0.5495  1.5115
12895TIP3    H260177   2.036   2.328  15.659  1.9219  1.7971  0.5781
12896TIP3   OH260178   5.209   6.076   4.310  0.6898  0.4429  0.1369
12896TIP3    H160179   5.181   6.036   4.392  1.2107  0.9631  0.5701
12896TIP3    H260180   5.153   6.034   4.244  1.1323 -0.9200  0.5807
12897TIP3   OH260181   3.409   6.742   1.060 -0.5960  0.0936  0.5659
12897TIP3    H160182   3.390   6.832   1.085  0.2492  0.3253  0.4104
12897TIP3    H260183   3.356   6.727   0.981 -0.5004  0.5593  0.4115
12898TIP3   OH260184   4.378   2.777   1.075 -0.1636  0.2465  0.0283
12898TIP3    H160185   4.367   2.861   1.119 -0.0391  1.0296 -1.3872
12898TIP3    H260186   4.298   2.764   1.025 -0.0307 -0.2971 -0.0559
12899TIP3   OH260187   1.912   3.820  12.214  0.8851 -0.6354  0.4437
12899TIP3    H160188   1.820   3.805  12.194  1.1687  0.0656 -1.7419
12899TIP3    H260189   1.938   3.889  12.153  3.1873 -1.7501  0.0558
12900TIP3   OH260190   2.309   3.466  12.279 -0.3341  0.1913  0.2159
12900TIP3    H160191   2.261   3.542  12.245 -1.7381 -0.7625  0.0083
12900TIP3    H260192   2.352   3.499  12.358  2.2122  2.2114 -1.7827
12901TIP3   OH260193   1.790   4.022   0.785  0.4176  0.1777 -0.2315
12901TIP3    H160194   1.881   4.051   0.776 -0.0815  1.6235 -1.0839
12901TIP3    H260195   1.739   4.092   0.743 -1.2213  0.2825  1.8004
12902TIP3   OH260196   2.388   3.234   5.176  0.0269  0.3400  0.3737
12902TIP3    H160197   2.435   3.165   5.129  0.1600 -0.1443  1.2049
12902TIP3    H260198   2.299   3.231   5.140 -0.3935 -1.2840  1.4231
12903TIP3   OH260199   5.809   2.872   3.677 -0.5223 -0.5269  0.4129
12903TIP3    H160200   5.764   2.820   3.743  0.1063 -1.1002  0.4001
12903TIP3    H260201   5.899   2.879   3.709 -0.5990  0.5584  0.4131
12904TIP3   OH260202   0.113   5.051  12.273  0.3475  0.0376 -0.2273
12904TIP3    H160203   0.083   5.087  12.190  0.4835  1.6195  0.3707
12904TIP3    H260204   0.179   4.985  12.248 -0.0220  0.0774 -1.3685
12905TIP3   OH260205   5.571   0.910   5.562  0.6633 -0.1090  0.2661
12905TIP3    H160206   5.572   0.825   5.518  1.3666  0.2800 -0.4852
12905TIP3    H260207   5.486   0.912   5.608  0.3916 -0.9710 -0.1806
12906TIP3   OH260208   4.422   0.965  13.220 -0.0220 -0.3815  0.1091
12906TIP3    H160209   4.432   1.031  13.151  0.5397  0.0424  0.5792
12906TIP3    H260210   4.487   0.990  13.285  2.0817 -2.9051 -0.8660
12907TIP3   OH260211   1.710   3.196  16.613  0.1909 -0.1450 -0.3828
12907TIP3    H160212   1.743   3.157  16.532  2.4810  2.9830 -1.1498
12907TIP3    H260213   1.760   3.153  16.682  1.5240  0.2472 -1.0665
12908TIP3   OH260214   0.180   0.906  16.881 -0.3283 -0.8076 -0.7705
12908TIP3    H160215   0.254   0.848  16.896 -0.7983 -0.9537  1.2528
12908TIP3    H260216   0.127   0.899  16.960  0.1503  3.2320  0.1114
12909TIP3   OH260217   5.681   1.554   3.072 -0.0991 -0.0897  0.4361
12909TIP3    H160218   5.774   1.535   3.059 -0.4799 -1.4303 -0.5218
12909TIP3    H260219   5.654   1.493   3.140 -0.2103  0.5634  0.9899
12910TIP3   OH260220   6.525   4.531   2.639 -0.5234  0.1563  0.0742
12910TIP3    H160221   6.593   4.465   2.652 -0.8472 -0.0698  0.6679
12910TIP3    H260222   6.450   4.482   2.606 -0.0534  0.5705 -1.7023
12911TIP3   OH260223   4.420   6.455  15.291 -0.5442 -0.0158 -0.0760
12911TIP3    H160224   4.402   6.478  15.382 -0.1091 -1.3554  0.3681
12911TIP3    H260225   4.513   6.430  15.290 -0.3555  0.6385 -1.0364
12912TIP3   OH260226   5.438   1.154  17.219  0.1823  0.4814 -0.6640
12912TIP3    H160227   5.514   1.178  17.273  0.6494  1.2499 -1.6114
12912TIP3    H260228   5.363   1.188  17.267  0.7154  2.6519 -1.2085
12913TIP3   OH260229   5.434   0.382   3.233 -0.4742 -0.1703  0.0765
12913TIP3    H160230   5.354   0.392   3.285 -0.3570  0.2817  0.1662
12913TIP3    H260231   5.416   0.305   3.178 -0.9907 -0.0441  0.0603
12914TIP3   OH260232   0.119   1.592   5.118 -0.3986  0.1142 -0.2362
12914TIP3    H160233   0.193   1.537   5.146 -1.4146 -0.7742  0.7664
12914TIP3    H260234   0.154   1.681   5.122  0.3164 -0.1876  1.3542
12915TIP3   OH260235   1.960   3.750  11.534 -0.2342 -0.2781  0.1669
12915TIP3    H160236   1.939   3.841  11.553  3.2552  0.9033 -0.8450
12915TIP3    H260237   1.915   3.731  11.452  0.2324  1.0948 -0.4346
12916TIP3   OH260238   0.894   0.482   0.827  0.2894  0.0006  0.0751
12916TIP3    H160239   0.887   0.388   0.845  0.3166  0.0114  0.1447
12916TIP3    H260240   0.825   0.522   0.880  0.0013 -0.0190 -0.2811
12917TIP3   OH260241   2.023   4.248   2.230 -0.1170 -0.3478 -0.2721
12917TIP3    H160242   1.932   4.224   2.247 -0.9084  2.2068 -0.4159
12917TIP3    H260243   2.020   4.343   2.217  2.4436 -0.3299 -1.2447
12918TIP3   OH260244   4.372   5.151  16.420  0.2165  0.3073 -0.2375
12918TIP3    H160245   4.462   5.168  16.446  0.1771 -0.7202  0.6422
12918TIP3    H260246   4.350   5.067  16.461 -0.8085  0.0365 -1.2722
12919TIP3   OH260247   0.691   1.702  17.327  0.0739 -0.4501 -0.1602
12919TIP3    H160248   0.665   1.669  17.241 -1.7379 -0.4267  0.3328
12919TIP3    H260249   0.760   1.643  17.356 -0.8801 -1.8580 -0.6731
12920TIP3   OH260250   0.763   3.346   0.568 -0.1082  0.1086  0.0538
12920TIP3    H160251   0.839   3.392   0.601 -1.3732  0.8411  2.1232
12920TIP3    H260252   0.752   3.271   0.627 -1.2317  0.2522  0.0551
12921TIP3   OH260253   2.580   6.220  11.172 -0.1050  0.4627  0.2882
12921TIP3    H160254   2.635   6.263  11.237  0.9280  0.4370 -0.5386
12921TIP3    H260255   2.610   6.129  11.172 -1.2717  0.0606  0.9773
12922TIP3   OH260256   0.413   5.875  16.745 -0.1745  0.2229 -0.3964
12922TIP3    H160257   0.362   5.947  16.707  1.8609  1.6042 -0.6868
12922TIP3    H260258   0.414   5.893  16.839  0.4781  0.6923 -0.4881
12923TIP3   OH260259   1.752   1.018  11.617 -0.3409 -0.3299 -0.3753
12923TIP3    H160260   1.834   1.065  11.624 -1.0246  0.6695  1.8648
12923TIP3    H260261   1.689   1.083  11.586 -0.6588 -0.5509 -0.2053
12924TIP3   OH260262   1.532   1.708  14.541 -0.0350  0.2519  0.3911
12924TIP3    H160263   1.621   1.710  14.577  0.4955  1.0946 -0.9127
12924TIP3    H260264   1.539   1.657  14.461 -0.8398 -0.0628  0.5054
12925TIP3   OH260265   1.859   3.290  14.185  0.5279 -0.5385  0.3474
12925TIP3    H160266   1.817   3.376  14.195 -0.2268 -0.7274 -0.8686
12925TIP3    H260267   1.883   3.287  14.092  0.1086 -1.8310  0.2711
12926TIP3   OH260268   0.923   5.912  17.210 -0.3171  0.0098 -0.2683
12926TIP3    H160269   0.924   5.927  17.305 -2.0720  1.2917 -0.3883
12926TIP3    H260270   1.015   5.910  17.185  0.2112 -1.4280  1.5958
12927TIP3   OH260271   2.190   1.639   4.278 -0.2131  0.0240  0.2587
12927TIP3    H160272   2.247   1.611   4.206  1.1916 -0.7262  1.5917
12927TIP3    H260273   2.157   1.557   4.315 -1.4965  0.4290  0.0438
12928TIP3   OH260274   1.037   0.589   4.541 -0.6528  0.5072 -0.9301
12928TIP3    H160275   0.966   0.619   4.484 -0.9242 -1.0773 -1.4598
12928TIP3    H260276   1.003   0.510   4.583  0.2182  0.6226  0.0336
12929TIP3   OH260277   0.502   2.912   1.737  0.1231 -0.2288 -0.2173
12929TIP3    H160278   0.415   2.952   1.733  0.5639  0.7013 -0.7354
12929TIP3    H260279   0.536   2.937   1.822 -0.4631 -1.3717  0.3796
12930TIP3   OH260280   4.654   1.098  16.551  0.9642  0.1254 -0.3169
12930TIP3    H160281   4.598   1.023  16.528  0.9724 -0.1461  0.5361
12930TIP3    H260282   4.593   1.167  16.576  1.0078 -0.4132  1.3560
12931TIP3   OH260283   6.542   1.347  15.479 -0.0514 -0.3265  0.2218
12931TIP3    H160284   6.542   1.411  15.408  0.0887 -2.6934 -2.0660
12931TIP3    H260285   6.623   1.298  15.467 -0.6812 -1.6731  1.2011
12932TIP3   OH260286   1.608   0.690  12.478 -0.0746 -0.0436  0.4483
12932TIP3    H160287   1.562   0.660  12.400  0.8625 -0.2984 -0.0099
12932TIP3    H260288   1.603   0.617  12.539 -0.7917  0.1499  0.6387
12933TIP3   OH260289   2.281   5.536   2.847 -0.2519  0.4356 -0.6900
12933TIP3    H160290   2.286   5.445   2.817  0.5335  0.6204 -1.1309
12933TIP3    H260291   2.356   5.545   2.906  0.0809  0.9929 -1.1916
12934TIP3   OH260292   5.584   0.205  10.658 -0.0711 -0.0019 -0.0797
12934TIP3    H160293   5.545   0.256  10.587  0.4258 -0.3393 -0.6051
12934TIP3    H260294   5.535   0.231  10.736  0.5100  1.6483 -0.2358
12935TIP3   OH260295   2.216   3.117  17.326 -0.0182  0.1043  0.1346
12935TIP3    H160296   2.150   3.051  17.345 -0.2186  0.2133 -0.1695
12935TIP3    H260297   2.182   3.197  17.368 -0.2834  0.2580 -0.3620
12936TIP3   OH260298   4.846   1.531  11.640 -0.3066 -0.2219  0.7140
12936TIP3    H160299   4.765   1.580  11.655  0.6307  1.2766  1.2376
12936TIP3    H260300   4.892   1.580  11.571  0.6189 -0.4133  1.1682
12937TIP3   OH260301   5.583   5.826  15.840 -0.4247 -0.0118  0.7754
12937TIP3    H160302   5.520   5.896  15.825 -0.8916 -0.4788  0.5217
12937TIP3    H260303   5.564   5.762  15.772  1.4922  0.6326 -0.4556
12938TIP3   OH260304   1.655   4.071  12.235 -0.0403  0.0394 -0.5419
12938TIP3    H160305   1.566   4.039  12.248 -0.3847  0.7400 -1.1109
12938TIP3    H260306   1.694   4.009  12.173 -0.7825  0.8350 -1.8320
12939TIP3   OH260307   4.425   4.321   3.633  0.3216 -0.9058 -0.1972
12939TIP3    H160308   4.338   4.354   3.656  1.3055  0.4695  1.7876
12939TIP3    H260309   4.425   4.230   3.662 -0.6687 -1.1475 -0.9018
12940TIP3   OH260310   0.717   1.598   1.880 -0.0683  0.9545  0.0001
12940TIP3    H160311   0.637   1.546   1.884 -0.1396  0.8793 -1.7023
12940TIP3    H260312   0.778   1.552   1.937 -0.6643 -0.0434 -0.1366
12941TIP3   OH260313   2.872   4.826   0.026  0.1820 -0.0298 -0.5526
12941TIP3    H160314   2.913   4.789  -0.051  0.4687  0.1051 -0.4644
12941TIP3    H260315   2.783   4.790   0.025 -0.7045  1.9834 -2.3783
12942TIP3   OH260316   2.730   1.040  15.472 -0.1680  0.2461  0.2052
12942TIP3    H160317   2.761   1.119  15.516  1.9352  0.4287 -1.4633
12942TIP3    H260318   2.715   1.068  15.382 -0.6195 -0.9850 -0.1148
12943TIP3   OH260319   5.013   2.077  16.127 -0.7193 -0.5386 -0.5937
12943TIP3    H160320   4.969   2.146  16.175  0.9407  0.3592 -0.2963
12943TIP3    H260321   5.038   2.013  16.195 -3.1900 -2.0868 -0.9723
12944TIP3   OH260322   6.740   4.817  12.151 -0.4499 -0.1191 -0.0929
12944TIP3    H160323   6.783   4.789  12.231  1.1800  1.2351 -0.4333
12944TIP3    H260324   6.759   4.747  12.088  1.4621  0.5032 -0.2725
12945TIP3   OH260325   1.609   0.515  11.282  0.0898 -0.1160 -0.2187
12945TIP3    H160326   1.539   0.460  11.245 -1.1723  0.0696  1.7592
12945TIP3    H260327   1.665   0.454  11.330 -0.4680  0.1170  0.7421
12946TIP3   OH260328   4.615   4.005   2.453 -0.1058 -0.4631 -0.1526
12946TIP3    H160329   4.680   3.998   2.522  1.9325  2.6766 -1.5008
12946TIP3    H260330   4.545   4.059   2.491 -0.4601 -1.2831  0.3668
12947TIP3   OH260331   3.003   0.266  17.105  0.6705  0.6235 -0.9133
12947TIP3    H160332   3.049   0.305  17.180 -0.4716 -0.8136  0.5999
12947TIP3    H260333   2.914   0.300  17.111 -0.1935 -1.6330  0.1052
12948TIP3   OH260334   4.064   0.219   5.557  0.4200 -0.1333 -0.5021
12948TIP3    H160335   4.094   0.180   5.475  0.5863  1.6939 -1.3422
12948TIP3    H260336   4.128   0.287   5.576  0.1508 -0.2633  0.9454
12949TIP3   OH260337   0.999   6.543   3.609 -0.2543  0.3136  0.5101
12949TIP3    H160338   0.908   6.521   3.590 -0.1279 -1.0662  1.3825
12949TIP3    H260339   1.027   6.478   3.673  1.5670  0.3091 -0.2359
12950TIP3   OH260340   1.535   4.004   6.066 -0.1286 -0.4564 -0.1127
12950TIP3    H160341   1.499   3.959   5.990 -2.4038  0.0592  0.5759
12950TIP3    H260342   1.627   4.017   6.045 -0.3170 -1.8085 -2.0382
12951TIP3   OH260343   1.314   0.025   3.456 -0.0424 -0.3272  0.1048
12951TIP3    H160344   1.403  -0.007   3.470  1.3575  2.4288 -1.6839
12951TIP3    H260345   1.289  -0.011   3.371  0.8570  1.7188 -1.0892
12952TIP3   OH260346   6.036   4.338  16.764 -0.0474  0.4016  0.4633
12952TIP3    H160347   6.019   4.282  16.688 -2.4273  2.3447 -0.5989
12952TIP3    H260348   5.953   4.385  16.778  1.8381  3.9598  0.9683
12953TIP3   OH260349   1.098   1.337  12.059  0.2622 -0.1983  0.0246
12953TIP3    H160350   1.041   1.310  12.131  1.2417 -0.0506  0.8777
12953TIP3    H260351   1.158   1.264  12.046  2.2174  1.0150  1.6050
12954TIP3   OH260352   0.316   3.205   5.462 -0.4601  0.5492  0.0407
12954TIP3    H160353   0.223   3.224   5.478 -0.2020  2.2641 -0.3088
12954TIP3    H260354   0.361   3.288   5.479  1.0215 -0.2463  0.1862
12955TIP3   OH260355   0.530   4.707   5.088 -0.2314  0.3517 -0.0069
12955TIP3    H160356   0.580   4.677   5.165  0.8421 -0.0509 -0.8321
12955TIP3    H260357   0.596   4.715   5.019 -1.5623 -2.1836 -1.7294
12956TIP3   OH260358   2.380   1.751  15.628  0.2951  0.5494  0.2975
12956TIP3    H160359   2.402   1.830  15.677 -2.3851  1.7005 -0.1890
12956TIP3    H260360   2.336   1.784  15.549  1.4919 -1.3753 -1.2673
12957TIP3   OH260361   1.257   6.401  14.722  0.6191 -0.2170 -0.0981
12957TIP3    H160362   1.282   6.474  14.779  1.1956 -1.1509  0.9090
12957TIP3    H260363   1.279   6.430  14.634  0.2637  1.0506  0.2166
12958TIP3   OH260364   1.689   2.252   0.802 -0.3473  0.2503  0.1505
12958TIP3    H160365   1.650   2.336   0.780  1.0312  1.3148  1.5242
12958TIP3    H260366   1.676   2.243   0.896  3.0481  0.9661  0.8368
12959TIP3   OH260367   2.835   6.443   3.177  0.0879  1.0079 -0.2441
12959TIP3    H160368   2.817   6.428   3.084 -0.1363  0.3791 -0.1024
12959TIP3    H260369   2.762   6.497   3.207 -0.4026  0.3291 -0.1932
12960TIP3   OH260370   2.600   6.707   0.932  0.1099  0.2859  0.3228
12960TIP3    H160371   2.545   6.762   0.875  1.5938 -1.5214 -3.2193
12960TIP3    H260372   2.567   6.618   0.917  3.1602 -0.7258 -1.1002
12961TIP3   OH260373   1.399   3.302   4.089  0.5971 -0.1695  0.3644
12961TIP3    H160374   1.474   3.328   4.037  0.5413  0.6311  0.6769
12961TIP3    H260375   1.421   3.328   4.178  0.2595 -0.6086  0.5842
12962TIP3   OH260376   5.339   4.225  11.783 -0.0165 -0.1659  0.6657
12962TIP3    H160377   5.407   4.233  11.850  0.9664 -0.5374 -0.2663
12962TIP3    H260378   5.325   4.314  11.753  0.6627 -0.1841  0.2814
12963TIP3   OH260379   3.065   4.787  10.659 -0.3913  0.3283  0.4037
12963TIP3    H160380   3.035   4.868  10.617  2.8263  0.9807 -0.9586
12963TIP3    H260381   3.146   4.811  10.703  0.5052 -2.0778  0.2358
12964TIP3   OH260382   3.171   4.594   3.224 -0.0375  0.9472 -0.0186
12964TIP3    H160383   3.131   4.522   3.272  1.1911 -0.7720 -1.4761
12964TIP3    H260384   3.177   4.665   3.289 -0.6613 -0.4434  1.6385
12965TIP3   OH260385   1.674   2.009   2.413 -0.6531  0.2526 -0.5603
12965TIP3    H160386   1.653   2.064   2.338 -0.7920  1.2173  0.1659
12965TIP3    H260387   1.698   1.925   2.375  1.1599  1.2668 -1.8040
12966TIP3   OH260388   3.827   1.908   4.561 -0.4017  0.0335  0.1882
12966TIP3    H160389   3.811   1.958   4.481  0.1659 -0.3804 -0.1953
12966TIP3    H260390   3.922   1.896   4.563 -0.3511  0.4607  1.1864
12967TIP3   OH260391   4.980   0.189   4.492  0.7510  1.0434  0.0348
12967TIP3    H160392   4.926   0.199   4.414  0.3778 -1.5964 -0.1327
12967TIP3    H260393   4.918   0.187   4.565  0.7920  0.2807  0.0597
12968TIP3   OH260394   4.303   4.189  12.236 -0.2983 -0.0966 -0.2592
12968TIP3    H160395   4.231   4.201  12.298  1.3328 -1.0349  1.9785
12968TIP3    H260396   4.359   4.266  12.250  1.4265 -1.5416  1.5317
12969TIP3   OH260397   4.153   0.618   0.124 -0.0703  0.7875  0.4513
12969TIP3    H160398   4.109   0.645   0.043 -1.5607 -1.6196  0.3711
12969TIP3    H260399   4.105   0.663   0.193 -0.4590  0.8528  0.1446
12970TIP3   OH260400   5.657   3.277   6.274 -0.1602 -0.1133 -0.3719
12970TIP3    H160401   5.723   3.307   6.336 -0.6974  2.1019 -0.7849
12970TIP3    H260402   5.578   3.266   6.327  0.1990 -1.5441 -0.1006
12971TIP3   OH260403   3.315   5.705  14.332  1.0399  0.1162 -0.2441
12971TIP3    H160404   3.355   5.618  14.328 -0.9922 -0.8238 -1.1861
12971TIP3    H260405   3.350   5.751  14.256 -1.3864 -1.5529 -2.5264
12972TIP3   OH260406   4.746   3.144   1.474 -0.0373  0.6422 -0.2044
12972TIP3    H160407   4.772   3.215   1.416  0.9302  0.3042 -0.1919
12972TIP3    H260408   4.774   3.064   1.429 -0.8106  0.2749 -0.0628
12973TIP3   OH260409   1.147   6.030   6.275  0.5090  0.0675 -0.2584
12973TIP3    H160410   1.224   5.974   6.273  1.1830  0.9448 -2.7268
12973TIP3    H260411   1.138   6.061   6.185 -2.8675 -0.1687 -0.1150
12974TIP3   OH260412   5.267   5.714   6.945  0.5634  0.4571  0.3394
12974TIP3    H160413   5.289   5.805   6.925  1.0256  0.1432 -0.6397
12974TIP3    H260414   5.225   5.718   7.031 -0.4961  1.7391 -0.1994
12975TIP3   OH260415   3.530   5.010   0.880 -0.1598 -0.2194  0.6292
12975TIP3    H160416   3.441   5.035   0.904 -1.2666 -1.8995 -1.3501
12975TIP3    H260417   3.538   4.918   0.908  0.8166 -0.1996  0.4538
12976TIP3   OH260418   0.511   5.831  10.612 -0.0611 -0.7092  0.2947
12976TIP3    H160419   0.595   5.865  10.580  0.1330  0.0337  1.5483
12976TIP3    H260420   0.479   5.777  10.540 -0.2768  1.9519 -1.7723
12977TIP3   OH260421   4.745   4.714  15.452 -0.0447 -0.2877 -0.7847
12977TIP3    H160422   4.708   4.739  15.537 -0.2784  1.1894 -1.2803
12977TIP3    H260423   4.689   4.644  15.420  0.3172 -1.1806  0.4687
12978TIP3   OH260424   0.138   0.283  14.514 -0.4983  0.5294 -0.0875
12978TIP3    H160425   0.103   0.268  14.426  0.2365  0.6334 -0.4000
12978TIP3    H260426   0.226   0.247  14.512 -0.2517  1.0790  0.4319
12979TIP3   OH260427   5.115   0.801  13.102  0.3228 -0.6346 -0.5379
12979TIP3    H160428   5.112   0.817  13.196  1.6375  0.7314 -0.6980
12979TIP3    H260429   5.075   0.715  13.091 -0.8654 -0.3429  1.1364
12980TIP3   OH260430   5.731   2.211  16.802 -0.3271 -0.4144  0.0220
12980TIP3    H160431   5.815   2.190  16.761 -0.8476 -0.7503 -0.9042
12980TIP3    H260432   5.699   2.287  16.753 -2.2609 -2.4849 -2.1665
12981TIP3   OH260433   0.422   1.231   3.688 -0.4817  0.3251 -0.0851
12981TIP3    H160434   0.433   1.162   3.754  0.4980  1.3207  0.8252
12981TIP3    H260435   0.491   1.294   3.707 -1.6556  1.8138 -0.5877
12982TIP3   OH260436   5.743   5.752   5.460  0.0841  0.6689 -0.0851
12982TIP3    H160437   5.718   5.808   5.533  1.0804  1.0497 -0.0206
12982TIP3    H260438   5.720   5.803   5.382  1.1676  1.2749 -0.0276
12983TIP3   OH260439   3.394   3.648  15.247  0.3334  0.4669  0.1687
12983TIP3    H160440   3.311   3.605  15.270 -0.1364  1.5279  0.5234
12983TIP3    H260441   3.430   3.594  15.177 -0.7730  0.1060 -0.1451
12984TIP3   OH260442   2.226   6.147   2.990  0.2308 -0.3307 -0.0472
12984TIP3    H160443   2.168   6.117   2.920 -1.8318  0.8887  1.0594
12984TIP3    H260444   2.178   6.130   3.071  1.8310 -0.1325  0.9855
12985TIP3   OH260445   2.252   5.096   1.389  0.0553 -0.4561 -0.0106
12985TIP3    H160446   2.317   5.137   1.332 -1.1618  1.5570 -0.0399
12985TIP3    H260447   2.297   5.019   1.426  2.3490  0.7173 -0.2025
12986TIP3   OH260448   6.588   6.465   5.110  0.2191  0.6351  0.3135
12986TIP3    H160449   6.647   6.447   5.036 -1.8620 -1.1988 -1.0102
12986TIP3    H260450   6.634   6.430   5.186  1.6705  1.0064 -0.3625
12987TIP3   OH260451   0.015   6.683  16.475 -0.0164 -0.1457  0.2211
12987TIP3    H160452   0.084   6.748  16.460 -1.1057  1.1102  0.3917
12987TIP3    H260453   0.015   6.668  16.569 -1.5782  1.8125  0.6149
12988TIP3   OH260454   4.368   5.367   1.647 -0.1322 -0.1431  0.2624
12988TIP3    H160455   4.362   5.372   1.552  1.0215  0.4808  0.2023
12988TIP3    H260456   4.404   5.452   1.674  0.4308 -0.6425  1.1604
12989TIP3   OH260457   4.205   3.613   4.407 -0.4466 -0.7473  0.6623
12989TIP3    H160458   4.174   3.569   4.327 -0.8044  1.1328 -0.2904
12989TIP3    H260459   4.298   3.630   4.390 -0.5560 -0.2249  0.5883
12990TIP3   OH260460   4.581   1.696  12.550  0.7428 -0.2408 -0.4587
12990TIP3    H160461   4.593   1.767  12.613  0.8641 -0.7496  0.0963
12990TIP3    H260462   4.608   1.734  12.466  0.6677  0.4119 -0.1936
12991TIP3   OH260463   1.249   6.719   5.133 -0.3866  0.0721 -0.0862
12991TIP3    H160464   1.175   6.775   5.157 -1.1847 -1.2571  0.6838
12991TIP3    H260465   1.308   6.722   5.209 -0.1318  0.3357 -0.2905
12992TIP3   OH260466   3.665   0.524  15.013 -0.8319 -0.1805  0.7277
12992TIP3    H160467   3.754   0.556  15.029 -0.4837  0.6947 -2.3983
12992TIP3    H260468   3.676   0.429  15.004 -0.2999 -0.1283  0.7689
12993TIP3   OH260469   3.377   4.243  15.514 -0.2102 -0.0595  0.1365
12993TIP3    H160470   3.376   4.338  15.530 -0.7583  0.3272 -1.8492
12993TIP3    H260471   3.418   4.234  15.428  1.4524 -1.8012  1.0551
12994TIP3   OH260472   6.304   3.054   1.709  0.4069 -0.4758  0.3249
12994TIP3    H160473   6.375   3.057   1.644  1.4890 -0.4029  1.4640
12994TIP3    H260474   6.236   3.002   1.668  0.7691  0.1658 -1.1445
12995TIP3   OH260475   6.439   1.710  13.287 -0.0710  0.4414  0.4120
12995TIP3    H160476   6.374   1.763  13.242  0.2707  1.0063  0.5817
12995TIP3    H260477   6.436   1.625  13.242 -0.2993  0.7447 -0.1503
12996TIP3   OH260478   0.286   6.100  11.067 -0.3701  0.3623 -0.5558
12996TIP3    H160479   0.191   6.108  11.053 -0.8048  0.6712  1.9676
12996TIP3    H260480   0.319   6.058  10.988 -2.8779 -1.2364 -0.8745
12997TIP3   OH260481   5.563   5.349   3.156  0.4398  0.2339  0.3153
12997TIP3    H160482   5.656   5.327   3.149  1.0041  2.5209 -0.1460
12997TIP3    H260483   5.560   5.420   3.220 -0.8760  0.8000 -0.3427
12998TIP3   OH260484   3.119   5.433   5.457 -0.0853 -0.1050 -0.0651
12998TIP3    H160485   3.085   5.521   5.476 -1.8076 -0.7549 -0.0705
12998TIP3    H260486   3.150   5.439   5.366  2.6039  1.2948  0.8107
12999TIP3   OH260487   2.304   3.300   3.379 -1.0749 -0.2860  0.0377
12999TIP3    H160488   2.211   3.291   3.361 -0.8944 -0.4142 -0.8886
12999TIP3    H260489   2.313   3.383   3.424 -1.8248 -0.9939  1.5543
13000TIP3   OH260490   6.223   2.459   1.985  0.4074  0.2209 -0.3790
13000TIP3    H160491   6.314   2.461   1.957  0.4021 -0.7997 -0.5018
13000TIP3    H260492   6.172   2.469   1.904  0.4112 -0.9580 -0.5522
13001TIP3   OH260493   2.131   6.463  11.764 -0.0026 -0.0545  0.0616
13001TIP3    H160494   2.045   6.442  11.726  0.8159 -0.0283 -1.8835
13001TIP3    H260495   2.142   6.557  11.748  1.2257 -0.4365 -1.5426
13002TIP3   OH260496   6.334   5.970  17.062  0.4859  0.1815  0.6326
13002TIP3    H160497   6.301   5.941  16.977  1.9424  1.9071 -0.5882
13002TIP3    H260498   6.398   5.902  17.086 -1.7810 -1.7217  1.7164
13003TIP3   OH260499   2.416   3.291  15.423  0.2472  0.3865  0.1698
13003TIP3    H160500   2.348   3.315  15.485  0.7574 -0.9902  1.2986
13003TIP3    H260501   2.372   3.234  15.359  0.3403 -0.6143  0.9763
13004TIP3   OH260502   1.984   4.348  14.868 -0.0875 -0.3667 -0.0918
13004TIP3    H160503   2.058   4.290  14.849  0.0437 -0.3503  0.3690
13004TIP3    H260504   1.960   4.328  14.958  0.6646  1.0666  0.4500
13005TIP3   OH260505   2.531   1.122   4.134 -0.3360 -0.7460  0.3520
13005TIP3    H160506   2.542   1.196   4.193 -0.5302 -0.8717  0.5449
13005TIP3    H260507   2.600   1.061   4.159  1.1788  0.2469 -1.1666
13006TIP3   OH260508   4.843   0.054   2.888 -0.4044  0.3983 -0.2791
13006TIP3    H160509   4.900   0.032   2.814 -0.6025  0.8639 -0.5758
13006TIP3    H260510   4.772  -0.009   2.882  0.1846 -0.3360  0.2284
13007TIP3   OH260511   5.571   3.933  15.449 -0.6143 -0.2578  0.1857
13007TIP3    H160512   5.498   3.878  15.476  0.1591 -0.7697  1.3221
13007TIP3    H260513   5.633   3.871  15.410 -1.1351  0.2875 -1.6118
13008TIP3   OH260514   4.557   5.197   0.868 -0.1889  0.1790  0.5571
13008TIP3    H160515   4.616   5.164   0.800  1.5461 -0.7064  2.3862
13008TIP3    H260516   4.469   5.178   0.835  0.6240 -1.6044 -0.7609
13009TIP3   OH260517   4.025   2.142   0.198  0.5305  0.1845 -0.0891
13009TIP3    H160518   4.029   2.055   0.238  0.6450 -0.4222 -1.3622
13009TIP3    H260519   3.993   2.126   0.109  1.7803  1.2778 -0.7823
13010TIP3   OH260520   5.788   3.128   3.588  0.1359  0.5500  0.0512
13010TIP3    H160521   5.787   3.034   3.604  1.0738  0.5161 -0.0595
13010TIP3    H260522   5.773   3.167   3.674  1.2095  0.3148  0.3560
13011TIP3   OH260523   0.727   3.682   1.793 -0.2180 -0.0700  0.0392
13011TIP3    H160524   0.663   3.682   1.863  0.2139 -1.8311  0.4959
13011TIP3    H260525   0.807   3.716   1.832  0.3366 -2.0733  0.7952
13012TIP3   OH260526   3.119   5.351   1.455  0.0410 -0.6233 -0.2270
13012TIP3    H160527   3.107   5.259   1.430 -1.0470 -0.3681 -0.7085
13012TIP3    H260528   3.080   5.401   1.384  2.0435  0.2885 -0.7497
13013TIP3   OH260529   5.027   2.277   0.937 -0.6012 -1.3698  0.4893
13013TIP3    H160530   4.965   2.350   0.942  2.4314  1.4663  0.1520
13013TIP3    H260531   5.025   2.251   0.844  0.0486  0.0617  0.0409
13014TIP3   OH260532   3.517   6.127   4.882  0.2229 -0.2125 -0.1460
13014TIP3    H160533   3.585   6.188   4.853 -0.3179  0.0141 -1.0080
13014TIP3    H260534   3.523   6.127   4.977  0.1702  1.2840 -0.1156
13015TIP3   OH260535   6.559   5.606  13.105  0.0986 -0.0653  0.1007
13015TIP3    H160536   6.545   5.513  13.088  2.9329 -0.6021  0.2846
13015TIP3    H260537   6.582   5.610  13.198 -0.0913  0.8373  0.1160
13016TIP3   OH260538   0.575   4.104   0.197 -0.0953  0.2774 -0.9117
13016TIP3    H160539   0.584   4.073   0.287  1.1051 -2.0617 -1.7259
13016TIP3    H260540   0.495   4.155   0.196  0.5701  1.5547  1.7537
13017TIP3   OH260541   0.445   0.848   5.822  0.1502 -0.0164  0.2312
13017TIP3    H160542   0.435   0.871   5.730 -0.4513  1.5193  0.6566
13017TIP3    H260543   0.459   0.931   5.867 -0.4429 -0.6364  1.6398
13018TIP3   OH260544   6.561   6.275   4.867  0.2010 -0.0959  0.2264
13018TIP3    H160545   6.544   6.183   4.887 -0.6107 -0.4272 -1.7335
13018TIP3    H260546   6.488   6.322   4.908 -2.2510 -0.8945 -2.8510
13019TIP3   OH260547   0.545   4.051   1.918 -0.2037 -0.4182  0.3049
13019TIP3    H160548   0.533   4.132   1.969  0.2017  0.2962 -0.7068
13019TIP3    H260549   0.561   3.984   1.984  0.6018  0.5370  1.1196
13020TIP3   OH260550   3.637   1.576   5.242  0.4815 -0.0787 -0.3913
13020TIP3    H160551   3.679   1.506   5.293 -1.1666 -0.2398  0.8516
13020TIP3    H260552   3.548   1.581   5.278 -0.5162  0.3817 -2.7407
13021TIP3   OH260553   3.673   6.660   1.777  0.2005 -0.6803  0.4961
13021TIP3    H160554   3.608   6.590   1.767  1.9331 -2.3612  0.3717
13021TIP3    H260555   3.721   6.659   1.694 -0.0216  0.9993  0.3244
13022TIP3   OH260556   1.744   4.744  11.481 -0.5575 -0.6908 -0.0774
13022TIP3    H160557   1.839   4.735  11.490 -0.5993 -0.7651  0.3219
13022TIP3    H260558   1.728   4.740  11.387 -0.0343  0.5581 -0.2405
13023TIP3   OH260559   5.852   2.428   0.070 -0.9288 -1.2976  0.3002
13023TIP3    H160560   5.914   2.370   0.114 -0.6462  0.4481  2.3738
13023TIP3    H260561   5.893   2.514   0.072 -0.5182 -1.1547 -4.3381
13024TIP3   OH260562   2.806   2.572   5.004  0.4458 -0.1530 -0.1671
13024TIP3    H160563   2.807   2.597   5.096 -2.8755  1.8704 -0.5186
13024TIP3    H260564   2.891   2.602   4.970  1.5792 -0.6015  2.0917
13025TIP3   OH260565   6.657   1.583  15.856 -0.2292  0.1561 -0.0526
13025TIP3    H160566   6.695   1.649  15.798 -1.7714  0.2116 -1.0369
13025TIP3    H260567   6.599   1.532  15.801 -1.3101 -0.1577  1.3142
13026TIP3   OH260568   0.777   3.866   3.902  0.3249  0.0350 -0.3132
13026TIP3    H160569   0.805   3.782   3.866  1.3974  0.5877 -0.8332
13026TIP3    H260570   0.853   3.896   3.952 -0.2309  0.4618  0.2807
13027TIP3   OH260571   5.553   3.009   5.497  0.0548 -0.4756 -0.1616
13027TIP3    H160572   5.637   3.016   5.542  0.0564 -0.4800 -0.1642
13027TIP3    H260573   5.498   2.959   5.558 -0.8863  2.0430  1.1667
13028TIP3   OH260574   1.724   5.162  15.053 -0.3940  0.0786  0.3613
13028TIP3    H160575   1.684   5.107  15.120 -1.0592  0.2065  0.0746
13028TIP3    H260576   1.712   5.252  15.085  0.7919  0.0680  0.8850
13029TIP3   OH260577   1.465   3.179  16.136  0.0646 -0.4514  0.3815
13029TIP3    H160578   1.393   3.134  16.180 -0.7984 -0.0135 -0.5558
13029TIP3    H260579   1.488   3.250  16.195 -1.9671  0.9417 -0.3956
13030TIP3   OH260580   6.612   2.623   5.116  0.2129 -0.1048 -0.3699
13030TIP3    H160581   6.659   2.695   5.159  1.0081 -1.1216  0.5326
13030TIP3    H260582   6.676   2.584   5.057  0.1941 -0.8505  0.0869
13031TIP3   OH260583   2.020   6.704   2.050  0.4561 -0.6438 -0.3336
13031TIP3    H160584   1.959   6.719   1.978 -0.7281  1.4760  1.0121
13031TIP3    H260585   2.093   6.763   2.032  0.3238 -0.3744  0.0070
13032TIP3   OH260586   1.248   5.174  13.837 -0.1586 -0.3866  0.0558
13032TIP3    H160587   1.182   5.192  13.905  0.9209  1.3689  0.7373
13032TIP3    H260588   1.203   5.191  13.755 -0.8289 -0.1027  0.4685
13033TIP3   OH260589   4.333   6.070  13.954  0.2706 -0.4432  0.1950
13033TIP3    H160590   4.255   6.085  14.007  1.0262 -2.1674  1.9173
13033TIP3    H260591   4.395   6.136  13.984 -0.2008  0.3733 -0.5690
13034TIP3   OH260592   1.562   0.412   1.305 -0.3571  0.1553  0.3596
13034TIP3    H160593   1.539   0.349   1.373 -0.6629  1.5770  1.6177
13034TIP3    H260594   1.613   0.479   1.350  1.7554 -0.1848 -1.3423
13035TIP3   OH260595   0.426   6.475   3.552  0.4164 -0.3159 -0.1707
13035TIP3    H160596   0.403   6.523   3.473 -0.2984 -0.2088  0.0966
13035TIP3    H260597   0.372   6.396   3.550 -0.7245  0.3832  0.9195
13036TIP3   OH260598   3.810   5.178  11.745 -0.3180 -0.3254  0.3228
13036TIP3    H160599   3.897   5.143  11.723  0.8832  2.0814  0.9114
13036TIP3    H260600   3.757   5.162  11.667  1.4241  0.4798 -1.1050
13037TIP3   OH260601   1.959   5.792   1.948  0.2658  0.0811  1.1098
13037TIP3    H160602   1.932   5.780   2.040  0.3051 -1.1649  0.9767
13037TIP3    H260603   2.035   5.850   1.953 -0.2641  0.7462  1.7897
13038TIP3   OH260604   1.886   2.582  14.394  0.1525  0.0754  0.3081
13038TIP3    H160605   1.891   2.643  14.467 -2.2580  0.6809  0.0584
13038TIP3    H260606   1.826   2.624  14.332 -0.9982 -2.1818 -0.2089
13039TIP3   OH260607   0.290   3.913  13.278  0.2994  0.4918 -0.2859
13039TIP3    H160608   0.208   3.905  13.228 -0.4168 -1.1163  1.0520
13039TIP3    H260609   0.264   3.957  13.358  0.8301  0.3072 -0.0095
13040TIP3   OH260610   5.374   1.540  12.422 -0.3479 -0.1211 -0.0263
13040TIP3    H160611   5.308   1.471  12.417  0.5275 -0.9949  0.0786
13040TIP3    H260612   5.455   1.498  12.392 -0.1109  1.3176 -1.5383
13041TIP3   OH260613   5.822   5.563  12.213  0.0716  0.0700  0.3105
13041TIP3    H160614   5.860   5.642  12.173  1.4503 -0.2305  0.9699
13041TIP3    H260615   5.895   5.501  12.217 -1.0561 -1.3807 -0.4843
13042TIP3   OH260616   2.601   2.374   4.264  0.0823 -0.7082 -0.0737
13042TIP3    H160617   2.677   2.363   4.207 -0.2809 -4.1405 -0.0901
13042TIP3    H260618   2.575   2.285   4.288 -1.0359  0.4507  3.8401
13043TIP3   OH260619   1.954   2.715  13.918 -0.0046  0.4588  0.4167
13043TIP3    H160620   1.873   2.760  13.890  0.1201 -0.3399 -1.3802
13043TIP3    H260621   2.009   2.716  13.840  0.4184 -1.8672  0.6313
13044TIP3   OH260622   5.684   3.389   0.280 -0.0692  0.0527  0.0187
13044TIP3    H160623   5.763   3.360   0.327  1.0699  0.0871 -1.7852
13044TIP3    H260624   5.648   3.459   0.334 -0.4147 -1.7265  2.2482
13045TIP3   OH260625   0.673   1.146   3.023 -0.4595  0.0558  0.2587
13045TIP3    H160626   0.691   1.177   3.111 -1.4455  0.9849  0.1431
13045TIP3    H260627   0.760   1.137   2.982 -0.0757  1.1149  0.8145
13046TIP3   OH260628   3.855   2.703  15.326 -0.2446 -0.0365  0.2727
13046TIP3    H160629   3.920   2.728  15.261  0.4184  0.3131  1.0531
13046TIP3    H260630   3.884   2.617  15.356 -0.5364 -0.1857  0.1330
13047TIP3   OH260631   5.016   0.636   2.690 -0.0240 -0.0681 -0.1832
13047TIP3    H160632   4.956   0.635   2.764 -0.8436  1.7113 -0.7556
13047TIP3    H260633   5.101   0.610   2.726 -0.4581  0.5331  1.3194
13048TIP3   OH260634   2.943   4.532   3.067 -0.0661 -0.0675 -0.0222
13048TIP3    H160635   3.032   4.507   3.091  0.5832 -0.3683 -2.4687
13048TIP3    H260636   2.903   4.451   3.034 -0.7260  0.3775 -0.3372
13049TIP3   OH260637   1.691   1.135   0.462  0.4763  0.4315 -0.4502
13049TIP3    H160638   1.736   1.189   0.527  0.3910  1.6131 -1.3471
13049TIP3    H260639   1.719   1.170   0.378 -0.6498 -0.0316 -1.0437
13050TIP3   OH260640   4.542   4.179   0.593 -0.0881  0.1475 -0.2943
13050TIP3    H160641   4.629   4.198   0.629 -0.8287  0.1526  1.5793
13050TIP3    H260642   4.484   4.242   0.635 -1.2100 -0.6985 -0.5276
13051TIP3   OH260643   2.493   2.827   4.455  0.5505  0.0168  0.2208
13051TIP3    H160644   2.567   2.867   4.409  0.2176 -0.2381 -0.5531
13051TIP3    H260645   2.455   2.766   4.391  0.7091 -1.1322  1.1793
13052TIP3   OH260646   6.744   0.667   1.590  0.3849  0.1703  0.3294
13052TIP3    H160647   6.765   0.602   1.658 -0.3706  1.1389  1.5450
13052TIP3    H260648   6.715   0.615   1.515 -0.6997 -0.8970  1.4392
13053TIP3   OH260649   6.729   2.852  14.666  0.1348 -0.5513 -0.1347
13053TIP3    H160650   6.813   2.839  14.711  1.0250  1.1568 -1.2005
13053TIP3    H260651   6.737   2.801  14.585 -0.9079 -2.4512  0.8796
13054TIP3   OH260652   4.713   4.881   1.615  0.4216  0.9290  0.2224
13054TIP3    H160653   4.790   4.826   1.630 -0.1260  0.0662 -0.0197
13054TIP3    H260654   4.727   4.919   1.528 -0.2922 -0.7562 -0.6761
13055TIP3   OH260655   5.007   6.560   4.753  0.3419 -0.0662 -0.0291
13055TIP3    H160656   5.090   6.552   4.705  1.7027  1.6890  1.8965
13055TIP3    H260657   5.022   6.513   4.835 -0.7423 -0.0952  0.1661
13056TIP3   OH260658   4.841   5.290  15.610  0.3216  0.4116 -0.7918
13056TIP3    H160659   4.824   5.380  15.582 -0.4478  0.4946 -0.1154
13056TIP3    H260660   4.804   5.235  15.541 -0.1138  0.6186 -0.7275
13057TIP3   OH260661   5.227   5.189   4.008 -0.1479 -0.4338 -0.6171
13057TIP3    H160662   5.266   5.103   3.992 -2.0333 -1.0803 -2.1537
13057TIP3    H260663   5.161   5.175   4.075  1.6268  0.5079  1.4367
13058TIP3   OH260664   6.397   2.797  13.205 -0.6707  0.1241 -0.2247
13058TIP3    H160665   6.399   2.778  13.111  1.2970  0.5499 -0.3082
13058TIP3    H260666   6.362   2.886  13.210 -1.1102 -0.0257 -0.5064
13059TIP3   OH260667   3.576   1.544  11.631  0.4165  0.6528 -0.0471
13059TIP3    H160668   3.540   1.509  11.549  0.0360 -0.3673  0.5328
13059TIP3    H260669   3.523   1.622  11.649 -0.2288  0.2661 -0.2227
13060TIP3   OH260670   5.397   2.279  12.941 -0.5563  0.3875  0.2909
13060TIP3    H160671   5.326   2.249  12.998  0.1183 -1.5265  0.1966
13060TIP3    H260672   5.362   2.271  12.853 -0.4361  0.0093  0.2749
13061TIP3   OH260673   1.069   0.931   6.399 -0.1930  0.1342  0.2060
13061TIP3    H160674   1.077   1.025   6.415  1.3489 -0.0805  0.9949
13061TIP3    H260675   1.059   0.923   6.305 -1.2410  1.1260  0.2177
13062TIP3   OH260676   3.723   6.009   1.157 -0.3285 -0.2289 -0.3774
13062TIP3    H160677   3.684   6.063   1.089  0.3020 -1.8590 -2.1252
13062TIP3    H260678   3.807   6.051   1.176 -0.8382  0.6544 -0.0090
13063TIP3   OH260679   5.325   2.311  12.652  0.2950 -0.3487  0.0368
13063TIP3    H160680   5.403   2.308  12.596 -1.1011 -1.0624 -1.9669
13063TIP3    H260681   5.304   2.404  12.658  1.2286 -0.1511  0.5445
13064TIP3   OH260682   6.147   2.250  16.913 -0.0260  0.7935  0.1395
13064TIP3    H160683   6.065   2.211  16.943 -0.9505  2.7593  0.3183
13064TIP3    H260684   6.203   2.251  16.990  0.4045 -1.0586 -0.1153
13065TIP3   OH260685   4.491   4.215   6.852 -0.0987 -0.2388  0.5348
13065TIP3    H160686   4.400   4.237   6.870  0.2748 -0.6441  3.4203
13065TIP3    H260687   4.489   4.171   6.767 -2.7371 -1.0782  0.9336
13066TIP3   OH260688   0.762   1.157  13.882 -0.3282  0.3053  0.0874
13066TIP3    H160689   0.668   1.142  13.893 -0.5227  0.2963 -1.3094
13066TIP3    H260690   0.767   1.243  13.838  0.3863  0.8745  1.2389
13067TIP3   OH260691   5.363   5.603   6.689 -0.5555  0.0461  0.1506
13067TIP3    H160692   5.399   5.528   6.737  0.9125  0.7735  0.2345
13067TIP3    H260693   5.316   5.653   6.756  0.9805  0.7405  0.7511
13068TIP3   OH260694   1.565   1.108  17.178 -0.5180  0.1942 -0.1375
13068TIP3    H160695   1.483   1.139  17.140 -0.2636  0.1228 -0.7598
13068TIP3    H260696   1.538   1.052  17.250 -1.0264  0.0428 -0.4374
13069TIP3   OH260697   1.981   0.258  14.518 -0.3700 -0.2478  0.3660
13069TIP3    H160698   1.958   0.213  14.436 -1.1151  0.2221  0.3124
13069TIP3    H260699   2.004   0.187  14.578  1.0761 -0.5628 -0.5037
13070TIP3   OH260700   5.640   1.923   4.309 -0.1048 -0.4679 -0.1366
13070TIP3    H160701   5.733   1.927   4.329 -0.3153 -0.0841  0.8257
13070TIP3    H260702   5.617   2.011   4.280 -0.2300 -0.4921 -0.1140
13071TIP3   OH260703   2.296   2.986  15.603  0.3050 -0.3466 -0.6396
13071TIP3    H160704   2.287   2.952  15.691  0.4511 -0.5108 -0.6873
13071TIP3    H260705   2.301   3.081  15.614  0.0513 -0.3507 -0.4942
13072TIP3   OH260706   3.363   6.223  10.943  0.3514  0.1424 -0.0590
13072TIP3    H160707   3.281   6.201  10.899  0.4993 -1.1418  0.2590
13072TIP3    H260708   3.426   6.159  10.909  0.6529 -0.3667  1.3810
13073TIP3   OH260709   4.615   1.388  10.977 -0.2760  0.3319  0.1422
13073TIP3    H160710   4.601   1.437  10.896  1.1049  1.7932  0.7375
13073TIP3    H260711   4.709   1.399  10.995 -0.4731 -0.3341  1.7046
13074TIP3   OH260712   4.509   0.730  11.953  0.2159 -0.7692  0.2967
13074TIP3    H160713   4.511   0.776  11.870 -2.4097  3.0229  2.0260
13074TIP3    H260714   4.506   0.637  11.930  1.7220 -0.0184 -3.6415
13075TIP3   OH260715   6.723   0.187  11.179  0.2541  0.2938  0.1485
13075TIP3    H160716   6.694   0.271  11.214  1.7689  1.4761 -1.2541
13075TIP3    H260717   6.666   0.172  11.103 -0.8421 -0.6256  1.1053
13076TIP3   OH260718   3.878   5.311  11.990  0.1868 -0.3279  0.4405
13076TIP3    H160719   3.836   5.275  11.912  1.3081 -0.2843 -0.2024
13076TIP3    H260720   3.969   5.282  11.984  0.8870  1.7104  0.4310
13077TIP3   OH260721   4.779   1.639   1.486 -0.1010  0.3282  0.2902
13077TIP3    H160722   4.704   1.619   1.542  0.3303  0.7962  1.0521
13077TIP3    H260723   4.749   1.621   1.397 -0.5946 -1.0503  0.7194
13078TIP3   OH260724   1.458   3.886   4.628  0.1783 -0.1167 -0.1307
13078TIP3    H160725   1.509   3.967   4.638 -0.6595  0.4844 -0.5980
13078TIP3    H260726   1.519   3.816   4.650  1.2128  0.5800 -0.7375
13079TIP3   OH260727   0.339   4.363   5.385  0.4069 -0.3258 -0.1641
13079TIP3    H160728   0.357   4.403   5.300  0.3669 -1.5814 -0.7914
13079TIP3    H260729   0.330   4.270   5.366 -1.6390 -0.4005  0.8973
13080TIP3   OH260730   5.601   5.472   1.125  0.3314  0.3862  0.0938
13080TIP3    H160731   5.655   5.518   1.060  2.4318  1.3195  2.3535
13080TIP3    H260732   5.564   5.542   1.179  0.7190 -0.4108  1.4493
13081TIP3   OH260733   1.454   2.069   5.824  0.0925  0.6423 -0.3692
13081TIP3    H160734   1.511   2.097   5.752 -1.4873  0.2572 -1.8469
13081TIP3    H260735   1.500   1.996   5.865  1.3160  1.2781 -0.5623
13082TIP3   OH260736   6.097   0.383   1.128  0.3664 -0.2592  0.0558
13082TIP3    H160737   6.024   0.442   1.112  0.2554 -0.6028 -0.8052
13082TIP3    H260738   6.175   0.433   1.103  0.2861 -0.4180 -0.5226
13083TIP3   OH260739   5.635   5.732  13.588 -0.3321 -0.5716 -0.8062
13083TIP3    H160740   5.688   5.748  13.510 -0.9197 -1.1377 -1.3190
13083TIP3    H260741   5.665   5.646  13.620  1.3468  0.5077  0.7710
13084TIP3   OH260742   4.171   1.216  17.247  0.1430 -0.7185  0.0208
13084TIP3    H160743   4.105   1.268  17.292 -0.0677 -0.9889  0.0244
13084TIP3    H260744   4.140   1.125  17.255 -0.0422 -0.7463 -0.9231
13085TIP3   OH260745   2.172   3.256   4.435 -0.1458 -0.1786  0.0336
13085TIP3    H160746   2.234   3.252   4.362  0.7590 -0.0330  0.7837
13085TIP3    H260747   2.094   3.298   4.398 -0.9027 -2.8528 -1.6902
13086TIP3   OH260748   2.774   6.591   2.232  0.2566  0.3928  0.4352
13086TIP3    H160749   2.685   6.561   2.215 -0.3562  1.3709  1.7285
13086TIP3    H260750   2.764   6.657   2.301  1.9176  0.9725  0.1608
13087TIP3   OH260751   6.267   0.363  16.811  0.6084  0.3292 -0.5998
13087TIP3    H160752   6.189   0.336  16.860  1.1254 -0.8409 -0.4000
13087TIP3    H260753   6.286   0.290  16.753  1.2835  0.8064 -0.9970
13088TIP3   OH260754   5.334   0.851  11.764 -0.2057 -0.2281  0.0148
13088TIP3    H160755   5.415   0.865  11.813  0.1780  0.6493 -0.8144
13088TIP3    H260756   5.293   0.776  11.806  1.2698 -1.0005  0.1675
13089TIP3   OH260757   4.688   1.749   0.975  0.1746  0.1989  0.1684
13089TIP3    H160758   4.704   1.777   0.885 -0.9691 -0.8654 -0.4032
13089TIP3    H260759   4.706   1.655   0.974  2.3752  0.5489  1.6399
13090TIP3   OH260760   4.885   4.828   2.367 -0.3943 -0.5006  0.4353
13090TIP3    H160761   4.867   4.754   2.425  2.7946 -1.6029  0.2202
13090TIP3    H260762   4.981   4.829   2.358 -0.5006  2.0074 -1.7432
13091TIP3   OH260763   4.813   2.200   1.213 -0.2861  0.2898 -0.0368
13091TIP3    H160764   4.860   2.283   1.211  1.0241 -0.4406 -0.2486
13091TIP3    H260765   4.881   2.133   1.209 -1.2597 -0.8149  0.9989
13092TIP3   OH260766   4.403   2.997  11.779  0.3102  0.1738  0.0483
13092TIP3    H160767   4.432   2.978  11.689 -0.9167 -0.1579 -0.2990
13092TIP3    H260768   4.466   2.952  11.835  0.4470 -0.5537 -0.6749
13093TIP3   OH260769   1.679   2.258  12.510 -0.3683 -0.2769  0.7207
13093TIP3    H160770   1.754   2.292  12.557 -0.5717  0.6208  0.4118
13093TIP3    H260771   1.664   2.171  12.547 -0.5183  0.3904  2.2939
13094TIP3   OH260772   1.151   5.199  17.353  0.0096  1.2278 -0.7862
13094TIP3    H160773   1.097   5.151  17.290 -0.0629 -1.6454  1.2232
13094TIP3    H260774   1.224   5.139  17.373 -1.2521  0.7495  3.5426
13095TIP3   OH260775   5.524   1.844   1.953  0.0991 -0.5213  0.4922
13095TIP3    H160776   5.570   1.921   1.987 -0.2458  0.1935 -0.6241
13095TIP3    H260777   5.437   1.876   1.931  0.4997 -0.7886 -1.6461
13096TIP3   OH260778   2.827   0.886   1.847  0.0494 -0.4700  0.3566
13096TIP3    H160779   2.873   0.870   1.764 -1.5126 -1.6260 -0.3397
13096TIP3    H260780   2.817   0.981   1.851  1.9565 -0.2383  0.2536
13097TIP3   OH260781   5.236   4.019  16.914  0.0008 -0.1588 -0.1215
13097TIP3    H160782   5.164   4.060  16.867  0.0325 -0.6304 -0.5880
13097TIP3    H260783   5.205   3.930  16.934  0.3596 -0.2866 -0.1193
13098TIP3   OH260784   5.854   0.825  15.272 -0.2070 -0.0667  0.3670
13098TIP3    H160785   5.876   0.863  15.357  0.8097  0.8754 -0.3028
13098TIP3    H260786   5.761   0.802  15.280 -0.3044  0.6518  1.4918
13099TIP3   OH260787   0.057   3.053  16.353  0.2193  0.2688 -0.1068
13099TIP3    H160788  -0.035   3.027  16.364 -0.2372  2.2807  1.3690
13099TIP3    H260789   0.053   3.139  16.311  1.5728 -0.6071 -2.1920
13100TIP3   OH260790   3.184   4.954   1.520  0.1882  0.2520  0.3601
13100TIP3    H160791   3.138   4.972   1.439 -0.0303 -0.9328  0.2075
13100TIP3    H260792   3.186   4.859   1.527  2.4961  0.2296  0.4118
13101TIP3   OH260793   0.060   1.241  15.527 -0.1816 -0.6968  0.0357
13101TIP3    H160794   0.112   1.313  15.491  1.2223 -1.8491 -0.3639
13101TIP3    H260795   0.085   1.238  15.619 -0.4209 -0.5234  0.1063
13102TIP3   OH260796   3.236   1.701   1.832  0.0138  0.2747 -0.4892
13102TIP3    H160797   3.163   1.689   1.771 -0.1745  0.2429 -0.2565
13102TIP3    H260798   3.230   1.792   1.860 -1.7728 -0.4596  1.8579
13103TIP3   OH260799   5.208   4.843  14.621  1.0661 -1.0769 -0.2702
13103TIP3    H160800   5.181   4.761  14.581  0.5775 -1.4820  0.8493
13103TIP3    H260801   5.233   4.899  14.548 -1.0084 -1.3471 -1.2461
13104TIP3   OH260802   4.275   3.271   1.306 -0.8177 -0.1622 -0.1317
13104TIP3    H160803   4.352   3.324   1.285 -2.2656  1.5216 -1.5355
13104TIP3    H260804   4.269   3.273   1.401  1.6733 -1.6028  0.1364
13105TIP3   OH260805   5.923   4.702  16.165 -0.1431 -0.3477 -0.1988
13105TIP3    H160806   5.888   4.777  16.117  0.0180 -1.7548 -2.7021
13105TIP3    H260807   5.909   4.724  16.257 -0.6163  2.4653 -0.8358
13106TIP3   OH260808   4.271   4.972   2.578  0.4004  0.6201 -0.0822
13106TIP3    H160809   4.248   5.004   2.491 -0.8887  1.6558  0.5994
13106TIP3    H260810   4.224   4.889   2.585  0.7750  0.3684 -0.4831
13107TIP3   OH260811   2.061   5.040   1.084  0.3938  0.2255  0.7311
13107TIP3    H160812   2.109   5.048   1.001 -0.1876 -0.1339  0.3592
13107TIP3    H260813   2.072   4.949   1.110  0.5801  0.3381  1.0592
13108TIP3   OH260814   5.557   2.223   2.414  0.3493  0.2785 -0.1281
13108TIP3    H160815   5.630   2.178   2.372  0.7487  0.2132  0.6153
13108TIP3    H260816   5.582   2.316   2.412  0.7530  0.1923  0.6908
13109TIP3   OH260817   0.582   0.775  11.173 -0.3063 -0.1181 -0.6100
13109TIP3    H160818   0.675   0.790  11.191 -0.3270 -0.1935 -0.4417
13109TIP3    H260819   0.581   0.728  11.090 -0.2735  1.6697 -1.6809
13110TIP3   OH260820   6.693   5.408  14.706 -0.5668  0.0098  0.2956
13110TIP3    H160821   6.639   5.432  14.781  1.7446 -0.0010  2.0386
13110TIP3    H260822   6.691   5.485  14.649 -1.1039  0.6035  1.1060
13111TIP3   OH260823   3.726   2.269   5.265 -0.4064  0.4002 -0.0792
13111TIP3    H160824   3.639   2.243   5.294 -0.2657 -0.9037 -0.7513
13111TIP3    H260825   3.782   2.193   5.286  0.3895  0.8711 -0.4460
13112TIP3   OH260826   5.367   5.027   2.907 -0.3355 -0.5738  0.4766
13112TIP3    H160827   5.375   5.043   3.002 -1.4381  0.3897  0.4317
13112TIP3    H260828   5.387   4.934   2.897  0.8987 -0.4495  1.5095
13113TIP3   OH260829   4.939   3.234  13.018 -0.0019 -0.2946 -0.5022
13113TIP3    H160830   4.937   3.140  13.003 -0.1872 -0.3203 -0.3244
13113TIP3    H260831   4.963   3.272  12.934 -0.8801 -0.4433 -0.8281
13114TIP3   OH260832   0.121   3.432  15.435  0.3956  0.1953  0.4990
13114TIP3    H160833   0.043   3.388  15.401 -0.1172  1.2619  0.2222
13114TIP3    H260834   0.094   3.524  15.443  2.0926  0.9092 -1.1339
13115TIP3   OH260835   2.397   5.181  15.994 -0.1325 -0.0098 -0.0706
13115TIP3    H160836   2.334   5.124  16.039  0.6361 -0.3269  0.6404
13115TIP3    H260837   2.482   5.150  16.024  0.4117 -0.1022 -1.6325
13116TIP3   OH260838   1.162   6.100  12.891  0.2898  0.6933  0.1254
13116TIP3    H160839   1.152   6.010  12.921  0.3804 -0.1780 -2.3174
13116TIP3    H260840   1.072   6.134  12.889  0.1992  0.4862  0.4610
13117TIP3   OH260841   3.646   2.661   1.737 -0.6029 -0.1936 -0.5143
13117TIP3    H160842   3.656   2.745   1.783 -3.2850 -0.1949  0.2175
13117TIP3    H260843   3.715   2.606   1.773  0.5576  1.3566 -0.2469
13118TIP3   OH260844   1.914   1.252  16.406 -0.5848  0.9254  0.2060
13118TIP3    H160845   1.934   1.166  16.370  0.4640  0.8020  1.0261
13118TIP3    H260846   1.869   1.298  16.335  0.9961  0.5500 -1.0999
13119TIP3   OH260847   0.337   4.707   2.011  0.1573  0.3168 -0.2571
13119TIP3    H160848   0.322   4.775   1.945 -0.6202  1.0248  0.6050
13119TIP3    H260849   0.351   4.756   2.093 -1.2951 -0.5285  0.5546
13120TIP3   OH260850   0.186   3.536   2.210 -0.2371 -0.4631 -0.4647
13120TIP3    H160851   0.094   3.555   2.226 -0.2709 -1.2631  0.3930
13120TIP3    H260852   0.187   3.445   2.181  0.3951 -0.9616  1.0165
13121TIP3   OH260853   6.297   0.762  11.736 -0.1975  0.0616 -0.2623
13121TIP3    H160854   6.280   0.787  11.827 -0.6541 -0.1172 -0.3013
13121TIP3    H260855   6.371   0.702  11.741  1.2984  1.8229 -0.2050
13122TIP3   OH260856   2.319   0.335   2.262  0.0041  0.3273 -0.2583
13122TIP3    H160857   2.240   0.384   2.285  0.0798  0.0804  0.5391
13122TIP3    H260858   2.374   0.398   2.217  0.3981  1.1867  1.3752
13123TIP3   OH260859   2.025   4.215  14.162 -0.3259 -0.4018  0.5932
13123TIP3    H160860   1.972   4.197  14.240 -0.5546  1.1965  0.8454
13123TIP3    H260861   1.981   4.290  14.121  0.7566 -0.1555 -0.1437
13124TIP3   OH260862   4.789   1.857  15.674 -0.0584  0.1796 -0.7211
13124TIP3    H160863   4.816   1.849  15.583  1.2785  1.6018 -0.4828
13124TIP3    H260864   4.816   1.774  15.714 -1.4498 -0.8206 -1.7665
13125TIP3   OH260865   1.351   5.232  16.203  0.7260 -0.2897  0.2268
13125TIP3    H160866   1.362   5.325  16.183 -0.4427 -0.6861 -2.8398
13125TIP3    H260867   1.410   5.188  16.142  0.8457 -1.6208  1.2685
13126TIP3   OH260868   6.725   2.430  14.934 -0.6157  0.4725 -0.1858
13126TIP3    H160869   6.753   2.514  14.969  0.1674  0.4161 -0.6666
13126TIP3    H260870   6.663   2.453  14.864  0.2301  0.6815 -0.8764
13127TIP3   OH260871   1.282   6.704   3.192  0.0640 -0.5941 -0.2317
13127TIP3    H160872   1.203   6.653   3.170  0.3852 -0.4405 -1.8279
13127TIP3    H260873   1.257   6.795   3.178  0.0331 -0.4042  0.9207
13128TIP3   OH260874   3.497   1.342  13.169  0.0522  0.0142 -0.6902
13128TIP3    H160875   3.404   1.322  13.160 -0.0754  0.7632 -1.1174
13128TIP3    H260876   3.501   1.437  13.178  0.6003 -0.1900  1.9543
13129TIP3   OH260877   2.097   3.954  13.199  0.0065 -0.0729 -0.0141
13129TIP3    H160878   2.162   3.931  13.133 -0.4146 -2.4033  0.2965
13129TIP3    H260879   2.135   4.029  13.244  1.5769 -0.1597 -1.0846
13130TIP3   OH260880   2.266   5.662   6.010 -0.0099 -0.1919 -0.1617
13130TIP3    H160881   2.319   5.682   6.087 -0.3385 -0.0274  0.0214
13130TIP3    H260882   2.222   5.744   5.989  0.0166 -0.2580 -0.4775
13131TIP3   OH260883   5.556   4.889   0.997  0.1434  0.1578 -0.0482
13131TIP3    H160884   5.563   4.869   1.090 -1.2967 -0.4564 -0.0332
13131TIP3    H260885   5.487   4.956   0.992  0.8706  0.8844 -0.6059
13132TIP3   OH260886   0.774   3.340   4.180  0.3583 -0.1372 -0.0812
13132TIP3    H160887   0.821   3.423   4.176  2.4248 -1.1467  1.6160
13132TIP3    H260888   0.778   3.306   4.090  0.4942  1.0392 -0.5361
13133TIP3   OH260889   4.709   3.847   1.559 -0.4984 -0.1379 -0.1469
13133TIP3    H160890   4.762   3.885   1.630  1.0724  0.7674 -1.7269
13133TIP3    H260891   4.627   3.823   1.601  0.0515  1.1590  1.8161
13134TIP3   OH260892   2.460   3.994   4.727 -0.3860  0.1655  0.1573
13134TIP3    H160893   2.397   4.045   4.779  0.1514  1.2111 -0.1927
13134TIP3    H260894   2.410   3.966   4.650 -0.2239  1.7582 -0.5742
13135TIP3   OH260895   1.893   1.418  15.634  0.7964  0.0057 -0.2631
13135TIP3    H160896   1.902   1.463  15.550 -4.8911 -1.3213 -1.9550
13135TIP3    H260897   1.831   1.472  15.684  0.9423 -1.3345  1.4721
13136TIP3   OH260898   2.209   2.550  14.529 -0.1768  0.3580 -0.0418
13136TIP3    H160899   2.278   2.488  14.552  0.5102  1.1857  0.1835
13136TIP3    H260900   2.128   2.503  14.548  0.3023 -0.7364 -0.5762
13137TIP3   OH260901   0.017   0.501  14.659  0.4715 -0.4056 -0.3552
13137TIP3    H160902   0.041   0.503  14.751 -0.7675 -1.3440  0.0024
13137TIP3    H260903   0.075   0.435  14.621 -0.8557 -2.0312  0.3323
13138TIP3   OH260904   0.077   0.017  11.343 -0.4037 -0.4371  0.3674
13138TIP3    H160905   0.051  -0.073  11.324  0.1711 -0.1027 -2.3884
13138TIP3    H260906   0.021   0.071  11.287  0.4480  0.8244  0.6811
13139TIP3   OH260907   0.352   3.899  12.584  0.5000  0.0007  0.0091
13139TIP3    H160908   0.381   3.988  12.599 -1.6306  0.9241 -0.9616
13139TIP3    H260909   0.380   3.879  12.495  0.4858 -0.1091  0.0280
13140TIP3   OH260910   5.947   5.961   2.498 -0.0677 -0.4803 -0.5877
13140TIP3    H160911   5.959   5.873   2.463  1.4453  0.0345 -1.4836
13140TIP3    H260912   6.034   6.000   2.495 -0.0726  0.0607  2.6345
13141TIP3   OH260913   3.971   0.484   0.488 -0.5765  0.0785 -0.3328
13141TIP3    H160914   4.023   0.493   0.567 -0.7536  0.5822 -0.2658
13141TIP3    H260915   4.031   0.447   0.423  0.6029  2.7865 -0.9432
13142TIP3   OH260916   6.627   5.753  16.190 -0.0433 -0.1470  0.2738
13142TIP3    H160917   6.600   5.679  16.245  0.6310  0.1096  0.9702
13142TIP3    H260918   6.659   5.712  16.110  2.0867 -0.7907  1.3547
13143TIP3   OH260919   0.959   3.565   4.217 -0.0311 -0.2405  0.1316
13143TIP3    H160920   0.972   3.659   4.211  0.5917 -0.3699 -0.7476
13143TIP3    H260921   1.045   3.530   4.240 -0.2063 -0.6120  0.2294
13144TIP3   OH260922   4.264   3.211   1.980  0.4961  0.6038  0.1766
13144TIP3    H160923   4.270   3.243   1.890  2.1062  0.7994  0.3197
13144TIP3    H260924   4.271   3.290   2.034  2.1373  0.2905  0.4870
13145TIP3   OH260925   0.904   6.538  14.645  0.2122 -0.1362 -0.1615
13145TIP3    H160926   0.946   6.610  14.693 -1.1773  0.6494 -0.0546
13145TIP3    H260927   0.937   6.546  14.556  1.6473 -0.6628  0.2966
13146TIP3   OH260928   4.411   2.713   4.540  0.2140 -0.2637 -0.0194
13146TIP3    H160929   4.391   2.795   4.585 -0.6986 -1.0854  1.1152
13146TIP3    H260930   4.414   2.647   4.609  1.5534 -1.1116 -0.8279
13147TIP3   OH260931   6.100   2.111   6.223  0.0800 -0.0660  0.6076
13147TIP3    H160932   6.118   2.202   6.245  1.7127 -0.2698  0.1596
13147TIP3    H260933   6.014   2.113   6.181  0.9549  1.5426 -1.2214
13148TIP3   OH260934   6.749   4.188  13.813  0.4360 -0.6010 -0.3008
13148TIP3    H160935   6.719   4.148  13.731 -0.1722  1.4091 -1.1107
13148TIP3    H260936   6.826   4.239  13.788 -0.5017  1.0737  0.0751
13149TIP3   OH260937   6.269   4.703   2.536  0.6644  0.0389 -0.1213
13149TIP3    H160938   6.273   4.714   2.631 -0.9434  0.1616 -0.0436
13149TIP3    H260939   6.278   4.609   2.522 -0.9982 -0.2149  0.3146
13150TIP3   OH260940   6.019   3.155  10.780 -0.0449 -0.5571 -0.1615
13150TIP3    H160941   6.113   3.161  10.796 -0.2184 -0.6467  1.0479
13150TIP3    H260942   5.993   3.243  10.755  0.0972 -0.1079  1.1912
13151TIP3   OH260943   3.825   1.102  13.858 -0.0997  0.1607 -0.8163
13151TIP3    H160944   3.874   1.030  13.899 -1.0972  0.2317  0.5697
13151TIP3    H260945   3.777   1.061  13.786 -0.0302 -0.4128 -0.5435
13152TIP3   OH260946   0.825   5.540   6.048  0.3524 -0.3036  0.3204
13152TIP3    H160947   0.800   5.614   5.992 -0.0553 -1.5154 -1.1844
13152TIP3    H260948   0.912   5.563   6.081  0.1781  0.9011  0.0149
13153TIP3   OH260949   4.541   0.873   0.712  0.1858  0.8207 -0.0029
13153TIP3    H160950   4.498   0.921   0.642 -0.4688 -0.5267 -0.5621
13153TIP3    H260951   4.524   0.925   0.791  0.5030  2.0883 -0.7496
13154TIP3   OH260952   5.160   6.035  13.623 -0.5651  0.0726 -0.6428
13154TIP3    H160953   5.115   6.092  13.561  1.4247  0.1076 -2.1559
13154TIP3    H260954   5.251   6.036  13.595  0.8924  1.6008  3.4654
13155TIP3   OH260955   1.634   1.940   0.043  0.3245 -0.5309  0.4444
13155TIP3    H160956   1.695   1.945   0.117  0.9352  0.4732 -0.1139
13155TIP3    H260957   1.687   1.959  -0.034 -0.2414 -1.8569 -0.3213
13156TIP3   OH260958   0.380   5.493  13.334  0.0423  0.3168 -0.7724
13156TIP3    H160959   0.440   5.564  13.358 -0.0226  0.9197 -2.2801
13156TIP3    H260960   0.438   5.419  13.314  0.2147  0.4822 -0.8881
13157TIP3   OH260961   0.364   0.381   2.907  0.2282 -0.8246 -0.2666
13157TIP3    H160962   0.322   0.461   2.938  0.4975 -0.4527 -0.8383
13157TIP3    H260963   0.375   0.395   2.813  0.1232 -1.6048 -0.3972
13158TIP3   OH260964   5.600   2.640   0.709  0.1027 -0.4597 -0.2716
13158TIP3    H160965   5.628   2.718   0.660  0.5390  0.9310  2.0113
13158TIP3    H260966   5.504   2.645   0.709 -0.1236 -2.0849 -3.2562
13159TIP3   OH260967   3.319   0.755   5.518  0.0353 -0.2381  0.2664
13159TIP3    H160968   3.268   0.836   5.513  1.1097  0.4979  0.6685
13159TIP3    H260969   3.330   0.728   5.427 -0.7091 -0.1724  0.1544
13160TIP3   OH260970   6.429   4.518  11.737  0.1732  0.6761 -0.1312
13160TIP3    H160971   6.406   4.452  11.802 -0.8984  1.5243  0.3993
13160TIP3    H260972   6.516   4.494  11.707 -1.0162 -2.2401 -1.6024
13161TIP3   OH260973   4.321   3.775   5.856 -0.2018  0.2889 -0.2119
13161TIP3    H160974   4.287   3.834   5.924  1.4204 -0.9530  1.7908
13161TIP3    H260975   4.416   3.780   5.866  0.0442 -0.6459 -1.8125
13162TIP3   OH260976   4.397   0.319   0.329  0.5888  0.5744  0.0809
13162TIP3    H160977   4.486   0.336   0.298  0.6566  0.8960  0.4409
13162TIP3    H260978   4.387   0.377   0.405  0.7588 -0.8299  1.2182
13163TIP3   OH260979   2.921   0.605  10.687 -0.8007  0.4212 -0.5375
13163TIP3    H160980   2.964   0.563  10.613  1.1354 -0.2504  0.8653
13163TIP3    H260981   2.878   0.682  10.650 -0.5478 -0.3047 -2.4452
13164TIP3   OH260982   6.569   3.003  16.402 -0.2936 -0.1612 -0.1907
13164TIP3    H160983   6.502   2.951  16.358 -1.6091  1.1616  0.1745
13164TIP3    H260984   6.547   3.093  16.381  1.7647  0.2912 -0.5618
13165TIP3   OH260985   3.679   2.721   0.814 -0.1266  0.2597  0.1075
13165TIP3    H160986   3.585   2.713   0.833 -0.4872  0.7789 -1.3242
13165TIP3    H260987   3.697   2.814   0.819  0.8017  0.0373  2.3148
13166TIP3   OH260988   6.192   4.100   5.549  0.0657  0.0021  0.6533
13166TIP3    H160989   6.240   4.155   5.611  1.1257  1.7028 -1.5503
13166TIP3    H260990   6.260   4.062   5.493 -0.8330 -1.8081  0.7359
13167TIP3   OH260991   2.821   4.804  12.143 -0.2530  0.4772 -0.1960
13167TIP3    H160992   2.749   4.812  12.205 -0.7192  0.6215 -0.7504
13167TIP3    H260993   2.846   4.712  12.147 -0.0608  0.5475  0.4378
13168TIP3   OH260994   1.070   4.613  15.575 -0.3684 -0.1933  0.5445
13168TIP3    H160995   1.057   4.602  15.669 -1.1544  1.6820  0.6836
13168TIP3    H260996   1.033   4.698  15.555 -0.2790 -0.5871 -1.4972
13169TIP3   OH260997   6.405   3.447   3.943  0.2885  0.0472 -0.2898
13169TIP3    H160998   6.488   3.406   3.918 -0.3739 -0.6395 -1.4420
13169TIP3    H260999   6.342   3.375   3.948  0.0312  0.3686  1.9657
13170TIP3   OH261000   5.094   0.467  15.436  0.0962  0.2649  0.1684
13170TIP3    H161001   5.120   0.559  15.433  0.9874  0.0014 -1.8178
13170TIP3    H261002   5.047   0.453  15.353 -0.0228 -1.0785  0.4422
13171TIP3   OH261003   4.977   1.414   5.083 -0.6564 -0.7188 -0.0319
13171TIP3    H161004   5.062   1.387   5.117 -0.4695 -1.4979 -1.0673
13171TIP3    H261005   4.978   1.510   5.089  0.5767 -0.6729 -0.6502
13172TIP3   OH261006   5.071   3.653  14.100  0.4953  0.1004 -0.3240
13172TIP3    H161007   5.064   3.577  14.041  0.3823 -0.3602  0.2703
13172TIP3    H261008   5.164   3.673  14.102  0.5053  0.0934 -0.6239
13173TIP3   OH261009   3.409   5.099  14.548  0.4614 -0.9404  0.7410
13173TIP3    H161010   3.464   5.176  14.563 -0.7627  0.0369  0.3490
13173TIP3    H261011   3.379   5.073  14.635  2.0162 -1.8911  1.0420
13174TIP3   OH261012   4.192   1.172   4.693  1.1548  0.1928 -0.1305
13174TIP3    H161013   4.158   1.147   4.779  1.8847  0.2117  0.1717
13174TIP3    H261014   4.248   1.247   4.710  1.2741  0.2199 -0.6276
13175TIP3   OH261015   6.181   3.041   4.184  0.5049  0.2425 -0.0260
13175TIP3    H161016   6.220   2.971   4.132 -0.5019 -0.1432 -0.2752
13175TIP3    H261017   6.175   3.006   4.272  0.8650  0.3702  0.0540
13176TIP3   OH261018   6.373   4.326  11.926  0.2268  0.0051 -0.2456
13176TIP3    H161019   6.346   4.329  12.018  1.2155 -1.0302  0.0953
13176TIP3    H261020   6.304   4.278  11.882 -0.8831  1.5659 -0.3084
13177TIP3   OH261021   6.195   4.933  15.218  0.1405 -0.1113  0.1495
13177TIP3    H161022   6.266   4.993  15.192 -0.7494  0.4779 -0.9976
13177TIP3    H261023   6.214   4.913  15.310  1.6678  0.2075 -0.0633
13178TIP3   OH261024   6.633   3.556  10.780 -0.2838 -0.1139 -0.2965
13178TIP3    H161025   6.707   3.503  10.811 -0.3289 -0.5028 -0.8464
13178TIP3    H261026   6.557   3.519  10.825 -0.2812 -0.3613 -0.4950
13179TIP3   OH261027   3.757   3.074  17.106 -0.0905 -0.3033 -0.0563
13179TIP3    H161028   3.791   2.999  17.153  0.3999  0.5221  0.9584
13179TIP3    H261029   3.726   3.133  17.175 -1.3026  0.0365 -0.8612
13180TIP3   OH261030   1.332   3.276   6.584 -0.1926 -0.3205  0.4518
13180TIP3    H161031   1.378   3.360   6.579  0.7464 -0.7957  0.7182
13180TIP3    H261032   1.393   3.213   6.545  0.2880 -1.3094  2.6159
13181TIP3   OH261033   1.115   1.860   6.583  0.0143  0.0907  0.4650
13181TIP3    H161034   1.029   1.817   6.586 -0.3669  0.6793 -0.9754
13181TIP3    H261035   1.169   1.802   6.529 -0.0005  0.5765 -0.0753
13182TIP3   OH261036   1.415   5.526  17.320 -0.1883 -0.0146 -0.0655
13182TIP3    H161037   1.474   5.455  17.296 -1.5356 -0.8991 -0.8550
13182TIP3    H261038   1.403   5.576  17.240  0.0090  0.5704  0.2620
13183TIP3   OH261039   6.012   0.766  11.363  0.1157  0.2527 -0.2701
13183TIP3    H161040   6.097   0.723  11.350 -1.2872 -2.9544  0.2139
13183TIP3    H261041   5.993   0.755  11.456 -3.1014 -4.1836 -1.1513
13184TIP3   OH261042   0.495   6.580  14.408  0.2774 -0.0952 -0.5535
13184TIP3    H161043   0.434   6.517  14.369  1.4134 -0.3471 -2.0056
13184TIP3    H261044   0.557   6.526  14.457 -0.5659  0.1535  0.8285
13185TIP3   OH261045   2.112   6.158  15.320 -0.5419 -0.1719 -0.1095
13185TIP3    H161046   2.095   6.115  15.236 -0.7266  0.7981 -0.5848
13185TIP3    H261047   2.052   6.232  15.322  1.6647  1.7618 -0.6218
13186TIP3   OH261048   2.922   2.631   1.758 -0.4062 -1.2202  0.1344
13186TIP3    H161049   2.913   2.705   1.698  0.6554  0.6656  2.1650
13186TIP3    H261050   2.855   2.568   1.729 -1.1418  0.3767 -1.8443
13187TIP3   OH261051   5.829   2.892  13.359 -0.2403 -0.3283  0.7988
13187TIP3    H161052   5.877   2.911  13.279  0.1237 -1.2597  0.7887
13187TIP3    H261053   5.882   2.826  13.404 -1.7191 -1.7187  0.5733
13188TIP3   OH261054   5.111   0.599   1.318  0.5644 -0.2303  0.3473
13188TIP3    H161055   5.162   0.642   1.250  0.7910 -0.7550  0.1824
13188TIP3    H261056   5.128   0.651   1.397 -0.0211  0.6209 -0.0704
13189TIP3   OH261057   6.113   6.614   1.861 -0.0218 -0.2134  0.2099
13189TIP3    H161058   6.201   6.576   1.869 -0.5963 -1.5173  0.7059
13189TIP3    H261059   6.112   6.655   1.775  0.6708 -1.2971 -0.3393
13190TIP3   OH261060   6.407   3.666   3.220 -0.7492 -0.5247  0.5174
13190TIP3    H161061   6.376   3.584   3.258  1.7803 -1.9361 -0.2413
13190TIP3    H261062   6.461   3.705   3.288 -0.0031 -0.7083  0.0342
13191TIP3   OH261063   0.049   2.021  13.502  0.3132  0.4214  0.1401
13191TIP3    H161064  -0.045   2.035  13.489  0.6424  0.5840 -2.4884
13191TIP3    H261065   0.054   1.952  13.568 -1.5948  1.3895  1.3786
13192TIP3   OH261066   4.154   1.709  16.226  0.1690 -0.3732  0.2190
13192TIP3    H161067   4.114   1.748  16.303 -3.5205 -2.0669 -0.6029
13192TIP3    H261068   4.137   1.772  16.156  1.1258 -0.0388  0.2773
13193TIP3   OH261069   5.018   1.777  16.553 -0.0720  0.1912  0.2146
13193TIP3    H161070   5.048   1.767  16.463  0.1533  2.6908 -0.0700
13193TIP3    H261071   4.922   1.781  16.545 -0.2376 -2.1211  0.4468
13194TIP3   OH261072   5.527   5.901  14.551 -0.1078 -0.6631 -0.2637
13194TIP3    H161073   5.432   5.891  14.562 -0.1767 -2.1222 -1.7793
13194TIP3    H261074   5.543   5.874  14.461  1.3735  2.4849 -1.1111
13195TIP3   OH261075   6.273   5.899   2.297  0.0758  0.2917  0.0006
13195TIP3    H161076   6.260   5.948   2.379  0.5258  0.0076  0.2421
13195TIP3    H261077   6.344   5.944   2.253 -0.0682  0.3551 -0.1693
13196TIP3   OH261078   2.671   0.936  11.517  0.0684  0.8173 -0.3688
13196TIP3    H161079   2.736   0.880  11.560  0.5525  1.5657 -0.1037
13196TIP3    H261080   2.715   0.968  11.438 -0.9767 -0.9256 -1.7227
13197TIP3   OH261081   0.906   2.220  14.098 -0.4316 -0.5192  0.4595
13197TIP3    H161082   0.874   2.308  14.078 -0.4473 -0.5356  0.4123
13197TIP3    H261083   0.988   2.213  14.049 -0.8079 -0.8039 -0.1276
13198TIP3   OH261084   0.144   3.177   0.170  0.3444  0.8448  0.1523
13198TIP3    H161085   0.169   3.088   0.197 -0.5679  0.9048  1.2651
13198TIP3    H261086   0.164   3.180   0.077  1.3505 -0.1926  0.3074
13199TIP3   OH261087   4.076   5.941  13.179 -0.6805 -0.1613  0.2594
13199TIP3    H161088   4.063   5.892  13.261  0.3808  1.2413  1.3172
13199TIP3    H261089   4.070   5.875  13.110 -1.3471 -1.4266  1.4804
13200TIP3   OH261090   3.359   0.226  17.223 -0.0281 -0.4187 -0.5420
13200TIP3    H161091   3.393   0.267  17.143 -0.6290  2.5946  0.6052
13200TIP3    H261092   3.282   0.278  17.246 -1.6600 -3.0711  0.4331
13201TIP3   OH261093   3.958   1.271  13.638 -0.2336  0.4264 -0.2622
13201TIP3    H161094   3.942   1.258  13.544  0.8295 -3.1855 -0.1208
13201TIP3    H261095   3.890   1.219  13.681  1.0191 -0.4074  0.8043
13202TIP3   OH261096   6.643   5.437   4.726  0.3309 -0.0829  0.0688
13202TIP3    H161097   6.568   5.398   4.770  1.4940  0.2573  2.4727
13202TIP3    H261098   6.694   5.363   4.693  0.0884 -0.3928  0.3933
13203TIP3   OH261099   6.003   1.850  17.124  0.3167  0.1178  0.3043
13203TIP3    H161100   6.049   1.875  17.204 -1.2812  2.3758  0.6199
13203TIP3    H261101   5.917   1.821  17.154  0.6717 -1.8849 -0.4420
13204TIP3   OH261102   1.719   4.176   2.258 -0.2050  0.7735 -0.1730
13204TIP3    H161103   1.669   4.094   2.257 -1.1843  1.3157  1.1424
13204TIP3    H261104   1.704   4.214   2.172 -0.2554 -0.1199 -0.5736
13205TIP3   OH261105   6.571   1.684   0.486 -0.2836 -0.3960 -0.0391
13205TIP3    H161106   6.568   1.596   0.449 -1.7253 -0.3185 -0.1616
13205TIP3    H261107   6.663   1.698   0.508 -0.0670 -2.0110  0.1773
13206TIP3   OH261108   2.243   5.568   0.225  0.0646 -0.0561  0.0594
13206TIP3    H161109   2.148   5.566   0.235  0.2487 -0.8105  1.9591
13206TIP3    H261110   2.264   5.483   0.187  0.1968 -1.1693  2.4407
13207TIP3   OH261111   0.774   2.986   2.783  0.4618 -0.6320 -0.1814
13207TIP3    H161112   0.811   2.960   2.868  0.0197 -0.3486  0.1008
13207TIP3    H261113   0.774   3.081   2.786 -0.3771 -0.6254 -0.1351
13208TIP3   OH261114   4.618   0.362  16.155 -0.8631 -0.1042 -0.0264
13208TIP3    H161115   4.692   0.420  16.177  0.9433 -2.2365 -0.1716
13208TIP3    H261116   4.558   0.418  16.106 -0.6327  2.4075  2.3097
13209TIP3   OH261117   3.005   0.738  13.632  0.1391 -0.0419  0.2059
13209TIP3    H161118   2.915   0.713  13.611  0.8985 -1.2205 -1.9813
13209TIP3    H261119   3.000   0.770  13.722 -2.4966  0.2063  0.0645
13210TIP3   OH261120   0.750   5.943  14.852  0.2355 -0.6940  0.2055
13210TIP3    H161121   0.755   5.864  14.798 -1.2273 -1.0166  0.5050
13210TIP3    H261122   0.663   5.980  14.834  1.2678  1.4460 -0.7099
13211TIP3   OH261123   4.394   3.076   5.264  0.4525 -0.0100 -0.7559
13211TIP3    H161124   4.467   3.118   5.311  0.4419 -0.0883 -0.6697
13211TIP3    H261125   4.380   2.993   5.310 -0.9723  0.8520  0.4477
13212TIP3   OH261126   2.490   1.788  17.250 -0.5670 -0.0735  0.7838
13212TIP3    H161127   2.413   1.840  17.227  0.0070  1.1862  1.5878
13212TIP3    H261128   2.460   1.697  17.243 -2.3664  0.3831  1.8197
13213TIP3   OH261129   6.151   5.713   3.058  0.7391 -0.3344  0.1287
13213TIP3    H161130   6.063   5.726   3.022  1.3084  1.9730 -0.5800
13213TIP3    H261131   6.190   5.646   3.002  0.4968  0.8996 -1.5725
13214TIP3   OH261132   5.479   1.843  16.484 -0.2721 -0.0811  0.0548
13214TIP3    H161133   5.484   1.763  16.537 -0.4695 -0.3770 -0.3681
13214TIP3    H261134   5.451   1.911  16.545 -3.5181 -1.0021 -0.2158
13215TIP3   OH261135   3.632   3.282   2.277  0.5708  0.1354 -0.2234
13215TIP3    H161136   3.713   3.254   2.319  0.8591  0.1637 -0.7464
13215TIP3    H261137   3.636   3.378   2.278 -1.2984  0.3115  3.2796
13216TIP3   OH261138   4.263   4.519   4.733 -0.3667  0.1112 -1.0011
13216TIP3    H161139   4.204   4.445   4.719  0.3437 -0.4897 -0.8694
13216TIP3    H261140   4.350   4.480   4.737 -0.2092  0.5625  1.9701
13217TIP3   OH261141   1.409   2.019  16.421 -0.1962 -0.6972  0.0779
13217TIP3    H161142   1.405   1.975  16.336 -0.4215 -1.7189  0.5935
13217TIP3    H261143   1.457   1.957  16.477 -1.2038 -0.6318  1.0388
13218TIP3   OH261144   0.055   2.950   5.455 -0.4600 -0.5362  0.1588
13218TIP3    H161145   0.036   3.021   5.393 -2.7397 -1.4515 -0.2832
13218TIP3    H261146   0.003   2.972   5.533 -2.1129 -2.2120 -0.3950
13219TIP3   OH261147   6.696   6.690   4.577  0.1920 -0.5399  0.5609
13219TIP3    H161148   6.655   6.751   4.515  0.7352 -2.2526 -1.6068
13219TIP3    H261149   6.790   6.708   4.569  0.2008  0.5019  2.3828
13220TIP3   OH261150   4.688   6.193   2.945 -0.6140 -0.1335  0.0944
13220TIP3    H161151   4.777   6.225   2.931 -0.3291 -1.6702 -2.1722
13220TIP3    H261152   4.634   6.247   2.887 -0.6739 -1.1942 -0.8683
13221TIP3   OH261153   0.614   5.384  11.632 -0.0497  0.1360 -0.5269
13221TIP3    H161154   0.571   5.461  11.672  2.3929  1.5044 -0.3289
13221TIP3    H261155   0.553   5.355  11.565 -1.6704  1.4024  0.3058
13222TIP3   OH261156   5.323   1.710   1.706 -0.4061 -0.4440  0.1613
13222TIP3    H161157   5.247   1.659   1.734 -0.6049 -0.0893  0.2839
13222TIP3    H261158   5.323   1.786   1.764  1.0901 -1.3071  1.3746
13223TIP3   OH261159   2.433   3.004   1.352  0.3209  0.1854 -0.2259
13223TIP3    H161160   2.382   3.082   1.371  1.7001  1.5534 -1.8680
13223TIP3    H261161   2.522   3.025   1.381  0.3099 -1.7148  1.4910
13224TIP3   OH261162   0.888   3.339   2.493 -0.3183 -0.0347  0.0273
13224TIP3    H161163   0.922   3.258   2.455 -2.0794 -1.0471  0.4870
13224TIP3    H261164   0.896   3.326   2.587 -0.3887  0.4358  0.0998
13225TIP3   OH261165   3.700   1.269   5.704  0.2411  0.0640 -0.1591
13225TIP3    H161166   3.655   1.249   5.786  1.2205  1.0900  0.6639
13225TIP3    H261167   3.788   1.231   5.715  0.2901 -0.0513 -0.8685
13226TIP3   OH261168   5.717   0.915   1.562 -0.1146  0.4550  0.4131
13226TIP3    H161169   5.719   0.972   1.638  2.9752  2.3196 -0.8826
13226TIP3    H261170   5.738   0.972   1.488  1.4803 -1.9918 -1.1989
13227TIP3   OH261171   3.199   5.466   1.789  0.4538  0.3329 -0.0145
13227TIP3    H161172   3.180   5.495   1.878 -0.2780 -1.2232  0.3588
13227TIP3    H261173   3.145   5.523   1.734 -0.3597  0.2312  0.6526
13228TIP3   OH261174   5.276   1.874   0.288  0.0563  0.2307  0.1680
13228TIP3    H161175   5.198   1.919   0.320 -0.2624 -0.3169  0.1779
13228TIP3    H261176   5.291   1.803   0.350 -0.7311 -1.0111 -0.9931
13229TIP3   OH261177   2.869   0.319  11.551 -0.4391 -0.1936  0.0344
13229TIP3    H161178   2.823   0.267  11.484 -1.4622  0.7130  0.0133
13229TIP3    H261179   2.958   0.285  11.550 -1.2186 -2.4291  0.5003
13230TIP3   OH261180   5.389   3.650   2.081  0.0273  0.2157  0.0613
13230TIP3    H161181   5.411   3.607   2.163  1.3401 -0.3397 -0.5525
13230TIP3    H261182   5.341   3.585   2.031  0.4823  0.0477 -0.1674
13231TIP3   OH261183   6.511   0.673  17.370 -0.5756 -0.1505 -0.0855
13231TIP3    H161184   6.529   0.759  17.331 -1.2780 -0.1769 -0.4756
13231TIP3    H261185   6.428   0.646  17.332 -1.6593  0.1373  1.9619
13232TIP3   OH261186   3.962   6.014   5.418  0.2630  0.4990  0.2861
13232TIP3    H161187   3.961   6.101   5.458 -1.1884  0.8733 -0.4941
13232TIP3    H261188   3.893   6.017   5.352  1.3532 -0.6974 -0.9747
13233TIP3   OH261189   3.177   5.674  16.356 -0.3399  0.0970 -0.3044
13233TIP3    H161190   3.142   5.750  16.403 -0.9229 -0.0416 -0.5060
13233TIP3    H261191   3.203   5.613  16.425  1.2670  0.9476 -0.0958
13234TIP3   OH261192   3.308   0.696   3.659 -0.1442 -0.0551 -0.2966
13234TIP3    H161193   3.272   0.745   3.733 -1.0615  0.7395 -1.2413
13234TIP3    H261194   3.356   0.761   3.608  0.2806 -0.5464 -0.5342
13235TIP3   OH261195   3.723   5.940  12.549 -0.6984 -0.3792  0.2821
13235TIP3    H161196   3.750   5.886  12.474  0.0491  1.0204 -0.4840
13235TIP3    H261197   3.794   5.929  12.613 -0.0660  0.4255 -0.2620
13236TIP3   OH261198   3.747   5.752  14.358 -0.3457 -0.1096 -0.2867
13236TIP3    H161199   3.829   5.772  14.312  0.7567 -1.8542  0.8019
13236TIP3    H261200   3.741   5.817  14.427  0.3972 -0.2648 -0.0681
13237TIP3   OH261201   5.080   5.807  11.563  0.0386 -0.1010  0.6447
13237TIP3    H161202   5.175   5.796  11.574  0.4362  3.2506  1.8185
13237TIP3    H261203   5.044   5.787  11.649  0.0650  1.3126  1.0075
13238TIP3   OH261204   2.808   1.870   3.427  0.1534 -0.0036 -0.5396
13238TIP3    H161205   2.837   1.957   3.399 -0.4515  0.1385 -0.7518
13238TIP3    H261206   2.760   1.835   3.352  0.4024 -0.5271 -0.4581
13239TIP3   OH261207   4.062   4.019   6.428  0.3790  0.3408 -0.2018
13239TIP3    H161208   4.019   4.066   6.357  0.6407 -0.8372 -1.1811
13239TIP3    H261209   4.054   3.927   6.404  2.6967  0.0181 -0.0406
13240TIP3   OH261210   5.789   3.408  13.345  0.5157  0.5053 -0.5112
13240TIP3    H161211   5.813   3.470  13.413 -1.2356  1.0173 -0.3082
13240TIP3    H261212   5.795   3.457  13.263  0.3954  0.5648 -0.4841
13241TIP3   OH261213   2.995   3.155  12.748  0.1307  0.5049 -0.6595
13241TIP3    H161214   2.941   3.136  12.671 -0.4582 -0.8529  0.0634
13241TIP3    H261215   2.951   3.230  12.789 -1.1111 -0.4526 -0.1919
13242TIP3   OH261216   2.179   0.725   2.015 -0.3415  0.0051 -0.0708
13242TIP3    H161217   2.247   0.663   2.040  0.6066  0.2840 -1.8060
13242TIP3    H261218   2.216   0.774   1.942 -1.3417  2.1496  0.7710
13243TIP3   OH261219   1.169   4.381  17.056  0.1848  0.6815 -0.2179
13243TIP3    H161220   1.101   4.357  16.993 -0.4751 -0.7744  1.0033
13243TIP3    H261221   1.193   4.299  17.098  2.3081  1.2543 -0.1953
13244TIP3   OH261222   0.887   5.992   3.112 -0.4916 -0.7542  0.0586
13244TIP3    H161223   0.887   6.029   3.200  0.5335 -1.6172  0.4456
13244TIP3    H261224   0.795   5.975   3.092 -0.7159 -0.6831  1.0056
13245TIP3   OH261225   0.314   0.611   2.385 -0.1692  0.4984  0.0639
13245TIP3    H161226   0.356   0.681   2.435 -0.3907  1.8833 -1.6304
13245TIP3    H261227   0.361   0.609   2.302 -0.5462 -1.0095 -0.1448
13246TIP3   OH261228   6.335   2.246  17.149  0.2555  0.2052  0.3838
13246TIP3    H161229   6.394   2.321  17.153 -1.5441  1.6662  1.0505
13246TIP3    H261230   6.334   2.212  17.239  0.5787 -0.2649  0.2191
13247TIP3   OH261231   0.449   3.852  12.314 -0.0922 -0.2321  0.1167
13247TIP3    H161232   0.535   3.878  12.347  1.0798 -0.5738 -2.4251
13247TIP3    H261233   0.448   3.757  12.323 -0.3777 -0.1952  0.4915
13248TIP3   OH261234   4.154   1.669   3.481 -0.2607 -0.0158  0.2293
13248TIP3    H161235   4.103   1.617   3.544 -2.1940  1.2815 -0.1627
13248TIP3    H261236   4.125   1.759   3.496  1.2816  0.6641 -0.6759
13249TIP3   OH261237   6.507   3.976   0.316 -0.4970  0.3898  0.2709
13249TIP3    H161238   6.539   3.894   0.353 -0.7657 -0.6732 -1.7351
13249TIP3    H261239   6.576   4.040   0.337  0.2521 -0.5842  0.8688
13250TIP3   OH261240   1.613   3.141  13.847 -0.0784 -0.0723 -0.6848
13250TIP3    H161241   1.628   3.233  13.825  0.0710 -0.1353 -0.8510
13250TIP3    H261242   1.634   3.094  13.766 -0.2247 -0.2461 -0.6215
13251TIP3   OH261243   6.451   6.087   0.091  0.3526  0.3127  0.0349
13251TIP3    H161244   6.438   6.182   0.102 -0.2253  0.3761 -1.1204
13251TIP3    H261245   6.365   6.049   0.106 -0.3193  0.3295 -3.1652
13252TIP3   OH261246   2.915   3.546  15.462  0.0859  0.2370  0.0737
13252TIP3    H161247   2.899   3.494  15.541 -0.8170  1.2956  0.6153
13252TIP3    H261248   2.849   3.516  15.399  1.1550 -0.9992 -0.5175
13253TIP3   OH261249   4.799   2.692  12.797 -0.4675  0.2540 -0.5616
13253TIP3    H161250   4.791   2.682  12.891 -0.9664  1.7929 -0.4079
13253TIP3    H261251   4.894   2.695  12.782 -0.3541  1.8608  0.1692
13254TIP3   OH261252   4.419   1.362   6.391 -0.6968  0.2335 -0.2991
13254TIP3    H161253   4.364   1.292   6.356  0.5147 -1.0628  0.3088
13254TIP3    H261254   4.360   1.413   6.447 -1.4385 -0.7128 -0.1985
13255TIP3   OH261255   3.214   4.149  17.106 -0.1588 -0.0221  0.0147
13255TIP3    H161256   3.223   4.241  17.079  0.8028  0.1699  0.9424
13255TIP3    H261257   3.291   4.105  17.072 -1.3639 -0.8690 -1.7812
13256TIP3   OH261258   3.009   1.980  11.420  0.6182  0.2185 -0.2968
13256TIP3    H161259   2.992   1.952  11.510 -1.3017 -0.9095 -0.9445
13256TIP3    H261260   3.087   2.036  11.426 -0.4017  1.5192  2.2979
13257TIP3   OH261261   3.654   5.356   4.836 -0.5394  0.0292 -0.6370
13257TIP3    H161262   3.632   5.449   4.839 -1.2671 -0.1643  0.7041
13257TIP3    H261263   3.634   5.324   4.924  1.0095 -1.1125 -0.6616
13258TIP3   OH261264   5.640   3.908  16.370 -0.4562  0.7318  0.5082
13258TIP3    H161265   5.674   3.820  16.387  0.5812  1.4340  2.3828
13258TIP3    H261266   5.664   3.926  16.279 -1.3562 -1.1873 -0.1646
13259TIP3   OH261267   4.919   2.510  15.880  0.0689 -0.1418 -0.1970
13259TIP3    H161268   4.979   2.437  15.895 -0.0574  0.0228  1.2513
13259TIP3    H261269   4.976   2.586  15.868  0.1742 -0.2455 -0.3559
13260TIP3   OH261270   0.573   6.006   2.429 -0.5027  0.0426  0.1156
13260TIP3    H161271   0.657   6.047   2.444  0.0427 -0.8477 -0.3965
13260TIP3    H261272   0.508   6.073   2.452  0.3386  0.7363  0.4938
13261TIP3   OH261273   2.399   4.405   3.537 -0.7875 -0.0564  0.2509
13261TIP3    H161274   2.432   4.458   3.464  0.2832 -1.5252 -0.3865
13261TIP3    H261275   2.477   4.364   3.573 -1.4500 -0.2359  1.5170
13262TIP3   OH261276   5.549   3.495  14.823 -0.1689 -0.0442 -0.2868
13262TIP3    H161277   5.469   3.488  14.875 -0.0754 -1.2119 -0.2740
13262TIP3    H261278   5.620   3.484  14.887 -0.0432 -0.8954 -0.5677
13263TIP3   OH261279   6.680   1.284  13.821  0.2586  0.2457  0.5538
13263TIP3    H161280   6.748   1.225  13.790  2.5984  2.0971  1.8473
13263TIP3    H261281   6.674   1.265  13.915 -0.2750  0.8220  0.6416
13264TIP3   OH261282   3.664   6.588  10.958  0.1785  0.1817  0.3019
13264TIP3    H161283   3.722   6.529  10.910  3.6117  3.3755  0.0444
13264TIP3    H261284   3.596   6.613  10.896  0.5398 -1.0039 -0.5919
13265TIP3   OH261285   3.004   3.951  12.730 -0.0954  0.2586  0.5580
13265TIP3    H161286   2.945   3.970  12.802  0.2207  0.5137  0.7503
13265TIP3    H261287   3.037   4.036  12.703  0.1789  0.1172  0.4444
13266TIP3   OH261288   2.930   2.087  11.748  0.1119 -0.6171 -0.6426
13266TIP3    H161289   2.961   1.997  11.760  1.7038  0.0875  1.1502
13266TIP3    H261290   2.837   2.084  11.769  0.6199 -1.4817  1.8562
13267TIP3   OH261291   1.447   4.499  16.956  0.2953  0.5298 -0.6810
13267TIP3    H161292   1.374   4.446  16.989  2.6825 -1.6649  1.5645
13267TIP3    H261293   1.468   4.557  17.029  2.0192 -0.3371 -0.4352
13268TIP3   OH261294   3.793   0.966   5.873  0.0951  0.4640 -0.0062
13268TIP3    H161295   3.713   1.010   5.901  0.1849  0.5560  0.1105
13268TIP3    H261296   3.815   0.909   5.947  0.9611  1.5544  0.6066
13269TIP3   OH261297   2.259   2.547   2.762  0.2399  0.0206  0.3794
13269TIP3    H161298   2.341   2.510   2.795  0.5909  1.1025  0.7437
13269TIP3    H261299   2.191   2.489   2.798  0.7827 -0.3803  0.7828
13270TIP3   OH261300   0.286   0.675   5.148 -0.1060 -0.2081 -0.6280
13270TIP3    H161301   0.370   0.630   5.161 -0.2708 -0.3690 -0.0774
13270TIP3    H261302   0.302   0.735   5.076  0.9159  0.8351  0.4201
13271TIP3   OH261303   5.492   5.246   2.773  0.1054 -0.6771 -0.2793
13271TIP3    H161304   5.457   5.235   2.685 -1.0054 -1.9484  0.2861
13271TIP3    H261305   5.458   5.171   2.822 -2.1316  1.7435  2.1487
13272TIP3   OH261306   1.469   2.000   6.304 -0.1595 -0.2233 -0.1049
13272TIP3    H161307   1.507   1.913   6.316  0.0620 -0.0592  0.4099
13272TIP3    H261308   1.384   1.983   6.264 -1.1876 -0.8590  2.2074
13273TIP3   OH261309   2.090   6.639   5.289 -0.2299  0.1007 -0.4327
13273TIP3    H161310   2.013   6.673   5.245  0.2278  0.0281 -1.3195
13273TIP3    H261311   2.056   6.592   5.365 -0.9183  1.9394  0.4520
13274TIP3   OH261312   6.609   5.625  12.196 -0.0399 -0.1064 -0.2521
13274TIP3    H161313   6.586   5.544  12.150 -0.0826  0.6991 -1.7195
13274TIP3    H261314   6.587   5.694  12.134 -1.1158  1.1253  1.4313
13275TIP3   OH261315   6.576   1.493  12.170 -0.3417 -0.1072 -0.2202
13275TIP3    H161316   6.493   1.527  12.137  0.0388  1.3661  0.2625
13275TIP3    H261317   6.551   1.433  12.241 -1.0321 -0.9929 -1.1774
13276TIP3   OH261318   0.800   0.676  11.340  0.0367  0.4554  0.7318
13276TIP3    H161319   0.852   0.663  11.261 -0.1722  0.6177  0.5638
13276TIP3    H261320   0.728   0.614  11.332 -0.7505  1.4127  0.1119
13277TIP3   OH261321   0.112   3.854  12.956 -0.2053 -0.1513  0.0242
13277TIP3    H161322   0.077   3.836  12.868  0.6516  0.5942 -0.4930
13277TIP3    H261323   0.060   3.928  12.987  1.9296  2.1426 -1.4740
13278TIP3   OH261324   0.222   0.897  13.183  0.2522 -0.5028 -0.0493
13278TIP3    H161325   0.135   0.857  13.181  1.2598 -2.8648 -2.1748
13278TIP3    H261326   0.227   0.947  13.101  0.3607  1.0140  0.8421
13279TIP3   OH261327   5.382   0.812  12.542 -0.3063 -0.6909  0.7433
13279TIP3    H161328   5.409   0.808  12.634 -0.2789  0.9635  0.8251
13279TIP3    H261329   5.299   0.859  12.544 -0.2508 -0.5498 -0.1010
13280TIP3   OH261330   4.699   1.252  11.619 -0.6065  0.6126  0.2654
13280TIP3    H161331   4.782   1.227  11.578 -0.7462  0.7400 -0.0982
13280TIP3    H261332   4.700   1.347  11.619 -0.8745  0.6140  0.0171
13281TIP3   OH261333   2.206   6.654  15.956 -0.2179  0.5223  0.3194
13281TIP3    H161334   2.127   6.690  15.917 -1.2049 -0.7304  1.0729
13281TIP3    H261335   2.179   6.626  16.043  1.2533  0.7443  0.8736
13282TIP3   OH261336   1.778   2.553  15.011 -0.1828  0.1294  0.6782
13282TIP3    H161337   1.693   2.562  15.054  0.1210  1.6472  0.9995
13282TIP3    H261338   1.837   2.523  15.080 -0.2183  0.1785  0.7301
13283TIP3   OH261339   1.785   3.053  16.388  0.2057 -0.1447  0.0780
13283TIP3    H161340   1.770   3.132  16.337  1.0658 -0.1826 -0.2649
13283TIP3    H261341   1.832   2.995  16.328 -4.2291 -2.7592 -1.2738
13284TIP3   OH261342   2.926   3.775   2.495 -0.3985  0.0000 -0.0552
13284TIP3    H161343   2.959   3.688   2.471 -0.5431  0.1569 -0.8419
13284TIP3    H261344   2.976   3.836   2.441  0.2432  0.4697  1.0586
13285TIP3   OH261345   0.896   0.508   4.000  0.0598 -0.2464 -0.2630
13285TIP3    H161346   0.891   0.512   3.905  0.6188  0.8136 -0.2717
13285TIP3    H261347   0.990   0.507   4.018  0.0217  1.5445  0.2970
13286TIP3   OH261348   6.377   1.233  14.434  0.1160 -0.2555  0.3630
13286TIP3    H161349   6.403   1.152  14.477 -0.0294 -0.7517 -0.4666
13286TIP3    H261350   6.360   1.208  14.343  1.8750  1.0448 -0.3769
13287TIP3   OH261351   2.527   1.540   2.310  0.1763  0.7962  0.1496
13287TIP3    H161352   2.500   1.587   2.231 -1.9120 -0.0570  0.2929
13287TIP3    H261353   2.445   1.525   2.357  0.7211 -2.8908  0.1775
13288TIP3   OH261354   2.918   1.150   1.320 -0.3913 -0.4655 -0.2229
13288TIP3    H161355   2.916   1.128   1.227  2.0746 -3.5612  0.2995
13288TIP3    H261356   2.938   1.244   1.323 -1.6454 -0.0469 -2.7396
13289TIP3   OH261357   1.170   4.562   3.587  0.2356  0.1469  0.3469
13289TIP3    H161358   1.169   4.542   3.493 -0.0927 -0.1012  0.4012
13289TIP3    H261359   1.097   4.623   3.598  0.2112  0.0975  0.4543
13290TIP3   OH261360   6.319   2.002   5.695 -0.3212  0.4412 -0.6700
13290TIP3    H161361   6.321   2.075   5.633 -0.7045 -0.3547 -1.6384
13290TIP3    H261362   6.274   2.038   5.772 -0.7161  1.1635 -1.2244
13291TIP3   OH261363   0.692   4.733  13.220  0.2889  0.3715  0.6359
13291TIP3    H161364   0.775   4.724  13.172  0.1888  0.8994  0.3503
13291TIP3    H261365   0.674   4.827  13.217 -0.2070  0.2840  0.8947
13292TIP3   OH261366   4.767   2.918  13.173  0.7308  0.7194 -0.3326
13292TIP3    H161367   4.801   2.949  13.089  3.1780  2.0915  1.0551
13292TIP3    H261368   4.675   2.942  13.171  0.7536  0.8971 -2.5204
13293TIP3   OH261369   0.746   0.579   0.527 -0.0239  0.3015 -1.1357
13293TIP3    H161370   0.780   0.542   0.608 -2.4349 -0.1950 -0.2778
13293TIP3    H261371   0.784   0.666   0.522  0.0223  0.4049  0.6236
13294TIP3   OH261372   6.690   2.295  10.703 -0.4002 -0.1255 -0.6768
13294TIP3    H161373   6.725   2.339  10.625 -1.2542 -0.0858 -1.0510
13294TIP3    H261374   6.647   2.217  10.669 -0.7892 -0.1034 -0.2451
13295TIP3   OH261375   4.016   3.613   2.128 -0.2482  0.1184 -0.4521
13295TIP3    H161376   3.942   3.643   2.076  0.9562  0.6294 -1.9695
13295TIP3    H261377   3.992   3.525   2.156 -0.7973 -0.3595 -2.2617
13296TIP3   OH261378   1.059   6.618   0.021 -0.8165  0.0355  0.3548
13296TIP3    H161379   1.069   6.533   0.062 -0.0316  0.8880  2.0438
13296TIP3    H261380   1.124   6.619  -0.048  0.8428  0.0913  1.8447
13297TIP3   OH261381   3.166   0.071  14.676  0.2983 -0.4259 -0.2666
13297TIP3    H161382   3.245   0.037  14.718 -0.5250  1.0225  2.7707
13297TIP3    H261383   3.187   0.072  14.583  3.9663  0.1758  0.4031
13298TIP3   OH261384   6.772   6.226  15.905  0.2229  0.6726  0.0638
13298TIP3    H161385   6.741   6.163  15.970 -1.5778  0.9674 -0.4625
13298TIP3    H261386   6.811   6.171  15.836 -0.3280  0.1862  0.1281
13299TIP3   OH261387   6.369   0.094   2.040 -0.2620 -0.0796 -0.0201
13299TIP3    H161388   6.307   0.126   1.974 -0.8947 -1.1600  0.0243
13299TIP3    H261389   6.452   0.089   1.993 -0.1488  1.5181 -0.0438
13300TIP3   OH261390   0.979   4.923  17.338 -0.6147 -0.5425 -0.0061
13300TIP3    H161391   0.895   4.878  17.348 -0.3189 -0.6270  3.4521
13300TIP3    H261392   1.045   4.858  17.365  0.0993  0.7981  1.7239
13301TIP3   OH261393   6.149   4.652   3.129 -0.3676 -0.4253 -0.0889
13301TIP3    H161394   6.224   4.710   3.116 -0.6421 -0.2232 -0.8386
13301TIP3    H261395   6.149   4.595   3.052 -0.1131 -1.4186  0.6254
13302TIP3   OH261396   3.578   1.494   2.069  0.0912  0.2210 -0.2152
13302TIP3    H161397   3.554   1.587   2.061 -2.3130 -0.4013 -1.1278
13302TIP3    H261398   3.572   1.476   2.163  0.9779  1.0730  0.0153
13303TIP3   OH261399   0.093   5.973  16.787  0.5340  0.8387 -0.8896
13303TIP3    H161400   0.165   6.035  16.788 -0.3090  1.8381 -0.4123
13303TIP3    H261401   0.116   5.908  16.854  2.0648 -0.1797 -2.3241
13304TIP3   OH261402   3.611   5.742  15.415 -0.0463  0.0546  0.5045
13304TIP3    H161403   3.560   5.761  15.494  0.9273  0.5789  1.0143
13304TIP3    H261404   3.700   5.730  15.446  0.1406 -0.9226 -0.3775
13305TIP3   OH261405   5.147   3.795  10.987 -0.0591 -1.0349  0.4645
13305TIP3    H161406   5.131   3.887  11.011  0.2084 -1.6846  3.6404
13305TIP3    H261407   5.061   3.763  10.958 -0.2458  0.1118 -0.2873
13306TIP3   OH261408   0.521   0.624   3.131 -0.0267 -0.3755  0.1185
13306TIP3    H161409   0.562   0.705   3.162 -1.4822 -0.5100  2.7490
13306TIP3    H261410   0.430   0.647   3.115  0.0844 -0.9822 -1.6014
13307TIP3   OH261411   2.010   2.178   4.149 -0.7827  0.0536 -0.1877
13307TIP3    H161412   1.929   2.163   4.198 -2.9826 -0.1636 -3.5570
13307TIP3    H261413   2.027   2.272   4.159 -0.6977 -0.1206  1.5418
13308TIP3   OH261414   1.710   6.728  16.977  0.6795  0.7058  0.5376
13308TIP3    H161415   1.656   6.656  17.010  1.7434  0.4379  1.7891
13308TIP3    H261416   1.720   6.710  16.884  0.0316 -0.1660  0.6283
13309TIP3   OH261417   1.338   3.446   0.811  0.0976 -0.4276 -0.1782
13309TIP3    H161418   1.421   3.398   0.816  1.2679  1.4728 -0.0560
13309TIP3    H261419   1.323   3.457   0.717  0.8112  0.4912 -0.2047
13310TIP3   OH261420   0.271   3.258  14.451 -0.1530  0.0036  0.5578
13310TIP3    H161421   0.316   3.330  14.407  2.2750  0.0932  2.8920
13310TIP3    H261422   0.336   3.187  14.453 -1.5549 -1.3234  0.6018
13311TIP3   OH261423   1.629   0.537  16.257  0.6042 -0.4786  0.0987
13311TIP3    H161424   1.678   0.568  16.333 -0.9147 -0.1873  0.9967
13311TIP3    H261425   1.589   0.616  16.220  2.3150 -0.4279 -1.7795
13312TIP3   OH261426   2.426   2.168  16.560 -0.1611 -0.5923  0.1682
13312TIP3    H161427   2.410   2.085  16.516  0.5164 -1.9445  2.3116
13312TIP3    H261428   2.457   2.227  16.491  0.9207 -2.5807 -1.1414
13313TIP3   OH261429   6.131   6.770  16.299 -0.1119 -0.5443 -0.2284
13313TIP3    H161430   6.224   6.759  16.281 -0.0060 -1.7180  0.8917
13313TIP3    H261431   6.088   6.703  16.247 -0.1711 -1.0737  0.4792
13314TIP3   OH261432   1.230   3.573   0.054  0.4083  0.3732  0.6025
13314TIP3    H161433   1.227   3.598   0.146 -0.4523 -0.5388  0.8412
13314TIP3    H261434   1.146   3.601   0.018  0.4047 -0.0216  0.2926
13315TIP3   OH261435   2.312   5.471   6.277 -0.5146 -0.3386  0.0485
13315TIP3    H161436   2.337   5.382   6.252  0.6989  0.4682 -1.8053
13315TIP3    H261437   2.236   5.490   6.222 -0.6157 -0.1470  0.2571
13316TIP3   OH261438   3.164   2.596  16.113  0.0928  0.5130 -0.1198
13316TIP3    H161439   3.204   2.510  16.096 -1.8863  0.0292 -3.1435
13316TIP3    H261440   3.234   2.647  16.154  2.6431 -1.3565 -1.8051
13317TIP3   OH261441   1.930   1.758  11.540  0.2014  0.4948 -0.0618
13317TIP3    H161442   1.936   1.665  11.561  1.8784  0.5527 -0.1489
13317TIP3    H261443   1.924   1.801  11.625  3.6882  0.5177  0.3228
13318TIP3   OH261444   2.499   1.810  13.422 -0.3086  0.0338  0.1358
13318TIP3    H161445   2.583   1.776  13.391 -0.8285 -0.5903 -0.6190
13318TIP3    H261446   2.487   1.769  13.508 -0.7683 -1.4718 -0.6125
13319TIP3   OH261447   1.278   3.799   4.442 -0.1179 -0.3667 -0.4959
13319TIP3    H161448   1.354   3.836   4.487 -0.1912 -0.2967 -0.4296
13319TIP3    H261449   1.203   3.846   4.479 -0.2444 -0.8630 -0.1244
13320TIP3   OH261450   5.022   1.506  17.158  0.4572  0.1866 -0.1903
13320TIP3    H161451   4.936   1.489  17.194  0.5910  0.0530  0.0671
13320TIP3    H261452   5.010   1.503  17.063  0.3438 -0.6597 -0.1550
13321TIP3   OH261453   2.602   5.827   1.966 -0.1986 -0.5923  0.0691
13321TIP3    H161454   2.629   5.743   2.005 -0.5478 -0.6973  0.0864
13321TIP3    H261455   2.592   5.885   2.041 -0.2813 -0.6278  0.0859
13322TIP3   OH261456   6.071   0.580  14.727  0.4534 -0.1104 -0.7634
13322TIP3    H161457   6.098   0.570  14.818 -0.8071  0.3359 -0.3159
13322TIP3    H261458   6.141   0.538  14.676  2.2853  1.5250  0.2588
13323TIP3   OH261459   1.434   6.567  12.568 -0.3993  0.3493  0.3810
13323TIP3    H161460   1.406   6.532  12.652  0.1250  0.2035  0.4995
13323TIP3    H261461   1.507   6.510  12.542 -0.0362  0.8842  0.2133
13324TIP3   OH261462   6.218   6.150   5.053  0.2980 -0.2870  0.2720
13324TIP3    H161463   6.251   6.098   4.980 -0.9476 -1.7746  0.7243
13324TIP3    H261464   6.139   6.193   5.018 -0.4375 -1.1894  0.7750
13325TIP3   OH261465   0.244   2.285   5.663  0.4834 -0.3840  0.0433
13325TIP3    H161466   0.203   2.370   5.677  0.8661  0.0633 -1.3702
13325TIP3    H261467   0.245   2.274   5.568  0.4886 -1.9531  0.1923
13326TIP3   OH261468   6.371   4.640   1.541 -0.6722 -0.0259  0.1898
13326TIP3    H161469   6.424   4.717   1.519 -0.9977 -0.0813 -0.8293
13326TIP3    H261470   6.419   4.567   1.504  0.1698 -0.4683  2.0428
13327TIP3   OH261471   6.572   0.713  17.048 -0.2949 -0.2533 -0.9995
13327TIP3    H161472   6.526   0.696  17.130 -0.1716 -0.7253 -1.0265
13327TIP3    H261473   6.585   0.627  17.009  0.3931 -0.1032 -1.1124
13328TIP3   OH261474   6.707   1.679  15.436  0.4914 -0.6851 -0.5847
13328TIP3    H161475   6.649   1.687  15.512  2.2055 -0.8145  0.8150
13328TIP3    H261476   6.652   1.642  15.367 -1.4482  0.5784  0.1909
13329TIP3   OH261477   0.443   3.539  16.508 -0.6844  0.3592 -0.2816
13329TIP3    H161478   0.374   3.486  16.546  0.5431 -1.0004  0.1582
13329TIP3    H261479   0.508   3.548  16.577  0.6407 -0.3895 -1.3756
13330TIP3   OH261480   2.555   2.934  12.726  0.1776  0.4284  0.5482
13330TIP3    H161481   2.479   2.881  12.752 -0.4584  1.3816  0.6774
13330TIP3    H261482   2.519   3.002  12.669  1.2165 -0.1984 -0.8938
13331TIP3   OH261483   4.733   4.148  11.751  0.8398 -0.2169  0.2775
13331TIP3    H161484   4.720   4.220  11.689  0.1974 -0.8580 -0.3433
13331TIP3    H261485   4.719   4.069  11.699 -0.1188 -0.7545  1.3312
13332TIP3   OH261486   3.003   5.243  12.374  0.7139  0.5430  0.0406
13332TIP3    H161487   2.956   5.258  12.291 -1.0130  1.5140  1.1330
13332TIP3    H261488   3.088   5.283  12.361  1.3703 -1.3146 -2.0386
13333TIP3   OH261489   2.458   4.870  11.653  0.0126 -0.3635  0.1408
13333TIP3    H161490   2.363   4.874  11.636  0.1280  0.6019 -0.3713
13333TIP3    H261491   2.465   4.834  11.741 -0.8671  0.1510  0.4431
13334TIP3   OH261492   0.143   1.620  16.169 -0.1094 -0.1272  0.2186
13334TIP3    H161493   0.105   1.557  16.108 -3.9546  0.1593  1.9747
13334TIP3    H261494   0.196   1.567  16.228  2.0214 -0.6674 -2.0348
13335TIP3   OH261495   0.197   6.609   0.343  0.9610 -0.1807  0.0349
13335TIP3    H161496   0.164   6.618   0.432 -2.2038 -0.2180 -1.0319
13335TIP3    H261497   0.192   6.697   0.306 -0.6611 -0.6608 -0.9871
13336TIP3   OH261498   2.530   0.756  12.572 -0.2308 -0.1144  0.1372
13336TIP3    H161499   2.537   0.830  12.633  1.3351 -0.7083  0.7219
13336TIP3    H261500   2.509   0.797  12.488  2.3020  1.2231  0.0533
13337TIP3   OH261501   4.894   4.237  17.268 -0.4400  0.3960  0.5320
13337TIP3    H161502   4.944   4.217  17.188 -0.7801  1.2893  0.0820
13337TIP3    H261503   4.873   4.151  17.304  1.9834 -0.0346  1.1248
13338TIP3   OH261504   1.580   6.263  16.154 -1.0223  0.2013 -0.9259
13338TIP3    H161505   1.496   6.297  16.186 -1.1011 -0.0460 -0.8637
13338TIP3    H261506   1.565   6.168  16.146 -0.2446 -0.0843  0.6485
13339TIP3   OH261507   2.579   2.887   0.996 -0.0709  0.2149  0.0137
13339TIP3    H161508   2.570   2.838   1.078 -0.0628 -0.8865 -0.6332
13339TIP3    H261509   2.673   2.906   0.990 -0.3502  2.5334  1.4951
13340TIP3   OH261510   1.514   0.307   3.137 -0.2110  0.3304  0.1309
13340TIP3    H161511   1.535   0.379   3.078  0.3986  1.0126  1.1650
13340TIP3    H261512   1.589   0.300   3.195 -1.3957  0.6466  1.7751
13341TIP3   OH261513   2.556   2.010   0.196  0.3069 -0.8927 -0.2711
13341TIP3    H161514   2.506   1.939   0.157 -1.0722 -0.0503 -0.1099
13341TIP3    H261515   2.574   2.070   0.123  3.1878 -2.2568 -0.8404
13342TIP3   OH261516   1.050   2.833  16.755  1.0123 -0.3446 -0.2636
13342TIP3    H161517   1.082   2.796  16.837 -0.5901 -0.0897  0.5196
13342TIP3    H261518   1.122   2.887  16.723  1.5763 -0.2406  1.1196
13343TIP3   OH261519   2.166   2.261   5.043 -0.6329 -0.2241  0.4653
13343TIP3    H161520   2.099   2.284   5.108 -0.2986 -1.6593  1.3632
13343TIP3    H261521   2.152   2.323   4.972 -2.6096 -0.1545  0.8463
13344TIP3   OH261522   2.065   0.762   1.588 -0.6161  0.0608 -0.3324
13344TIP3    H161523   2.117   0.692   1.549 -0.0715  1.5531 -2.4741
13344TIP3    H261524   2.117   0.790   1.664 -0.5321 -1.3874  0.1781
13345TIP3   OH261525   6.770   1.918   4.612 -0.0029 -0.0206 -0.2054
13345TIP3    H161526   6.708   1.969   4.560 -1.4850  0.3497  1.8234
13345TIP3    H261527   6.755   1.827   4.586 -0.4787  0.1840 -0.6638
13346TIP3   OH261528   4.057   3.835  11.426 -0.4749  0.2302 -0.2568
13346TIP3    H161529   4.147   3.859  11.448 -0.4525  0.3594 -0.4788
13346TIP3    H261530   4.065   3.794  11.339 -0.5746 -0.1442 -0.0905
13347TIP3   OH261531   2.450   0.988  11.686  0.0989 -0.1430  0.1701
13347TIP3    H161532   2.538   0.977  11.650  1.2249  0.1469  2.6649
13347TIP3    H261533   2.418   0.898  11.698 -0.6000 -0.2594 -2.0458
13348TIP3   OH261534   0.676   3.535  10.545  0.4592  0.2342 -0.6192
13348TIP3    H161535   0.585   3.560  10.561  0.6017 -0.1582  0.9924
13348TIP3    H261536   0.723   3.618  10.539  0.2042  0.4247 -0.0448
13349TIP3   OH261537   1.668   0.145   5.799  0.3371 -0.2669  0.8596
13349TIP3    H161538   1.606   0.175   5.865  0.4627  0.0148  0.8493
13349TIP3    H261539   1.652   0.202   5.724 -0.4950 -1.2218  0.2828
13350TIP3   OH261540   4.364   3.922  12.431 -0.1033 -0.0489 -0.2959
13350TIP3    H161541   4.389   3.830  12.423  1.6385  0.3620  0.1048
13350TIP3    H261542   4.383   3.960  12.345 -2.6093 -0.4041 -1.1024
13351TIP3   OH261543   3.516   4.292   1.453 -0.1351  0.2109  0.1468
13351TIP3    H161544   3.522   4.197   1.461  0.0424  0.3281  1.7897
13351TIP3    H261545   3.528   4.325   1.542 -0.0149  1.7913 -0.4079
13352TIP3   OH261546   5.870   4.019   2.248  0.7215  0.4409 -0.1085
13352TIP3    H161547   5.809   3.993   2.317  2.5380 -1.3996  0.9092
13352TIP3    H261548   5.816   4.026   2.169 -0.7931 -1.4166  0.6798
13353TIP3   OH261549   2.358   0.720  16.744 -0.2697 -0.8768 -0.1457
13353TIP3    H161550   2.367   0.674  16.661  1.0363 -1.2025  0.1585
13353TIP3    H261551   2.367   0.813  16.720 -2.1100 -0.7658 -0.6408
13354TIP3   OH261552   2.199   4.797  12.947 -0.3507 -0.0408  0.0781
13354TIP3    H161553   2.150   4.863  12.996  0.9202  0.4332  0.7554
13354TIP3    H261554   2.226   4.842  12.867 -0.8737 -0.2566 -0.2256
13355TIP3   OH261555   4.667   1.683   6.459 -0.6205  0.2323  0.7504
13355TIP3    H161556   4.701   1.621   6.523  0.1498  2.3116  2.5205
13355TIP3    H261557   4.615   1.744   6.511 -0.9683  1.3173 -0.7996
13356TIP3   OH261558   3.055   6.024  14.793  0.0243 -0.5465  0.2770
13356TIP3    H161559   3.137   5.982  14.821 -0.1282 -1.8500 -1.0607
13356TIP3    H261560   2.995   6.011  14.866  0.8467 -0.0389  1.0659
13357TIP3   OH261561   1.875   2.074   3.905 -0.2222  0.3680 -0.2772
13357TIP3    H161562   1.951   2.078   3.963 -1.0292  2.0381  0.7327
13357TIP3    H261563   1.900   2.011   3.837  1.9439  0.6439  0.1870
13358TIP3   OH261564   6.219   4.206   3.240 -0.4807 -0.0131  0.2379
13358TIP3    H161565   6.250   4.151   3.313  0.6384 -1.1251 -1.0157
13358TIP3    H261566   6.192   4.288   3.282  0.3073 -0.5416  1.8863
13359TIP3   OH261567   6.396   6.250  11.173 -0.0011 -0.1147 -0.1553
13359TIP3    H161568   6.364   6.161  11.171 -2.3255  0.6315  0.9655
13359TIP3    H261569   6.317   6.305  11.173  1.3400  1.9795 -1.5254
13360TIP3   OH261570   1.287   3.156  14.579 -0.1045 -0.3981 -0.1799
13360TIP3    H161571   1.246   3.153  14.665  0.0667  1.5079  0.0052
13360TIP3    H261572   1.370   3.109  14.590  0.0138  0.0193  0.7669
13361TIP3   OH261573   5.737   1.245  16.693 -0.5929  0.0355 -0.3238
13361TIP3    H161574   5.755   1.194  16.614 -2.2742 -1.3315  0.1121
13361TIP3    H261575   5.714   1.179  16.759 -1.1641  1.2674  0.7459
13362TIP3   OH261576   4.452   5.649  15.318  0.1604  0.2066  0.4018
13362TIP3    H161577   4.523   5.712  15.322  0.4106  0.1623 -1.8042
13362TIP3    H261578   4.485   5.572  15.365  1.1844  0.5352  0.2426
13363TIP3   OH261579   4.870   6.289   4.930  0.0059 -0.0291  0.0214
13363TIP3    H161580   4.945   6.232   4.946  0.7113  0.8732  0.0071
13363TIP3    H261581   4.840   6.264   4.842 -0.2059 -0.9150  0.3292
13364TIP3   OH261582   1.136   5.617  15.499 -0.1300  0.6601  0.0685
13364TIP3    H161583   1.049   5.635  15.535 -0.6427 -0.3370 -0.6075
13364TIP3    H261584   1.119   5.592  15.408  0.8399  0.1703  0.0131
13365TIP3   OH261585   6.007   1.156   0.844  0.2671 -0.2982  0.0146
13365TIP3    H161586   6.070   1.179   0.912  0.8225  0.3295 -0.6861
13365TIP3    H261587   6.036   1.071   0.812 -0.5391 -1.0263  1.1725
13366TIP3   OH261588   2.486   3.409   6.032  0.2313  0.2896  0.2558
13366TIP3    H161589   2.568   3.369   6.002 -0.8688 -2.9688  1.2018
13366TIP3    H261590   2.480   3.386   6.125 -0.6087  2.6180  0.8338
13367TIP3   OH261591   1.969   6.493  10.396 -0.0450  0.0814 -0.0046
13367TIP3    H161592   2.001   6.474  10.484 -0.0414 -0.0115 -0.0255
13367TIP3    H261593   2.031   6.448  10.339 -0.7499 -0.8957 -0.0214
13368TIP3   OH261594   5.382   3.691  16.349 -0.5454 -0.2373  0.1253
13368TIP3    H161595   5.358   3.602  16.377  0.0410 -0.5963 -0.4628
13368TIP3    H261596   5.476   3.697  16.369 -0.7706  0.5612  0.9455
13369TIP3   OH261597   0.158   6.698  13.707  0.3568 -0.0299  0.6815
13369TIP3    H161598   0.062   6.692  13.702  0.3976  0.1424 -0.6039
13369TIP3    H261599   0.183   6.633  13.773 -0.5327 -1.2133 -0.1092
13370TIP3   OH261600   1.623   3.986   0.249 -0.3498  0.0619 -0.0384
13370TIP3    H161601   1.600   3.977   0.342  0.5428  1.4102  0.3552
13370TIP3    H261602   1.706   3.939   0.240  0.7864  1.8616  0.4395
13371TIP3   OH261603   2.962   0.112  15.821  0.2625 -0.2183 -1.0400
13371TIP3    H161604   2.913   0.034  15.793  1.3194 -0.4406 -2.3715
13371TIP3    H261605   2.966   0.104  15.916 -1.8946 -0.4030 -0.9019
13372TIP3   OH261606   2.979   4.111  11.800 -0.0409 -0.7189  0.0491
13372TIP3    H161607   2.940   4.039  11.850  0.3390 -0.4808  0.7087
13372TIP3    H261608   3.040   4.152  11.862  1.0370 -0.9045 -0.8704
13373TIP3   OH261609   4.262   0.791  14.627  0.2882  0.1365  0.5884
13373TIP3    H161610   4.186   0.733  14.631 -0.4072  0.9466 -0.2958
13373TIP3    H261611   4.277   0.804  14.533  1.5699 -0.0605  0.7527
13374TIP3   OH261612   3.505   4.596   0.945  0.3187 -0.7120  0.5600
13374TIP3    H161613   3.432   4.543   0.976 -0.9952 -1.6525 -3.5445
13374TIP3    H261614   3.510   4.668   1.008 -1.4561 -2.7274  3.2410
13375TIP3   OH261615   1.653   0.594  15.259 -0.2666 -0.2373 -0.0813
13375TIP3    H161616   1.635   0.525  15.195  0.8590 -0.3990 -0.2465
13375TIP3    H261617   1.674   0.547  15.340  1.2146 -0.1328 -0.3832
13376TIP3   OH261618   0.462   4.692  14.078 -0.0988 -1.0229  0.3192
13376TIP3    H161619   0.536   4.648  14.120  1.7093  0.8380 -0.7540
13376TIP3    H261620   0.438   4.763  14.137 -0.6764 -1.2575  0.3821
13377TIP3   OH261621   6.371   6.572  12.838 -0.1349 -0.1484  0.2228
13377TIP3    H161622   6.446   6.512  12.831  1.3123  1.6384 -0.2320
13377TIP3    H261623   6.341   6.582  12.748 -0.1567  0.0648  0.2542
13378TIP3   OH261624   2.598   3.435  13.018 -0.4116 -0.5026  0.3464
13378TIP3    H161625   2.588   3.354  13.068 -1.7789  0.7569  2.2660
13378TIP3    H261626   2.508   3.466  13.007 -0.1634 -0.6550 -2.9258
13379TIP3   OH261627   2.452   0.027  15.855 -0.0382 -0.0405  0.6572
13379TIP3    H161628   2.524  -0.034  15.868 -1.1236 -1.4293  0.3858
13379TIP3    H261629   2.374  -0.022  15.882 -0.9383  1.2668  0.5315
13380TIP3   OH261630   4.007   2.389  13.425 -0.2239 -0.3294  0.0092
13380TIP3    H161631   4.019   2.326  13.496 -0.5945 -0.3450  0.0597
13380TIP3    H261632   4.017   2.337  13.345 -0.0711 -0.3632  0.0504
13381TIP3   OH261633   1.175   6.747   3.745  0.2361 -0.4649 -0.3436
13381TIP3    H161634   1.217   6.790   3.671  0.1145  1.8736  0.8583
13381TIP3    H261635   1.124   6.676   3.705  2.7075 -1.3852 -2.1341
13382TIP3   OH261636   1.211   0.160  12.710 -0.3543 -0.5477 -0.2571
13382TIP3    H161637   1.252   0.235  12.754 -0.9846 -0.9661  1.0993
13382TIP3    H261638   1.122   0.189  12.691 -0.1411 -0.4327 -1.1492
13383TIP3   OH261639   0.176   1.078  16.647 -0.4020  0.3714  0.2355
13383TIP3    H161640   0.183   1.036  16.733 -0.4940 -0.0536  0.0415
13383TIP3    H261641   0.148   1.007  16.588  0.7259  0.3902 -0.3579
13384TIP3   OH261642   3.542   3.473  11.919 -0.3336  0.4384  0.5943
13384TIP3    H161643   3.586   3.552  11.889 -0.4986  0.1191 -0.5178
13384TIP3    H261644   3.451   3.498  11.929 -0.4997  0.2342 -0.3658
13385TIP3   OH261645   5.268   6.678   2.942 -0.2026  0.6141 -0.0677
13385TIP3    H161646   5.226   6.610   2.890  1.6290 -0.0014 -0.8275
13385TIP3    H261647   5.336   6.632   2.991  1.6746  1.9789 -1.2740
13386TIP3   OH261648   4.795   6.156   0.715  0.3058  1.1129  0.5627
13386TIP3    H161649   4.885   6.185   0.700  0.6254  0.5029  1.2423
13386TIP3    H261650   4.754   6.161   0.629  1.6296 -0.7911 -0.2564
13387TIP3   OH261651   1.474   6.487   2.639 -0.1719 -0.1958 -0.3737
13387TIP3    H161652   1.510   6.426   2.575 -2.4047 -0.5339 -1.4073
13387TIP3    H261653   1.473   6.571   2.594  0.7315  0.1347  0.2068
13388TIP3   OH261654   1.554   6.471  14.273 -0.2651  0.4271  0.0678
13388TIP3    H161655   1.640   6.439  14.300 -0.4798 -0.1063  0.1397
13388TIP3    H261656   1.531   6.417  14.197 -1.8448 -1.5675  1.8390
13389TIP3   OH261657   2.640   0.064   0.572  0.1176 -0.0605 -0.2636
13389TIP3    H161658   2.689   0.102   0.645 -1.0654 -0.6115  0.8831
13389TIP3    H261659   2.608   0.139   0.523  2.3162  0.3079 -1.2417
13390TIP3   OH261660   0.047   2.156  15.973  0.1868  0.3239 -0.4213
13390TIP3    H161661   0.116   2.142  16.038 -1.0683  0.0860  0.9109
13390TIP3    H261662   0.007   2.070  15.963 -0.7533  0.7181 -0.1663
13391TIP3   OH261663   5.576   6.589   1.141 -0.1061  0.5447  0.0005
13391TIP3    H161664   5.539   6.638   1.213 -2.4881 -0.0893 -0.7022
13391TIP3    H261665   5.567   6.647   1.065  0.8764  0.5828 -0.1001
13392TIP3   OH261666   0.508   3.954   2.908 -0.2806  0.3036  0.3073
13392TIP3    H161667   0.465   3.881   2.863  2.9033 -1.2787 -0.4523
13392TIP3    H261668   0.500   4.027   2.847  0.2919 -0.6694 -0.9877
13393TIP3   OH261669   0.187   2.562  11.969 -0.7791  0.5835  0.1933
13393TIP3    H161670   0.166   2.632  12.030  2.0389  0.9244  0.8958
13393TIP3    H261671   0.278   2.540  11.987 -0.9891 -1.9823 -1.2942
13394TIP3   OH261672   4.367   1.396  17.377  0.1937  0.4135 -0.2568
13394TIP3    H161673   4.319   1.324  17.336  0.6909 -0.4858  0.6892
13394TIP3    H261674   4.414   1.438  17.304  0.4749 -0.6795 -0.7272
13395TIP3   OH261675   5.294   5.841   1.264 -0.6957 -0.4563  0.4008
13395TIP3    H161676   5.259   5.926   1.291 -0.2323 -0.8752  2.5076
13395TIP3    H261677   5.216   5.786   1.253 -0.8893 -0.4718  1.7215
13396TIP3   OH261678   4.099   0.554   1.392 -0.0066 -0.2760  0.0882
13396TIP3    H161679   4.117   0.482   1.331 -1.0735 -1.3522  0.9879
13396TIP3    H261680   4.073   0.627   1.336  1.7530 -0.3536 -0.8912
13397TIP3   OH261681   1.842   5.124  16.608  0.4513 -0.1748 -0.1002
13397TIP3    H161682   1.927   5.089  16.635  0.9780 -0.1174 -1.6049
13397TIP3    H261683   1.805   5.058  16.550  0.2486  0.5328 -0.8081
13398TIP3   OH261684   4.691   1.330   6.391  0.4714  0.3787  0.1944
13398TIP3    H161685   4.706   1.375   6.474  1.6246 -0.3474  0.4146
13398TIP3    H261686   4.601   1.350   6.367 -0.1531 -0.1016  2.0541
13399TIP3   OH261687   5.865   4.213  17.125  0.3412 -0.1808  0.4236
13399TIP3    H161688   5.850   4.254  17.040 -0.1555 -0.0826  0.5496
13399TIP3    H261689   5.959   4.217  17.138  0.2679  1.5449  0.7269
13400TIP3   OH261690   2.335   3.660  16.238  0.3254 -0.0175 -0.1126
13400TIP3    H161691   2.292   3.578  16.263  0.9631  0.2643  2.1901
13400TIP3    H261692   2.281   3.695  16.167 -2.0759 -0.6869  1.2594
13401TIP3   OH261693   5.050   4.609   5.424 -0.3029  0.9298 -0.1725
13401TIP3    H161694   5.092   4.529   5.393 -1.2950  0.1822  0.3255
13401TIP3    H261695   5.089   4.679   5.372 -0.6636 -0.0738 -1.8678
13402TIP3   OH261696   5.016   1.252  11.313  0.4102  0.2025 -0.5566
13402TIP3    H161697   5.064   1.180  11.271  1.7589  0.6111  0.2278
13402TIP3    H261698   5.076   1.326  11.311 -0.6116  1.0613 -0.5082
13403TIP3   OH261699   4.981   0.214  12.010 -0.1111  0.5939  0.1677
13403TIP3    H161700   4.964   0.209  11.916  2.0251  1.5134 -0.3224
13403TIP3    H261701   5.077   0.218  12.017 -0.1375 -0.7614  2.4610
13404TIP3   OH261702   5.894   6.189  16.924  0.5661 -0.2798 -0.0834
13404TIP3    H161703   5.853   6.113  16.883  1.0561 -1.1296  0.9535
13404TIP3    H261704   5.844   6.204  17.004  0.2743  0.6986 -0.4375
13405TIP3   OH261705   3.058   5.355   4.968  0.6929  0.0508  0.1636
13405TIP3    H161706   3.115   5.369   4.892  1.3299  0.7642  0.7703
13405TIP3    H261707   2.987   5.419   4.957  1.2700  0.7803  0.6397
13406TIP3   OH261708   2.419   3.548  14.304 -0.0034  0.5786  0.1191
13406TIP3    H161709   2.397   3.557  14.212  3.4013 -0.1910 -0.9245
13406TIP3    H261710   2.440   3.638  14.333  0.1875  0.6529 -0.2482
13407TIP3   OH261711   4.096   6.593   1.727 -0.1450  0.2305 -0.0372
13407TIP3    H161712   4.094   6.643   1.809 -0.7887  1.9795 -1.0743
13407TIP3    H261713   4.189   6.589   1.703  0.0827 -0.5569  0.8939
13408TIP3   OH261714   1.776   4.592   5.306  0.4591 -0.1778 -0.1355
13408TIP3    H161715   1.776   4.529   5.234 -0.7540  1.1449 -1.3447
13408TIP3    H261716   1.771   4.537   5.385 -0.4365 -1.6177 -1.1317
13409TIP3   OH261717   4.113   1.771   2.849  0.3396  0.0974  0.0871
13409TIP3    H161718   4.049   1.703   2.827 -1.4888  1.6085  0.5125
13409TIP3    H261719   4.093   1.842   2.789  1.2326  0.8412  0.6565
13410TIP3   OH261720   1.417   3.199  16.638 -0.2723 -0.0035 -0.7772
13410TIP3    H161721   1.374   3.243  16.712  0.4933 -1.4038  0.5734
13410TIP3    H261722   1.510   3.216  16.651  0.3210 -3.7169  1.1365
13411TIP3   OH261723   4.502   0.717   0.248  0.0708 -0.1157 -0.0826
13411TIP3    H161724   4.433   0.782   0.256  0.0377 -0.0812 -0.6004
13411TIP3    H261725   4.549   0.741   0.168  0.2291 -0.5630 -0.1318
13412TIP3   OH261726   2.882   2.747  12.718 -0.0155 -0.2590 -0.2371
13412TIP3    H161727   2.914   2.661  12.690  1.7496  0.4939 -0.6983
13412TIP3    H261728   2.911   2.807  12.649 -1.0701  0.7448  0.1538
13413TIP3   OH261729   5.888   3.167   1.348 -0.3336 -0.1363 -0.0455
13413TIP3    H161730   5.900   3.078   1.379  0.2647 -0.0002  0.1244
13413TIP3    H261731   5.863   3.217   1.425  0.5157  0.0743  0.1025
13414TIP3   OH261732   5.057   1.692  12.847 -0.6723 -0.2218 -0.2067
13414TIP3    H161733   5.002   1.703  12.769 -1.9342 -0.6311  0.6028
13414TIP3    H261734   5.096   1.605  12.835  1.4202  0.8487 -1.7399
13415TIP3   OH261735   4.913   1.598   6.128  0.3542 -0.4890 -0.2077
13415TIP3    H161736   4.923   1.687   6.161 -0.8908 -1.2844  2.5494
13415TIP3    H261737   4.991   1.553   6.159 -0.8268 -1.2441  1.8369
13416TIP3   OH261738   1.892   2.738   1.486 -0.0383  0.1157 -0.5679
13416TIP3    H161739   1.885   2.811   1.547 -3.8659 -1.7827  1.6778
13416TIP3    H261740   1.830   2.759   1.416 -1.6001 -1.0426  0.3825
13417TIP3   OH261741   2.710   0.482  13.178 -0.4896  0.2262 -0.3989
13417TIP3    H161742   2.726   0.541  13.104 -0.0781  2.4662  1.3530
13417TIP3    H261743   2.792   0.434  13.188 -0.1286  0.7651 -0.6913
13418TIP3   OH261744   6.366   6.135   1.725 -0.0403  0.4744  0.2092
13418TIP3    H161745   6.287   6.176   1.691  0.0777 -0.9547 -1.9702
13418TIP3    H261746   6.384   6.063   1.664  2.2044 -0.0558  1.3924
13419TIP3   OH261747   1.599   2.950  13.036  0.1031 -0.0346 -0.2132
13419TIP3    H161748   1.600   2.881  13.103 -0.9425  1.1946  1.1545
13419TIP3    H261749   1.515   2.993  13.049  0.6725  1.4005 -1.1216
13420TIP3   OH261750   1.802   2.934  15.057  0.3363 -0.1220  0.1354
13420TIP3    H161751   1.790   2.989  14.979  2.4036 -0.4265 -0.4562
13420TIP3    H261752   1.727   2.875  15.056  0.0527  0.2081 -1.3583
13421TIP3   OH261753   2.393   1.540  15.989 -0.0518  0.2084  1.3414
13421TIP3    H161754   2.331   1.565  16.057 -0.3359 -1.4036  1.7262
13421TIP3    H261755   2.476   1.578  16.017 -0.5396  1.0976  1.6191
13422TIP3   OH261756   4.710   5.483  12.440  0.2737  0.3644  0.2682
13422TIP3    H161757   4.730   5.393  12.466  0.2801  0.6382  1.2824
13422TIP3    H261758   4.664   5.475  12.357  1.1459 -0.5157 -0.1467
13423TIP3   OH261759   3.215   4.198   1.059  0.4756  0.1795 -0.1871
13423TIP3    H161760   3.121   4.183   1.061  0.3423  0.6706 -1.6483
13423TIP3    H261761   3.252   4.118   1.022  0.6305  0.0173  0.3099
13424TIP3   OH261762   1.357   6.557  16.010  0.5539  0.3533  0.2763
13424TIP3    H161763   1.364   6.651  16.026 -0.8885  0.4636  0.4507
13424TIP3    H261764   1.318   6.522  16.091 -1.0538 -0.0192 -0.6068
13425TIP3   OH261765   0.339   3.050  13.078 -0.3085  0.5629 -0.0145
13425TIP3    H161766   0.366   2.961  13.057  0.7709  0.0506  3.0814
13425TIP3    H261767   0.254   3.039  13.121 -0.0023  0.9890  0.7040
13426TIP3   OH261768   4.749   0.372   4.351 -0.0162 -0.5456 -0.2872
13426TIP3    H161769   4.688   0.389   4.424 -0.9196  1.7728 -1.4797
13426TIP3    H261770   4.726   0.284   4.321 -0.7562 -0.8889  1.1732
13427TIP3   OH261771   2.098   0.605  16.683  0.5150  0.1066  0.3822
13427TIP3    H161772   2.167   0.671  16.688  2.0280 -1.4149  0.5152
13427TIP3    H261773   2.123   0.538  16.747 -2.2907  0.5154  2.0643
13428TIP3   OH261774   5.562   2.868  16.137 -0.4752  0.0301 -0.0922
13428TIP3    H161775   5.481   2.838  16.096  0.0470 -1.5895  0.0198
13428TIP3    H261776   5.534   2.942  16.191 -2.4749 -2.2397  2.2673
13429TIP3   OH261777   4.014   0.380  11.801  0.3294 -0.0892 -0.2049
13429TIP3    H161778   4.090   0.364  11.744  0.3919 -1.0244  0.1202
13429TIP3    H261779   4.046   0.442  11.866  1.1408 -1.2490  0.5396
13430TIP3   OH261780   3.657   0.386  16.134  0.4858 -0.2031  0.1858
13430TIP3    H161781   3.654   0.292  16.115 -1.6193 -0.0312 -0.5890
13430TIP3    H261782   3.621   0.393  16.222  0.3891 -0.1042  0.1381
13431TIP3   OH261783   3.238   1.044  13.767 -0.3216  0.4479 -0.2742
13431TIP3    H161784   3.149   1.035  13.734 -0.8010  1.1756  0.7675
13431TIP3    H261785   3.230   1.034  13.861  0.6978  0.5732 -0.1598
13432TIP3   OH261786   3.486   1.662  11.986  0.2175 -0.0792 -0.0093
13432TIP3    H161787   3.519   1.581  11.946 -1.6040  0.3150 -2.4835
13432TIP3    H261788   3.415   1.633  12.043  0.2552 -0.3214 -0.0835
13433TIP3   OH261789   2.935   3.999   3.087 -0.4477  0.1647  0.3456
13433TIP3    H161790   3.014   3.945   3.097 -0.3880 -0.0886 -1.2272
13433TIP3    H261791   2.949   4.074   3.143  0.5304 -0.3131  0.7503
13434TIP3   OH261792   2.509   3.747  15.996  0.0249 -0.3343 -0.0655
13434TIP3    H161793   2.496   3.797  16.077  1.0642 -0.3505  0.1291
13434TIP3    H261794   2.603   3.754  15.979 -0.2367 -0.0226 -1.4792
13435TIP3   OH261795   3.018   6.023  16.087 -0.1793  0.4567 -0.2679
13435TIP3    H161796   3.108   6.016  16.117  0.0127  1.4572 -0.5759
13435TIP3    H261797   2.968   6.048  16.165 -0.1467  0.1722 -0.1558
13436TIP3   OH261798   5.163   0.184  13.092  0.3183 -0.1835  0.6677
13436TIP3    H161799   5.150   0.224  13.178 -0.7479  0.5531  0.1923
13436TIP3    H261800   5.190   0.257  13.036  2.4424 -0.9077  0.6525
13437TIP3   OH261801   5.183   4.617   3.717  0.2528  0.2085  0.0746
13437TIP3    H161802   5.121   4.666   3.663 -0.4961 -0.4266  0.3274
13437TIP3    H261803   5.182   4.662   3.802 -2.9497 -2.0068  1.4235
13438TIP3   OH261804   3.574   1.928   2.754  0.1182  0.1843 -0.0921
13438TIP3    H161805   3.567   2.010   2.802  1.5101  0.3652 -0.1492
13438TIP3    H261806   3.491   1.920   2.706 -1.0330  0.3113  1.7919
13439TIP3   OH261807   4.552   0.090  12.164  0.2723  0.0154 -0.1627
13439TIP3    H161808   4.467   0.055  12.190 -0.2889  0.4886 -1.2787
13439TIP3    H261809   4.551   0.181  12.195  0.6795 -0.1937  0.4735
13440TIP3   OH261810   1.169   3.981  16.207  0.3590  0.3537  0.1714
13440TIP3    H161811   1.132   3.949  16.289  0.6178 -0.4098 -0.0005
13440TIP3    H261812   1.119   3.935  16.139  0.3061  0.8010 -0.0972
13441TIP3   OH261813   3.064   3.960   0.820 -0.1944 -0.2004 -0.1471
13441TIP3    H161814   2.986   4.012   0.802 -1.1881 -1.5186  0.1806
13441TIP3    H261815   3.036   3.869   0.809  1.2837 -0.7191  0.0339
13442TIP3   OH261816   3.374   5.603   5.757 -0.3967 -0.3540 -0.2659
13442TIP3    H161817   3.287   5.587   5.720  0.0114 -0.9052 -1.0304
13442TIP3    H261818   3.434   5.568   5.691  0.3629 -1.9306  1.1831
13443TIP3   OH261819   4.700   1.310   1.370 -0.4686  0.1003 -0.3783
13443TIP3    H161820   4.774   1.307   1.310 -0.4950  1.1529 -0.4921
13443TIP3    H261821   4.661   1.397   1.356 -0.6542  0.2585  0.9317
13444TIP3   OH261822   1.911   5.175   2.816  0.8343 -0.0549  0.0452
13444TIP3    H161823   1.951   5.194   2.901 -0.1777  1.3084  0.2393
13444TIP3    H261824   1.960   5.098   2.784  2.0199  0.1265  1.3031
13445TIP3   OH261825   2.442   5.392  12.423 -0.0960 -0.0511 -0.1856
13445TIP3    H161826   2.416   5.478  12.391 -0.6903  0.1059  0.6754
13445TIP3    H261827   2.394   5.330  12.367 -0.6028  0.2053 -0.0443
13446TIP3   OH261828   0.848   5.340  13.244  0.4545 -0.0717  0.5476
13446TIP3    H161829   0.926   5.389  13.216  0.8110 -1.5558 -1.3633
13446TIP3    H261830   0.779   5.405  13.251  1.1162  0.8511 -1.0226
13447TIP3   OH261831   1.050   2.996   0.134 -0.0330 -0.1932 -0.1197
13447TIP3    H161832   0.955   3.009   0.131  0.1578  1.6672  0.4965
13447TIP3    H261833   1.081   3.021   0.047  0.0984  1.4007  0.3654
13448TIP3   OH261834   4.386   3.840  16.922  0.5101 -0.0033 -0.1352
13448TIP3    H161835   4.358   3.754  16.954  1.2702  0.3330  1.5479
13448TIP3    H261836   4.474   3.852  16.959  0.2927  1.6304 -0.0734
13449TIP3   OH261837   2.922   0.704  17.148 -0.1840 -0.3921  1.0791
13449TIP3    H161838   2.964   0.704  17.234 -1.2418 -2.6076  1.6752
13449TIP3    H261839   2.831   0.678  17.167 -0.4489 -0.8455 -0.6973
13450TIP3   OH261840   1.293   5.379  10.537 -0.2893 -0.1565  0.0397
13450TIP3    H161841   1.366   5.416  10.587  0.8010 -1.3219 -0.6170
13450TIP3    H261842   1.220   5.376  10.598  0.6843 -0.4731  1.2126
13451TIP3   OH261843   3.223   6.704   4.301 -0.1569  0.5865  0.0421
13451TIP3    H161844   3.235   6.645   4.375 -0.0030  1.9952  1.1891
13451TIP3    H261845   3.133   6.687   4.271  0.0106 -0.4663  0.0917
13452TIP3   OH261846   4.543   4.027  17.225 -0.2845  0.6810 -0.4003
13452TIP3    H161847   4.613   4.038  17.290 -1.4745 -1.2048  1.3216
13452TIP3    H261848   4.570   3.952  17.172 -0.7760  0.2163 -0.0051
13453TIP3   OH261849   0.899   5.024   3.799 -0.2277  0.1558  0.4637
13453TIP3    H161850   0.898   5.107   3.752  1.3073 -1.5603 -2.9734
13453TIP3    H261851   0.986   5.020   3.840  0.0001 -0.0669 -0.0355
13454TIP3   OH261852   0.880   3.413  14.433 -0.1637  0.1807  0.3557
13454TIP3    H161853   0.806   3.451  14.480 -1.4230  0.3513 -1.6587
13454TIP3    H261854   0.908   3.481  14.372  1.6378  0.0790  0.9975
13455TIP3   OH261855   4.211   4.683   3.371  0.1099 -0.2524  0.4794
13455TIP3    H161856   4.268   4.647   3.303 -0.0462 -1.2192  0.8412
13455TIP3    H261857   4.240   4.773   3.382  1.8040 -0.8140  0.8870
13456TIP3   OH261858   3.521   3.694   5.011  0.1178 -0.0870  0.1251
13456TIP3    H161859   3.564   3.712   4.927 -1.0576  0.8594 -0.2924
13456TIP3    H261860   3.439   3.650   4.988  0.5769 -1.4196  0.8922
13457TIP3   OH261861   4.144   3.257   0.739 -0.1721  0.6426  0.2288
13457TIP3    H161862   4.179   3.251   0.650 -0.1443  4.9526 -0.2948
13457TIP3    H261863   4.219   3.286   0.792 -0.6058 -0.1176  1.2850
13458TIP3   OH261864   4.774   0.903  13.050  0.3430 -0.6655  1.1667
13458TIP3    H161865   4.799   0.891  12.959 -1.9351 -1.4263  0.5785
13458TIP3    H261866   4.729   0.987  13.052  2.2365  0.3840  2.0703
13459TIP3   OH261867   4.431   0.421   1.319 -0.1086 -0.5895 -0.5760
13459TIP3    H161868   4.371   0.395   1.249 -1.3891  1.0965 -0.1588
13459TIP3    H261869   4.477   0.498   1.285 -1.9807  1.3236  0.9560
13460TIP3   OH261870   3.159   1.306  17.399 -0.4097 -0.1962 -0.1162
13460TIP3    H161871   3.185   1.325  17.308  0.1222 -0.0617  0.0623
13460TIP3    H261872   3.237   1.327  17.451 -0.5901 -0.6398  0.3323
13461TIP3   OH261873   5.528   4.083   3.813 -0.1672 -0.2874 -0.0253
13461TIP3    H161874   5.497   3.999   3.846 -0.8156  0.0494  0.2258
13461TIP3    H261875   5.624   4.074   3.812 -0.1834 -0.7042  0.8761
13462TIP3   OH261876   3.543   3.670  15.477 -0.1357  0.5490  0.4182
13462TIP3    H161877   3.619   3.707  15.433 -0.5779  1.9583  0.7625
13462TIP3    H261878   3.487   3.638  15.406 -0.4626  2.0330 -0.0240
13463TIP3   OH261879   5.638   6.555   1.634 -0.1472  0.3478 -0.6855
13463TIP3    H161880   5.592   6.513   1.707 -1.6033 -0.3996 -1.9755
13463TIP3    H261881   5.660   6.642   1.667 -0.9842  0.1122  0.5771
13464TIP3   OH261882   0.618   5.716  14.267 -0.0147 -0.0892 -0.2839
13464TIP3    H161883   0.667   5.715  14.185 -0.0499 -1.5622 -0.3176
13464TIP3    H261884   0.643   5.798  14.309  1.6977 -0.3301 -0.7558
13465TIP3   OH261885   2.336   0.196  15.340 -0.3182 -0.1564  0.5796
13465TIP3    H161886   2.376   0.138  15.406  0.0865  0.4720  0.8967
13465TIP3    H261887   2.244   0.202  15.365 -0.5874 -1.4281 -0.0182
13466TIP3   OH261888   4.572   2.236  12.224 -0.7510  0.1236  0.3885
13466TIP3    H161889   4.658   2.250  12.263 -0.4312 -0.4971 -0.0726
13466TIP3    H261890   4.587   2.167  12.159 -1.0870  1.7058 -1.4371
13467TIP3   OH261891   4.099   4.749   2.647  0.3700  0.0160  0.0725
13467TIP3    H161892   4.104   4.689   2.573 -0.2905 -1.3778  1.1214
13467TIP3    H261893   4.041   4.819   2.618 -0.6439 -1.0030 -0.3990
13468TIP3   OH261894   0.885   5.957  12.776  0.4224  0.2595 -0.0409
13468TIP3    H161895   0.851   5.919  12.857  0.0561  0.0969 -0.2676
13468TIP3    H261896   0.892   5.883  12.716  0.7411  0.3709 -0.1435
13469TIP3   OH261897   4.598   6.084   4.930 -0.3373  0.2313  0.1140
13469TIP3    H161898   4.582   6.001   4.886 -3.6297  0.8219 -0.0547
13469TIP3    H261899   4.628   6.143   4.860  1.9155 -0.7001  0.2202
13470TIP3   OH261900   1.700   4.339   4.452  0.7607  0.3605  0.0595
13470TIP3    H161901   1.752   4.260   4.439  2.4133  1.4334 -0.1837
13470TIP3    H261902   1.763   4.411   4.442 -0.4618  1.6794  1.3864
13471TIP3   OH261903   5.526   1.470   5.033 -0.5006  0.2384 -0.2324
13471TIP3    H161904   5.610   1.428   5.017  0.3947  1.8408  0.0924
13471TIP3    H261905   5.476   1.456   4.953  0.7310  0.7792 -1.1116
13472TIP3   OH261906   4.925   5.317   2.061 -0.4075  0.6994  0.0430
13472TIP3    H161907   4.995   5.284   2.004 -1.1029  0.3707 -0.6489
13472TIP3    H261908   4.940   5.274   2.145 -0.6324 -0.5212 -0.5204
13473TIP3   OH261909   5.428   4.317   5.484 -0.1901 -0.4972  0.9857
13473TIP3    H161910   5.487   4.390   5.503 -2.0147  1.0130  1.1405
13473TIP3    H261911   5.355   4.356   5.437 -0.9363 -2.3594  0.4784
13474TIP3   OH261912   6.645   3.229   6.116  0.1516  0.6460 -0.0405
13474TIP3    H161913   6.677   3.303   6.063  0.9812 -0.4828 -1.1605
13474TIP3    H261914   6.594   3.271   6.185 -0.0274  2.2420 -1.0697
13475TIP3   OH261915   0.556   4.185  14.848  0.5662  0.5816 -0.2244
13475TIP3    H161916   0.563   4.094  14.875  0.9522  0.2988 -1.2401
13475TIP3    H261917   0.537   4.181  14.754 -0.6796  1.5306 -0.0352
13476TIP3   OH261918   2.972   0.198  14.534  0.0489 -0.0860 -0.9977
13476TIP3    H161919   3.048   0.177  14.587  0.0620 -1.3335 -1.4740
13476TIP3    H261920   3.007   0.226  14.450  0.0109 -1.5291 -1.5288
13477TIP3   OH261921   2.777   0.351  13.586 -0.0893 -0.3027 -0.5002
13477TIP3    H161922   2.715   0.359  13.513  0.3246  0.7788 -0.7656
13477TIP3    H261923   2.768   0.261  13.616 -1.3369 -0.3445 -0.9311
13478TIP3   OH261924   0.046   0.324   0.846  0.4020 -0.2626 -0.9188
13478TIP3    H161925   0.105   0.340   0.773  1.6343  0.1677  0.1387
13478TIP3    H261926  -0.025   0.387   0.834  1.2108  0.6399 -1.1013
13479TIP3   OH261927   4.413   2.032   5.842  0.3366  0.1522  0.1782
13479TIP3    H161928   4.423   2.083   5.923  1.1455 -0.0649  0.2271
13479TIP3    H261929   4.424   2.097   5.772  2.0173 -0.0146  0.2310
13480TIP3   OH261930   4.191   0.955   0.842 -0.3577  0.0394  0.3073
13480TIP3    H161931   4.218   1.047   0.842 -2.0604  0.6256 -2.0659
13480TIP3    H261932   4.262   0.909   0.888  0.3127  2.5561  2.0010
13481TIP3   OH261933   6.162   6.012   0.176  0.4767  0.5695 -0.5031
13481TIP3    H161934   6.174   5.947   0.245  1.4649 -1.7027 -2.6895
13481TIP3    H261935   6.172   6.096   0.221  2.0669 -0.8109  1.9627
13482TIP3   OH261936   2.145   6.745  15.610  0.1304  0.1880 -0.5771
13482TIP3    H161937   2.212   6.740  15.679 -0.6864 -0.6309  0.1918
13482TIP3    H261938   2.121   6.837  15.606  1.9635  0.6789 -1.5455
13483TIP3   OH261939   5.170   4.917   2.020  0.3825  0.1216  0.4357
13483TIP3    H161940   5.145   4.837   1.973 -0.7008  0.4944  0.3744
13483TIP3    H261941   5.251   4.892   2.065  2.0076  0.0007 -2.3086
13484TIP3   OH261942   1.632   6.023   0.626  0.5083  0.2554 -0.2066
13484TIP3    H161943   1.581   6.097   0.658 -1.6675  0.4542 -3.6356
13484TIP3    H261944   1.711   6.062   0.590 -0.3776  0.9627 -1.4977
13485TIP3   OH261945   1.913   5.281   1.148  0.7213 -0.2540  0.0998
13485TIP3    H161946   1.969   5.207   1.125  1.5465  0.0965  0.9156
13485TIP3    H261947   1.973   5.348   1.180 -0.1670  0.1558  0.9607
13486TIP3   OH261948   2.517   4.223  13.671  0.5017  0.1061  0.7229
13486TIP3    H161949   2.507   4.316  13.649  0.3426  0.1661  1.0442
13486TIP3    H261950   2.485   4.216  13.761 -2.4761 -0.8215 -0.3054
13487TIP3   OH261951   3.830   2.851  11.475  0.0700  0.1856 -0.4504
13487TIP3    H161952   3.750   2.817  11.434 -0.2111  1.7327 -1.2391
13487TIP3    H261953   3.899   2.791  11.445 -0.3419  0.4906 -2.1443
13488TIP3   OH261954   2.717   4.564   3.506 -0.2121 -0.3406 -0.4101
13488TIP3    H161955   2.750   4.548   3.594 -0.3152  0.9529 -0.1072
13488TIP3    H261956   2.789   4.609   3.462 -0.9737  1.1087 -0.2353
13489TIP3   OH261957   4.703   6.763  17.017 -0.6001  0.6519 -0.5970
13489TIP3    H161958   4.731   6.855  17.020 -0.5820  0.7000 -1.7246
13489TIP3    H261959   4.632   6.758  17.080  1.0585  0.8351  1.3707
13490TIP3   OH261960   0.579   5.255   1.119 -0.0879 -0.1274  0.1318
13490TIP3    H161961   0.600   5.322   1.054  0.8128  0.0960  0.6346
13490TIP3    H261962   0.525   5.192   1.071  0.4314  0.1038 -0.7948
13491TIP3   OH261963   2.107   1.772  10.623  0.2009  0.5473 -0.6056
13491TIP3    H161964   2.181   1.817  10.583 -0.1512  0.8397 -0.9314
13491TIP3    H261965   2.147   1.710  10.685  0.7728 -0.3208 -1.8110
13492TIP3   OH261966   3.972   2.881   2.477  0.2817 -0.0952 -0.1724
13492TIP3    H161967   3.911   2.915   2.411  1.3302 -0.7229 -1.5222
13492TIP3    H261968   3.918   2.867   2.555 -0.6929  2.2100 -0.3427
13493TIP3   OH261969   6.201   5.854   3.555  0.5152  0.2270 -0.1268
13493TIP3    H161970   6.107   5.852   3.536  0.5836 -0.3704 -0.4065
13493TIP3    H261971   6.206   5.860   3.651  0.1952  0.0546 -0.0985
13494TIP3   OH261972   0.337   0.912   2.234 -0.2164 -0.2601  0.6193
13494TIP3    H161973   0.248   0.945   2.216  0.1822  0.4695 -0.0864
13494TIP3    H261974   0.371   0.888   2.148  0.8613  1.0323  0.6489
13495TIP3   OH261975   3.574   6.142  11.409  0.1831  0.5470 -0.1191
13495TIP3    H161976   3.479   6.137  11.411  0.0653  2.1217 -0.5000
13495TIP3    H261977   3.602   6.122  11.499 -0.4314 -0.6368 -0.1697
13496TIP3   OH261978   5.563   0.281  17.067 -0.3236 -0.6573  0.6378
13496TIP3    H161979   5.486   0.232  17.098  0.1830 -1.3087  0.9074
13496TIP3    H261980   5.529   0.367  17.044 -0.8832 -0.4470  2.1572
13497TIP3   OH261981   2.905   5.360  11.362  0.4715  0.5554  0.1787
13497TIP3    H161982   2.937   5.411  11.288 -0.2098  0.0835 -0.4647
13497TIP3    H261983   2.833   5.308  11.325  1.6599 -1.4915  0.5994
13498TIP3   OH261984   3.249   5.077   1.023  0.3696 -0.7813 -0.0634
13498TIP3    H161985   3.229   5.162   0.983  1.1807 -0.3262  0.4798
13498TIP3    H261986   3.179   5.020   0.991 -0.4403  0.1851 -0.1019
13499TIP3   OH261987   1.555   5.866   3.403 -0.4143 -0.2704 -0.0573
13499TIP3    H161988   1.503   5.795   3.365 -0.1164 -0.5780  0.1070
13499TIP3    H261989   1.558   5.846   3.497  0.9497 -0.8863 -0.2066
13500TIP3   OH261990   5.212   6.685  13.015  0.0523 -0.3002  0.4214
13500TIP3    H161991   5.184   6.770  13.050 -0.2137 -0.2865  0.1767
13500TIP3    H261992   5.296   6.704  12.973  2.2242 -0.9385  3.9819
13501TIP3   OH261993   1.857   5.669  14.325  0.4355 -0.6536  0.0068
13501TIP3    H161994   1.857   5.574  14.340  1.2187 -0.4892  1.0744
13501TIP3    H261995   1.806   5.705  14.397  0.3102 -0.2384 -0.2844
13502TIP3   OH261996   2.227   5.085   0.870  0.7557  0.2450 -0.5478
13502TIP3    H161997   2.300   5.024   0.874  0.6663  0.1948  0.7528
13502TIP3    H261998   2.263   5.163   0.828  1.1750 -0.2693 -1.1571
13503TIP3   OH261999   2.992   3.175  16.760  0.0718 -0.5835 -0.1010
13503TIP3    H162000   2.986   3.158  16.854  2.6428 -0.1078  0.2365
13503TIP3    H262001   3.085   3.162  16.739  0.3825  3.0370 -1.7652
13504TIP3   OH262002   4.032   5.668   1.062 -0.3261 -0.3889  0.3034
13504TIP3    H162003   4.094   5.617   1.114  2.7467  0.5163 -2.1021
13504TIP3    H262004   4.000   5.607   0.995  1.6381  0.1397 -1.2201
13505TIP3   OH262005   0.172   2.571   4.222  0.4176 -0.3151  0.1040
13505TIP3    H162006   0.125   2.489   4.236  1.9083 -1.0867  0.7469
13505TIP3    H262007   0.183   2.577   4.128 -1.8428  0.4272 -0.1849
13506TIP3   OH262008   0.029   3.871   6.066 -0.3158 -0.0144 -0.4203
13506TIP3    H162009   0.072   3.852   5.982 -0.8915  0.6293 -0.8680
13506TIP3    H262010   0.033   3.788   6.114  0.9563 -0.1162 -0.6550
13507TIP3   OH262011   1.433   1.990  14.752  0.2540  0.3248 -0.1697
13507TIP3    H162012   1.454   1.995  14.846  0.7122  0.4655 -0.2770
13507TIP3    H262013   1.415   1.898  14.737  1.6759  0.0285 -0.2453
13508TIP3   OH262014   1.184   3.197   5.017 -0.2552  0.2044  0.1432
13508TIP3    H162015   1.090   3.200   5.037  0.0803  0.0987  1.8479
13508TIP3    H262016   1.188   3.206   4.921 -1.9337  1.3223  0.1308
13509TIP3   OH262017   4.291   6.144   3.991 -0.2251  0.3223  0.3582
13509TIP3    H162018   4.221   6.105   3.940 -1.3288  1.5318  0.8962
13509TIP3    H262019   4.302   6.232   3.953  1.9280 -0.2859 -0.5869
13510TIP3   OH262020   0.015   0.929   2.778 -0.2804 -0.2650 -0.3760
13510TIP3    H162021   0.068   1.007   2.760 -0.7602  0.3039  0.6521
13510TIP3    H262022   0.079   0.858   2.782  0.1312 -0.0003 -1.6013
13511TIP3   OH262023   6.185   1.482   4.989 -0.5937 -0.3187  0.5217
13511TIP3    H162024   6.178   1.389   4.967  2.2832 -0.8663  1.4108
13511TIP3    H262025   6.119   1.496   5.056 -2.3209 -1.2267 -0.9149
13512TIP3   OH262026   3.058   6.384  12.732  0.2971  0.4484 -0.1892
13512TIP3    H162027   3.096   6.432  12.657 -0.0598  2.4025  0.8046
13512TIP3    H262028   3.104   6.420  12.808  0.7748 -1.6334  0.5538
13513TIP3   OH262029   4.807   6.589  15.117 -0.4907 -0.4827 -0.6833
13513TIP3    H162030   4.882   6.637  15.080 -1.0970 -1.0184 -2.7303
13513TIP3    H262031   4.731   6.625  15.072 -1.1748 -1.8867 -0.6914
13514TIP3   OH262032   6.384   1.627   3.557 -0.0940  0.1301  0.3505
13514TIP3    H162033   6.436   1.616   3.637  0.3207 -0.9538 -0.0449
13514TIP3    H262034   6.431   1.577   3.491 -1.9159 -1.3815  0.0978
13515TIP3   OH262035   4.438   5.769   3.952  0.2389  0.4771 -0.0091
13515TIP3    H162036   4.482   5.847   3.918 -0.1234  1.3237  1.3921
13515TIP3    H262037   4.423   5.788   4.045 -1.8863 -0.3235 -0.1304
13516TIP3   OH262038   1.913   2.077  16.516  0.5585  0.2454  0.0871
13516TIP3    H162039   1.830   2.105  16.555  0.1444 -0.7793 -0.0025
13516TIP3    H262040   1.917   2.123  16.433  1.5519  2.6172  1.3813
13517TIP3   OH262041   2.157   2.159   2.208 -1.0019 -0.3749 -0.2147
13517TIP3    H162042   2.126   2.249   2.222  0.6752  0.2619 -0.2813
13517TIP3    H262043   2.248   2.161   2.237 -0.9690 -2.1056 -0.1132
13518TIP3   OH262044   6.415   6.538  11.910 -0.2363  0.0979 -0.2381
13518TIP3    H162045   6.374   6.595  11.844  1.5577 -0.1307 -1.6334
13518TIP3    H262046   6.452   6.466  11.859  1.6996  0.1947  0.9367
13519TIP3   OH262047   3.194   2.804   4.393  0.2940  0.6715  0.1630
13519TIP3    H162048   3.165   2.724   4.437 -0.2163  1.8373  2.0544
13519TIP3    H262049   3.142   2.807   4.313 -0.5033 -0.3257  0.6176
13520TIP3   OH262050   4.971   4.535  11.356 -0.4173  0.1957 -0.3575
13520TIP3    H162051   5.034   4.476  11.314 -2.5541 -1.6721 -1.1037
13520TIP3    H262052   5.025   4.606  11.390  2.0735 -1.2084 -1.0965
13521TIP3   OH262053   5.405   2.541   1.020 -0.1703 -0.6440 -0.1904
13521TIP3    H162054   5.455   2.486   0.960  0.5419  0.5010 -0.6941
13521TIP3    H262055   5.457   2.543   1.100 -0.2789 -0.8413 -0.1160
13522TIP3   OH262056   5.981   3.211  12.952  0.1666  0.6106  0.4148
13522TIP3    H162057   5.887   3.193  12.954 -0.0995  1.8852  0.4050
13522TIP3    H262058   6.012   3.187  13.040  0.1601 -1.3144 -0.0679
13523TIP3   OH262059   3.697   0.532  13.018 -0.5791 -0.5381 -0.1890
13523TIP3    H162060   3.670   0.618  12.986 -0.9428 -0.5916 -0.0320
13523TIP3    H262061   3.642   0.516  13.095  0.3736 -0.3613  0.5393
13524TIP3   OH262062   1.364   0.992   0.964 -0.0740  0.5642  0.3489
13524TIP3    H162063   1.362   0.951   1.051 -0.7981 -0.3472 -0.0798
13524TIP3    H262064   1.404   1.078   0.979  0.9020 -0.0404  1.3837
13525TIP3   OH262065   2.135   5.117  16.408  0.2377  0.3546  0.4157
13525TIP3    H162066   2.145   5.202  16.365  0.1945 -0.8429 -2.1534
13525TIP3    H262067   2.064   5.074  16.360  1.0549 -1.5711  0.8338
13526TIP3   OH262068   2.367   0.060   0.828  0.1018  0.1823 -0.0500
13526TIP3    H162069   2.372  -0.015   0.768  0.6411 -0.7921  1.1673
13526TIP3    H262070   2.408   0.132   0.780  1.7530 -0.9072 -0.3636
13527TIP3   OH262071   4.895   6.142   6.698  0.3823  0.5354 -0.0416
13527TIP3    H162072   4.808   6.102   6.700 -0.4649  2.2524  2.8553
13527TIP3    H262073   4.885   6.221   6.645  0.2454  0.6135  0.1025
13528TIP3   OH262074   6.437   4.524   3.151 -0.4820 -0.2990 -0.2940
13528TIP3    H162075   6.530   4.540   3.164 -0.6874  0.0850  0.7943
13528TIP3    H262076   6.396   4.547   3.235 -1.7855  1.4063 -1.3163
13529TIP3   OH262077   0.888   1.192  16.673  0.1264 -0.2137  0.7831
13529TIP3    H162078   0.960   1.253  16.687 -0.1399  1.1981 -2.8662
13529TIP3    H262079   0.831   1.236  16.609 -1.5083 -3.1902 -0.0011
13530TIP3   OH262080   2.626   0.869  15.697  0.4474  0.0702 -0.3368
13530TIP3    H162081   2.538   0.848  15.667 -0.9776  2.4932  1.7498
13530TIP3    H262082   2.672   0.897  15.618 -0.8843 -0.5097 -1.3521
13531TIP3   OH262083   2.817   4.942   5.497 -0.2296  0.1024  0.3755
13531TIP3    H162084   2.852   5.027   5.471 -0.1987  0.6666  2.1014
13531TIP3    H262085   2.848   4.930   5.587  0.4514 -2.1231 -0.0831
13532TIP3   OH262086   5.407   1.666  13.085 -0.4106  0.3300 -0.2595
13532TIP3    H162087   5.447   1.721  13.153  0.2355 -0.5949  0.1289
13532TIP3    H262088   5.374   1.728  13.020  1.4900  1.1518 -0.5144
13533TIP3   OH262089   0.403   3.204  12.553 -0.3598 -0.0072 -0.0875
13533TIP3    H162090   0.402   3.162  12.639  0.8623  0.8082  0.3610
13533TIP3    H262091   0.433   3.293  12.571 -1.2851  0.5620 -1.2193
13534TIP3   OH262092   4.968   0.835   1.946 -0.4528  0.3748 -0.0922
13534TIP3    H162093   4.946   0.767   2.009  1.5069 -1.1515 -0.9573
13534TIP3    H262094   4.910   0.818   1.872 -0.4084  0.0540 -0.0543
13535TIP3   OH262095   6.352   4.082   4.387 -0.0921  0.2967 -0.1124
13535TIP3    H162096   6.322   4.036   4.308  1.2610  1.2959 -1.2324
13535TIP3    H262097   6.367   4.011   4.450  0.6898 -0.7221 -1.3780
13536TIP3   OH262098   2.021   5.985   4.176  0.3779  0.4916  0.3893
13536TIP3    H162099   1.959   5.919   4.209 -0.9300  1.3157 -0.3338
13536TIP3    H262100   2.021   6.053   4.243 -0.7490  1.2328 -0.3341
13537TIP3   OH262101   4.286   0.564  14.209 -0.4644 -0.1996 -0.9130
13537TIP3    H162102   4.194   0.540  14.208 -0.1452 -1.5181 -0.4742
13537TIP3    H262103   4.288   0.653  14.174 -2.2640  1.2307  2.2634
13538TIP3   OH262104   0.555   1.834  16.378 -0.2223 -0.1767 -0.2522
13538TIP3    H162105   0.564   1.765  16.312 -1.5506 -1.4136  0.7998
13538TIP3    H262106   0.543   1.787  16.460 -1.4310  1.3002  0.4724
13539TIP3   OH262107   1.196   5.492   2.686  0.3250  0.1251  0.2000
13539TIP3    H162108   1.225   5.548   2.758  1.7225 -1.6480  1.0885
13539TIP3    H262109   1.240   5.528   2.609  0.2493  0.9635  0.5421
13540TIP3   OH262110   2.892   4.959  13.177  0.2013  0.0266  0.1402
13540TIP3    H162111   2.975   4.995  13.206  0.7315 -1.0926  0.0636
13540TIP3    H262112   2.860   5.021  13.110  0.6689  0.7681  0.5974
13541TIP3   OH262113   2.690   4.190   1.117 -0.4992  0.2505 -0.0861
13541TIP3    H162114   2.652   4.243   1.187  0.5436 -2.0661  2.4646
13541TIP3    H262115   2.615   4.159   1.066 -1.2466  2.4677 -0.4539
13542TIP3   OH262116   5.167   4.150   2.997  0.8316  0.3193  0.5519
13542TIP3    H162117   5.112   4.216   2.955 -0.9643 -0.2058  1.9008
13542TIP3    H262118   5.126   4.136   3.083  1.7792 -1.7357  0.7398
13543TIP3   OH262119   1.247   6.646   1.296  0.4292  0.0954 -0.4071
13543TIP3    H162120   1.298   6.619   1.219  2.2988  0.5153  0.6083
13543TIP3    H262121   1.313   6.655   1.365 -1.0902  0.5402  1.0276
13544TIP3   OH262122   4.040   2.934  14.433  0.0387 -0.5914  0.3470
13544TIP3    H162123   4.008   2.943  14.342  0.2150  1.2350  0.4148
13544TIP3    H262124   4.135   2.936  14.425  0.0559 -0.6050  0.5548
13545TIP3   OH262125   6.701   0.494  17.442 -0.5616  0.4638  0.4454
13545TIP3    H162126   6.727   0.437  17.369 -0.0342 -1.0289  1.7432
13545TIP3    H262127   6.647   0.562  17.401 -0.2661 -0.3070 -1.3330
13546TIP3   OH262128   1.088   1.383  16.730  0.0854  0.7425 -0.3786
13546TIP3    H162129   1.144   1.453  16.765  1.1817  0.1672 -0.9095
13546TIP3    H262130   1.011   1.429  16.696  0.0174  1.5212  0.7681
13547TIP3   OH262131   3.480   5.442  11.538  0.4194 -0.3017  0.6404
13547TIP3    H162132   3.390   5.440  11.572 -0.0482  2.8240 -0.1032
13547TIP3    H262133   3.535   5.447  11.617 -0.2707  0.7672  1.0790
13548TIP3   OH262134   1.861   0.127  17.095 -0.5998  0.2724  0.4060
13548TIP3    H162135   1.933   0.100  17.153 -0.2410 -0.0879 -0.2000
13548TIP3    H262136   1.823   0.045  17.064 -2.6013  0.3917  2.2808
13549TIP3   OH262137   2.494   0.892  12.333  0.3798  0.4449  0.6810
13549TIP3    H162138   2.538   0.859  12.254  2.1107 -0.7282  2.0389
13549TIP3    H262139   2.465   0.980  12.310  1.0645  0.2316 -1.1665
13550TIP3   OH262140   0.404   4.135   0.488  0.6079 -0.2322 -0.3188
13550TIP3    H162141   0.426   4.212   0.435 -1.5862 -0.1152 -1.1747
13550TIP3    H262142   0.384   4.067   0.424  1.6759 -1.2950  0.4329
13551TIP3   OH262143   3.619   2.042  13.910 -0.2807 -0.2223  0.8828
13551TIP3    H162144   3.659   2.008  13.990  0.4485 -0.6534  0.3447
13551TIP3    H262145   3.683   2.103  13.874 -1.0429  0.7692  1.1576
13552TIP3   OH262146   5.300   1.495  15.455  0.5424  0.4146  0.5132
13552TIP3    H162147   5.255   1.473  15.373 -0.1494 -0.8422  1.2032
13552TIP3    H262148   5.393   1.496  15.432  0.4718 -1.3459 -0.0217
13553TIP3   OH262149   5.254   2.689  12.471 -0.5064 -0.4780  0.7269
13553TIP3    H162150   5.292   2.665  12.555  1.6297 -0.4588 -0.1563
13553TIP3    H262151   5.271   2.783  12.462 -0.6096 -0.5009  0.2311
13554TIP3   OH262152   6.693   6.300   0.911  0.2575  0.1977 -0.0338
13554TIP3    H162153   6.742   6.382   0.904  0.1321  0.1609 -1.6918
13554TIP3    H262154   6.606   6.322   0.879 -0.2676 -0.1919  1.1137
13555TIP3   OH262155   1.492   4.439   2.311 -0.4568  0.4404 -0.1648
13555TIP3    H162156   1.485   4.493   2.232  2.6118  0.4124 -0.5810
13555TIP3    H262157   1.476   4.350   2.281  0.2990  0.4757 -0.6970
13556TIP3   OH262158   2.788   2.475   2.306  0.4161 -0.3514  0.1294
13556TIP3    H162159   2.780   2.518   2.220  3.3802 -2.4254 -1.3814
13556TIP3    H262160   2.842   2.535   2.358 -0.0922  0.2065  0.0319
13557TIP3   OH262161   1.621   3.520   2.621 -0.8495  0.8173 -0.4212
13557TIP3    H162162   1.688   3.539   2.686 -0.9033 -0.7046  0.1283
13557TIP3    H262163   1.573   3.445   2.658 -1.0027  0.0309 -2.1178
13558TIP3   OH262164   4.255   3.739   2.259 -0.3453  0.2077 -0.4900
13558TIP3    H162165   4.175   3.706   2.217  0.0295 -0.8259 -0.4372
13558TIP3    H262166   4.238   3.729   2.353  0.5826 -1.9773 -0.4910
13559TIP3   OH262167   2.179   2.175  16.917  0.2003  0.1062  0.2897
13559TIP3    H162168   2.143   2.191  16.829 -1.6445  1.9112  1.2824
13559TIP3    H262169   2.242   2.245  16.930  1.0430 -0.6116  0.1425
13560TIP3   OH262170   3.739   6.258  12.691  0.0347 -0.4619  0.0379
13560TIP3    H162171   3.705   6.337  12.733 -1.2989  0.5065 -2.6256
13560TIP3    H262172   3.675   6.190  12.713  0.6451 -0.6044  1.4945
13561TIP3   OH262173   5.888   1.036  14.446  0.3533 -0.6822 -0.1536
13561TIP3    H162174   5.931   0.966  14.496 -1.8528 -1.5452  0.6750
13561TIP3    H262175   5.882   1.109  14.508  0.9600 -0.4058 -0.4098
13562TIP3   OH262176   5.800   5.561  15.092 -0.2635  0.1144 -0.0304
13562TIP3    H162177   5.794   5.648  15.054 -1.6702 -0.0624 -0.2613
13562TIP3    H262178   5.851   5.573  15.172 -0.2407  1.1087 -0.1875
13563TIP3   OH262179   0.390   2.977  16.720  0.4487 -0.1195  0.1911
13563TIP3    H162180   0.468   3.029  16.738  0.8025 -1.1792  1.9635
13563TIP3    H262181   0.376   2.927  16.800 -3.2494  1.4927  0.7564
13564TIP3   OH262182   5.247   6.112  15.006  0.3847  0.8067 -0.0924
13564TIP3    H162183   5.219   6.088  14.917 -3.2274  3.4291  0.1071
13564TIP3    H262184   5.320   6.172  14.993  1.1581 -0.3170 -1.1550
13565TIP3   OH262185   4.315   5.683  13.519  0.0804  0.3172  0.7804
13565TIP3    H162186   4.254   5.610  13.529 -0.1118  0.4979  0.9436
13565TIP3    H262187   4.382   5.668  13.585  0.5556 -0.2139  0.1973
13566TIP3   OH262188   0.358   3.356   5.962  0.1980 -0.0222 -0.2683
13566TIP3    H162189   0.317   3.441   5.948  0.1704 -0.3591 -2.5723
13566TIP3    H262190   0.324   3.327   6.047 -0.4064  1.8790  0.1952
13567TIP3   OH262191   5.651   4.616   2.009 -0.0810  0.1339 -0.4862
13567TIP3    H162192   5.709   4.632   2.084 -0.6816 -0.9290  0.2253
13567TIP3    H262193   5.623   4.526   2.019  0.2559 -0.2112 -2.3116
13568TIP3   OH262194   3.411   1.697  12.988 -0.0080 -0.0800  0.0858
13568TIP3    H162195   3.338   1.701  13.049 -0.1943 -2.4211  0.0845
13568TIP3    H262196   3.484   1.662  13.039  0.7387  0.9140 -0.2688
13569TIP3   OH262197   6.158   0.610   3.589 -0.4927  0.1661 -0.3793
13569TIP3    H162198   6.183   0.687   3.641  1.1896  0.5118 -1.6321
13569TIP3    H262199   6.189   0.536   3.640  0.4757  0.4724 -0.4889
13570TIP3   OH262200   5.916   6.601  12.612 -0.6454  0.6264  0.0135
13570TIP3    H162201   5.951   6.663  12.548 -2.9363  1.6423 -0.3761
13570TIP3    H262202   5.847   6.649  12.657 -2.9148 -1.7229 -0.6751
13571TIP3   OH262203   6.208   2.027   3.685 -0.4283  0.5393 -0.0288
13571TIP3    H162204   6.216   2.018   3.590  2.7725 -1.8797  0.2990
13571TIP3    H262205   6.150   1.956   3.711 -0.5281  0.5968 -0.0948
13572TIP3   OH262206   5.690   1.073  15.560 -0.0268  0.0988  0.3799
13572TIP3    H162207   5.720   1.163  15.573  0.8469 -0.0903 -0.2343
13572TIP3    H262208   5.770   1.021  15.554 -0.5154 -1.0204  2.5809
13573TIP3   OH262209   4.657   4.070   5.801  0.4096  0.2081  0.1611
13573TIP3    H162210   4.600   4.107   5.868  0.3452  0.1533  0.1368
13573TIP3    H262211   4.630   4.112   5.719  1.6133  1.5386  0.4175
13574TIP3   OH262212   5.832   6.359   1.678 -0.7614  0.6883  0.4166
13574TIP3    H162213   5.776   6.431   1.648 -0.9523  0.9349  1.3142
13574TIP3    H262214   5.787   6.326   1.756  0.4447  1.0180  1.2745
13575TIP3   OH262215   4.797   6.460   4.336 -0.0589  0.7651  0.2030
13575TIP3    H162216   4.875   6.508   4.365  1.1288  0.7261 -2.5414
13575TIP3    H262217   4.832   6.375   4.306 -1.3570  0.2309  0.1586
13576TIP3   OH262218   0.343   0.222   1.183  0.0311 -0.3064  0.0958
13576TIP3    H162219   0.287   0.146   1.202 -0.7932  0.8632  2.9730
13576TIP3    H262220   0.415   0.215   1.246 -0.0797  1.2528  0.4538
13577TIP3   OH262221   1.980   0.939   4.555  0.1595 -0.2983 -0.5618
13577TIP3    H162222   1.910   0.888   4.597 -0.2207  0.3426 -0.4095
13577TIP3    H262223   1.982   1.021   4.604  1.7849 -0.7409  0.1691
13578TIP3   OH262224   2.549   3.536  10.729 -0.0554  0.4862 -0.1774
13578TIP3    H162225   2.638   3.517  10.700  1.3467  0.7024  3.5337
13578TIP3    H262226   2.558   3.605  10.794 -2.6913 -0.7215  1.6536
13579TIP3   OH262227   2.943   0.051   3.430 -0.2829  0.2825  0.0148
13579TIP3    H162228   2.860   0.098   3.421 -0.1410  0.3291 -1.1017
13579TIP3    H262229   2.953   0.003   3.348  0.3493 -0.4565  0.5089
13580TIP3   OH262230   4.709   3.543  15.009 -0.0687  0.1443  0.2293
13580TIP3    H162231   4.708   3.575  14.919 -1.5440 -0.7507 -0.1052
13580TIP3    H262232   4.617   3.537  15.033  0.2961 -0.0312  1.6609
13581TIP3   OH262233   6.161   3.687  16.053 -0.2976 -0.0217 -0.4711
13581TIP3    H162234   6.094   3.647  16.108 -1.2267  0.6580 -1.0877
13581TIP3    H262235   6.205   3.750  16.111 -1.4791  0.9247 -0.5615
13582TIP3   OH262236   6.609   5.159   2.112  0.1213 -0.3058 -0.7609
13582TIP3    H162237   6.645   5.152   2.024  1.0993  0.5527 -0.4415
13582TIP3    H262238   6.514   5.156   2.099  0.2498 -0.0281 -1.8549
13583TIP3   OH262239   4.178   1.715  12.513  0.6201 -0.0128 -0.5320
13583TIP3    H162240   4.114   1.653  12.548  0.5617  0.3175 -0.0328
13583TIP3    H262241   4.150   1.730  12.423  0.0292  0.0749 -0.3428
13584TIP3   OH262242   4.719   4.257   3.537  0.1063  0.2561 -0.5820
13584TIP3    H162243   4.691   4.288   3.450  1.2614  1.1706 -0.6594
13584TIP3    H262244   4.659   4.300   3.598  0.7930  1.5602 -0.7904
13585TIP3   OH262245   2.522   0.354  11.882  0.0585 -0.3896 -0.4838
13585TIP3    H162246   2.591   0.326  11.942  0.8506  0.7258 -0.8381
13585TIP3    H262247   2.569   0.393  11.808 -0.8041  4.5283  1.1621
13586TIP3   OH262248   2.346   0.044   0.041 -0.2723 -0.5896  0.2501
13586TIP3    H162249   2.301  -0.040   0.051  0.8800 -0.9881  2.8430
13586TIP3    H262250   2.414   0.027  -0.024 -1.7452 -0.8449 -1.2939
13587TIP3   OH262251   5.796   4.996  14.471  0.2772  0.4184  0.2321
13587TIP3    H162252   5.764   5.061  14.409  0.3431 -0.1910 -0.4630
13587TIP3    H262253   5.781   5.034  14.557 -1.1992  0.6538 -0.1025
13588TIP3   OH262254   3.737   3.405   6.259  0.1985  0.4424 -0.2941
13588TIP3    H162255   3.658   3.360   6.286  0.1596  0.5484 -0.2318
13588TIP3    H262256   3.735   3.488   6.306  0.1802  0.5851 -0.5469
13589TIP3   OH262257   1.863   5.921   3.662  0.9261  0.1625  0.4178
13589TIP3    H162258   1.782   5.949   3.704  1.1834 -1.2451  1.9744
13589TIP3    H262259   1.865   5.826   3.674  3.9048  0.3325  2.5909
13590TIP3   OH262260   1.631   2.312   4.101  1.0093  0.0467 -0.3670
13590TIP3    H162261   1.687   2.322   4.024  3.7863 -0.1756  1.4610
13590TIP3    H262262   1.643   2.393   4.150  1.1422 -0.6976  0.8865
13591TIP3   OH262263   3.769   3.927   2.988 -0.7469 -0.7489 -0.3864
13591TIP3    H162264   3.766   3.855   3.050 -0.1899 -0.7356 -0.3395
13591TIP3    H262265   3.863   3.946   2.977 -0.9226  0.9024  0.6761
13592TIP3   OH262266   1.413   5.619   1.247  0.6228  0.4028 -0.0831
13592TIP3    H162267   1.357   5.545   1.226  2.0799 -0.5962 -0.6372
13592TIP3    H262268   1.362   5.696   1.224 -1.2122 -0.3687  1.1773
13593TIP3   OH262269   0.595   1.675   0.144 -0.4289 -1.0188  0.1938
13593TIP3    H162270   0.669   1.656   0.202 -0.9231 -0.7246  0.9234
13593TIP3    H262271   0.635   1.716   0.067  0.0752  0.0483  1.0079
13594TIP3   OH262272   5.545   3.421  12.513  0.5416 -0.0943  0.1290
13594TIP3    H162273   5.505   3.335  12.524 -2.3142  1.1572  0.5242
13594TIP3    H262274   5.572   3.447  12.602 -0.8084  0.3462  0.4367
13595TIP3   OH262275   0.005   3.345  14.859  0.1114  0.5913  0.2116
13595TIP3    H162276  -0.016   3.315  14.770  1.5944  2.6489 -0.9294
13595TIP3    H262277  -0.076   3.334  14.908 -0.7300 -0.7197 -1.3546
13596TIP3   OH262278   2.866   0.195  16.706 -0.4436  0.3628  0.1482
13596TIP3    H162279   2.777   0.181  16.737 -0.1361 -0.0590  0.8796
13596TIP3    H262280   2.885   0.286  16.729 -0.4102  0.2147  0.7365
13597TIP3   OH262281   4.371   2.753   5.814  0.1707  1.1217 -0.1535
13597TIP3    H162282   4.436   2.819   5.788  0.7672  0.3614 -0.6275
13597TIP3    H262283   4.302   2.803   5.856 -0.1438  2.2305 -1.9162
13598TIP3   OH262284   5.490   1.365  16.585  0.3448  0.4480 -0.0751
13598TIP3    H162285   5.446   1.424  16.646  0.9804  1.6149 -0.6986
13598TIP3    H262286   5.576   1.349  16.626  0.5801  0.8306 -0.4098
13599TIP3   OH262287   0.661   4.703   4.199 -0.2624 -0.8141 -0.6220
13599TIP3    H162288   0.700   4.719   4.113 -0.1011  0.0425 -0.3968
13599TIP3    H262289   0.735   4.692   4.258 -0.3066  0.9231 -0.1723
13600TIP3   OH262290   3.410   0.964   5.254 -0.1331 -0.4932  0.4519
13600TIP3    H162291   3.442   0.972   5.343 -0.1111  0.8744  0.3406
13600TIP3    H262292   3.320   0.995   5.258 -0.1157 -0.3757  0.0006
13601TIP3   OH262293   4.124   0.544  10.930  0.7523 -0.4365 -0.6685
13601TIP3    H162294   4.125   0.589  10.845  2.1268  2.2036  0.6266
13601TIP3    H262295   4.136   0.614  10.994  0.5929 -2.4459  1.6906
13602TIP3   OH262296   1.984   1.330  17.068  0.7014 -0.0158  0.2118
13602TIP3    H162297   1.900   1.307  17.109 -0.2111  0.2212 -1.4173
13602TIP3    H262298   2.043   1.344  17.142  0.0947 -2.9158  1.3964
13603TIP3   OH262299   2.181   6.764  14.966 -0.7302  0.3109  0.1782
13603TIP3    H162300   2.098   6.781  15.010 -0.2617  2.7595  0.2649
13603TIP3    H262301   2.243   6.822  15.009  0.0014  2.0233 -2.8556
13604TIP3   OH262302   4.312   1.262   4.975 -0.2772 -0.3945  0.1906
13604TIP3    H162303   4.244   1.329   4.984  0.1736  0.0325  0.4531
13604TIP3    H262304   4.393   1.307   4.999  0.0665 -0.9643  0.1068
13605TIP3   OH262305   2.605   4.657   0.827  0.0469  0.7581 -0.2332
13605TIP3    H162306   2.652   4.590   0.877 -1.9662 -0.2436  0.3988
13605TIP3    H262307   2.541   4.608   0.775  0.4807  1.9821 -2.0313
13606TIP3   OH262308   5.967   2.130  17.071  0.3600  0.1665 -0.1861
13606TIP3    H162309   5.988   2.040  17.097  0.3981 -0.2872 -1.7025
13606TIP3    H262310   5.924   2.168  17.148  2.0216 -0.5303  1.1482
13607TIP3   OH262311   6.432   0.820   5.697  0.0697 -0.1721 -0.0726
13607TIP3    H162312   6.378   0.899   5.694 -0.1594 -0.3063  0.3353
13607TIP3    H262313   6.410   0.780   5.781  1.5103  0.2629  0.5358
13608TIP3   OH262314   2.711   5.906   3.909 -0.0383  0.0298  0.4560
13608TIP3    H162315   2.787   5.848   3.902  0.8761  1.4107 -2.3119
13608TIP3    H262316   2.748   5.990   3.937 -1.0992 -0.1111  2.5348
13609TIP3   OH262317   6.437   1.862  15.447 -0.2027  0.4958 -0.2519
13609TIP3    H162318   6.382   1.797  15.403  0.3964  0.0590 -0.3778
13609TIP3    H262319   6.409   1.859  15.538 -1.1916  1.1297 -0.5192
13610TIP3   OH262320   4.498   3.473   4.169  0.2240 -0.3580  0.1178
13610TIP3    H162321   4.468   3.386   4.143 -0.4414 -0.6138  1.6157
13610TIP3    H262322   4.461   3.532   4.104 -3.6330 -0.6689  1.7858
13611TIP3   OH262323   0.991   5.441   0.738 -0.6823 -0.6701  0.1638
13611TIP3    H162324   1.062   5.453   0.674 -1.5123 -0.0308 -0.6590
13611TIP3    H262325   1.035   5.447   0.823  0.0008  1.9157 -0.2750
13612TIP3   OH262326   0.066   3.747   0.703 -0.6101 -0.8370  0.3119
13612TIP3    H162327   0.077   3.717   0.793 -1.0426 -2.8814 -0.2711
13612TIP3    H262328   0.082   3.670   0.649  0.6181  0.5708 -1.4511
13613TIP3   OH262329   1.967   2.489   4.292 -0.1638  0.1133  0.2360
13613TIP3    H162330   2.013   2.559   4.337 -0.8895  0.5466  0.3132
13613TIP3    H262331   2.034   2.447   4.238  0.3694  0.5777  0.5295
13614TIP3   OH262332   4.216   1.779  10.918 -0.3701 -0.6900 -0.4049
13614TIP3    H162333   4.120   1.781  10.923 -0.4066 -0.0333 -1.1193
13614TIP3    H262334   4.244   1.742  11.001 -1.2740 -1.6146 -0.4979
13615TIP3   OH262335   3.697   1.611  15.800 -0.2677 -0.7403  0.2016
13615TIP3    H162336   3.657   1.688  15.839 -1.7165 -1.7593  0.8234
13615TIP3    H262337   3.653   1.601  15.716  2.0888  0.8235 -1.3668
13616TIP3   OH262338   5.219   2.889  11.149 -0.1443 -0.3319  0.7209
13616TIP3    H162339   5.171   2.972  11.146  0.2062 -0.0579  1.9269
13616TIP3    H262340   5.287   2.898  11.082 -0.9930 -0.2247 -0.1342
13617TIP3   OH262341   3.359   1.774  14.047 -0.3898  0.1269 -0.1555
13617TIP3    H162342   3.287   1.771  14.110 -0.9929  1.5795 -0.7469
13617TIP3    H262343   3.437   1.751  14.099 -1.2617 -1.6618  0.4537
13618TIP3   OH262344   5.972   3.180  12.399 -0.2638 -0.2013  0.1094
13618TIP3    H162345   5.985   3.189  12.305 -0.6310  1.4002  0.1808
13618TIP3    H262346   5.893   3.126  12.407 -1.3253  1.1822 -0.5610
13619TIP3   OH262347   4.221   2.764   2.923  0.3171  0.2408 -0.4963
13619TIP3    H162348   4.258   2.850   2.944  0.5529  0.2359 -0.8850
13619TIP3    H262349   4.204   2.767   2.828  1.7255 -0.6655 -0.8030
13620TIP3   OH262350   3.233   0.659   0.296 -0.3662  0.0596  0.0774
13620TIP3    H162351   3.222   0.723   0.367  0.7606  0.3780 -0.0139
13620TIP3    H262352   3.190   0.580   0.328 -1.5168  0.7612  0.3250
13621TIP3   OH262353   4.952   0.974   5.650  0.2840  0.1003 -0.2219
13621TIP3    H162354   4.895   1.005   5.721 -0.4982 -1.2724 -0.2231
13621TIP3    H262355   5.040   0.998   5.679 -0.1361  0.7062  0.6104
13622TIP3   OH262356   2.359   4.019  12.313 -0.7809  0.6001  0.7357
13622TIP3    H162357   2.431   4.073  12.346  0.3543  1.4181 -2.6398
13622TIP3    H262358   2.400   3.936  12.290 -0.8170  1.0539 -1.1641
13623TIP3   OH262359   1.755   6.147  14.409  0.2372  0.3938  0.3569
13623TIP3    H162360   1.840   6.104  14.400 -0.3262 -0.5322 -0.8361
13623TIP3    H262361   1.742   6.193  14.326 -0.4081  0.5416  0.5337
13624TIP3   OH262362   3.191   4.142  10.798 -0.0512 -0.3193 -0.1653
13624TIP3    H162363   3.238   4.094  10.867 -0.8562 -0.5329  0.2427
13624TIP3    H262364   3.173   4.076  10.731 -0.7471 -0.4879  0.1839
13625TIP3   OH262365   5.107   0.008  16.447 -0.3970  0.2075 -0.5191
13625TIP3    H162366   5.150   0.015  16.361 -0.2672  0.2523 -0.4511
13625TIP3    H262367   5.159  -0.057  16.494 -0.2849  0.4134 -0.3617
13626TIP3   OH262368   4.813   6.591  11.385  0.3788  0.2747  0.2286
13626TIP3    H162369   4.737   6.544  11.350  1.1086 -1.3614  0.7466
13626TIP3    H262370   4.851   6.530  11.449  1.9835  1.1494  0.1515
13627TIP3   OH262371   0.225   1.782   5.423 -0.6253  0.1167 -0.2472
13627TIP3    H162372   0.242   1.780   5.329 -3.1549  0.7484 -0.7916
13627TIP3    H262373   0.272   1.859   5.455 -0.2890  0.2818 -1.1370
13628TIP3   OH262374   5.751   5.711   3.851 -0.0496 -0.0408 -0.4643
13628TIP3    H162375   5.676   5.676   3.899  0.9366 -1.6231  0.0027
13628TIP3    H262376   5.713   5.778   3.794 -1.4552  0.9823  1.5318
13629TIP3   OH262377   0.246   1.174   4.946 -0.0597 -0.2557 -0.1848
13629TIP3    H162378   0.301   1.208   4.875  0.4187  0.4390  0.4990
13629TIP3    H262379   0.257   1.079   4.943  0.7857 -0.1589 -0.3789
13630TIP3   OH262380   0.703   6.232   0.476 -0.3206  0.5504 -0.0134
13630TIP3    H162381   0.618   6.200   0.444 -0.0600 -0.3655  0.1993
13630TIP3    H262382   0.741   6.158   0.522  0.1958  1.2406  0.7043
13631TIP3   OH262383   5.256   6.030   2.903 -0.9925 -0.1031  0.0745
13631TIP3    H162384   5.345   6.049   2.931 -1.7061  0.0613  2.4364
13631TIP3    H262385   5.249   5.935   2.907 -0.9463 -0.1108 -0.0251
13632TIP3   OH262386   2.620   2.727  14.065 -0.3979  0.1423 -0.1472
13632TIP3    H162387   2.709   2.761  14.049 -0.6619  2.5428  2.6833
13632TIP3    H262388   2.617   2.711  14.159 -2.0119 -3.2030 -0.5977
13633TIP3   OH262389   1.939   4.221  16.579  0.1842 -0.0459 -0.0193
13633TIP3    H162390   1.976   4.254  16.497 -0.8194 -0.6362 -0.7389
13633TIP3    H262391   2.013   4.219  16.640  0.8485  0.8599 -0.7631
13634TIP3   OH262392   4.300   3.856  13.081 -0.0931 -0.1087  0.4661
13634TIP3    H162393   4.273   3.900  13.000  2.5685 -1.0616 -1.0636
13634TIP3    H262394   4.224   3.805  13.107 -1.5186  1.3621 -0.5713
13635TIP3   OH262395   3.180   2.031  12.153 -0.2948 -0.4218  0.2392
13635TIP3    H162396   3.244   1.987  12.209 -0.3542 -1.8920 -0.7922
13635TIP3    H262397   3.180   2.122  12.184 -0.5868 -1.2095  2.8474
13636TIP3   OH262398   4.061   4.948  13.689 -0.5741 -0.2009  0.5300
13636TIP3    H162399   4.073   4.855  13.669 -1.7477 -0.4738  1.0120
13636TIP3    H262400   4.114   4.993  13.624 -1.0824 -1.1813 -0.6060
13637TIP3   OH262401   0.109   0.466  13.685 -0.3624  0.4965  0.2457
13637TIP3    H162402   0.191   0.422  13.708  0.0023  1.0887  0.0996
13637TIP3    H262403   0.103   0.457  13.590 -0.8569 -0.2051  0.3345
13638TIP3   OH262404   5.612   4.915  11.972  0.0435  0.1214 -0.2908
13638TIP3    H162405   5.608   4.984  11.906 -1.4926 -0.0438 -0.4151
13638TIP3    H262406   5.697   4.927  12.014  1.4975 -0.3448 -2.8824
13639TIP3   OH262407   3.406   0.757  14.510  0.0932 -0.0842 -0.0505
13639TIP3    H162408   3.441   0.824  14.568  1.4572 -0.0654 -0.8412
13639TIP3    H262409   3.478   0.693  14.501 -0.5194 -0.7030 -0.7454
13640TIP3   OH262410   2.088   6.267   1.692  0.0564 -0.1594  0.3124
13640TIP3    H162411   2.090   6.289   1.785  0.0705  0.8217  0.0913
13640TIP3    H262412   2.008   6.216   1.681  0.0448 -0.2662  0.8505
13641TIP3   OH262413   4.166   2.084   4.101  0.1347  0.2534 -0.7192
13641TIP3    H162414   4.149   2.002   4.054 -0.4030  0.1767 -0.3898
13641TIP3    H262415   4.223   2.059   4.174 -0.5684  0.0599 -0.2315
13642TIP3   OH262416   1.917   1.512  13.891 -0.2518  0.2626  0.0193
13642TIP3    H162417   1.865   1.539  13.815 -2.1606 -2.0795  0.3938
13642TIP3    H262418   1.874   1.552  13.966 -1.7184 -1.7683  0.3412
13643TIP3   OH262419   2.898   1.999  13.356  0.9705  0.1007  0.0732
13643TIP3    H162420   2.864   1.918  13.317 -1.6594  0.6569  1.0122
13643TIP3    H262421   2.974   1.971  13.406 -0.5321 -2.0494  1.3166
13644TIP3   OH262422   4.521   0.113   4.013 -0.0685  0.1546  0.1388
13644TIP3    H162423   4.584   0.114   3.940 -1.5196  0.7445 -1.1657
13644TIP3    H262424   4.464   0.039   3.995  0.3800 -0.5336  1.4517
13645TIP3   OH262425   4.970   5.295  16.544 -0.5389  0.1195 -0.3399
13645TIP3    H162426   4.884   5.274  16.507 -0.4867  0.0632 -0.4308
13645TIP3    H262427   5.012   5.210  16.558 -1.7149 -0.0504  2.6993
13646TIP3   OH262428   6.642   5.317  12.475  0.4959 -0.0856 -0.1884
13646TIP3    H162429   6.717   5.376  12.479  1.8024 -1.6945 -0.1491
13646TIP3    H262430   6.672   5.236  12.517 -1.5126 -0.5248  0.5121
13647TIP3   OH262431   5.203   5.769   6.099 -0.2740  0.2045 -0.2720
13647TIP3    H162432   5.170   5.679   6.099  0.6898 -0.2650 -3.1025
13647TIP3    H262433   5.292   5.762   6.132 -0.1118  0.0704 -0.7354
13648TIP3   OH262434   5.245   0.874   1.889  0.3744  0.0831 -0.4218
13648TIP3    H162435   5.150   0.873   1.893  0.4038  0.6817  0.8909
13648TIP3    H262436   5.273   0.847   1.976  1.4198 -0.4183 -0.8925
13649TIP3   OH262437   1.867   1.454  11.918  0.1095 -0.2026  0.2315
13649TIP3    H162438   1.828   1.465  12.005  0.0150  1.1124  0.0498
13649TIP3    H262439   1.861   1.360  11.901  1.4596 -0.7252  2.2547
13650TIP3   OH262440   4.288   0.060  12.988  0.0555 -0.2986  0.1077
13650TIP3    H162441   4.359   0.120  12.965  1.1711 -0.4046  2.8720
13650TIP3    H262442   4.302  -0.016  12.932  0.8508  0.5308 -0.8673
13651TIP3   OH262443   0.690   2.452  13.187  0.3704 -0.2554 -0.5347
13651TIP3    H162444   0.634   2.378  13.163 -0.6085  0.2092  0.2436
13651TIP3    H262445   0.639   2.500  13.252  1.7699  0.0667  0.3575
13652TIP3   OH262446   1.740   4.635  14.772  0.9436 -0.0915  0.3714
13652TIP3    H162447   1.753   4.667  14.862  1.1574  2.5551 -0.4926
13652TIP3    H262448   1.648   4.607  14.770  1.0121 -0.4412  1.4840
13653TIP3   OH262449   6.621   3.708   2.851 -0.0250  0.0167 -0.1948
13653TIP3    H162450   6.626   3.772   2.922 -0.6094 -0.0654 -0.0693
13653TIP3    H262451   6.559   3.747   2.789 -2.7911 -1.6808  1.2524
13654TIP3   OH262452   5.516   2.039   2.963  0.6246  0.2313 -0.5051
13654TIP3    H162453   5.581   2.103   2.992  2.0355 -1.1729 -0.4883
13654TIP3    H262454   5.500   2.061   2.871 -0.1895  1.6452 -0.0488
13655TIP3   OH262455   3.966   6.085   0.380 -0.1336 -0.7114 -0.0426
13655TIP3    H162456   3.968   6.132   0.297 -1.0775 -2.7783 -1.3358
13655TIP3    H262457   3.911   6.138   0.438  1.3068  1.2329 -0.3701
13656TIP3   OH262458   2.492   4.930   5.517 -0.3282 -0.4901  0.2113
13656TIP3    H162459   2.565   4.938   5.578  0.3745  0.2074 -0.7018
13656TIP3    H262460   2.520   4.863   5.454 -0.5461 -0.3498 -0.0391
13657TIP3   OH262461   0.893   3.758  12.441 -0.0145 -0.2219 -0.4468
13657TIP3    H162462   0.826   3.813  12.481  0.3725  1.1623 -1.6000
13657TIP3    H262463   0.887   3.777  12.348  1.4464 -0.6686 -0.6631
13658TIP3   OH262464   1.208   2.367  14.737 -0.4543 -0.2697  0.1308
13658TIP3    H162465   1.163   2.412  14.666 -0.7550 -1.7956 -0.6750
13658TIP3    H262466   1.259   2.299  14.694 -0.0155 -0.7076  1.3106
13659TIP3   OH262467   1.865   5.908  11.794  0.7719 -0.1023  0.3334
13659TIP3    H162468   1.852   5.985  11.851  1.8660  0.8185 -0.6228
13659TIP3    H262469   1.918   5.940  11.722  0.1223 -1.4614 -0.7933
13660TIP3   OH262470   6.524   3.051   5.522  0.6247 -0.5620  0.0681
13660TIP3    H162471   6.457   3.078   5.584  1.1360 -0.0428  0.4054
13660TIP3    H262472   6.587   3.124   5.520  0.9312 -0.8275 -0.6009
13661TIP3   OH262473   4.706   5.214  11.576  0.3733  0.0924  0.2421
13661TIP3    H162474   4.702   5.297  11.622  2.0903 -0.6482  1.8593
13661TIP3    H262475   4.721   5.237  11.485 -1.3335  1.5590  0.2828
13662TIP3   OH262476   6.126   6.180   2.792 -0.3333  0.1113  0.0716
13662TIP3    H162477   6.194   6.226   2.842  0.9265 -0.7816 -0.7421
13662TIP3    H262478   6.113   6.098   2.839 -0.3289 -0.0251 -0.1624
13663TIP3   OH262479   4.046   1.674  16.926  0.3875  0.0752  0.1139
13663TIP3    H162480   4.003   1.617  16.862  1.3928  1.2810 -1.7488
13663TIP3    H262481   4.065   1.754  16.877  0.1462  1.5397  2.2943
13664TIP3   OH262482   3.359   2.763   6.262 -0.3729  0.1966 -0.0202
13664TIP3    H162483   3.308   2.748   6.341 -0.8606 -0.9801 -0.5371
13664TIP3    H262484   3.295   2.793   6.197 -0.0605  0.6840 -0.1064
13665TIP3   OH262485   5.093   6.163  16.440 -0.2787 -0.0678 -0.3546
13665TIP3    H162486   5.097   6.196  16.350  1.4380  0.7501 -0.0282
13665TIP3    H262487   5.073   6.070  16.431  1.5732 -0.3879 -1.7016
13666TIP3   OH262488   6.063   4.493   1.148 -0.0458  0.4167 -0.8094
13666TIP3    H162489   6.137   4.522   1.093 -0.6640 -0.5650 -2.2207
13666TIP3    H262490   6.103   4.431   1.209  0.5059  0.8562 -0.7051
13667TIP3   OH262491   3.174   4.613   0.810 -0.8853 -0.5672  0.2941
13667TIP3    H162492   3.129   4.528   0.814 -0.3045 -0.9111 -0.2800
13667TIP3    H262493   3.256   4.598   0.856 -1.2609  0.0130  1.1865
13668TIP3   OH262494   2.221   4.011  15.658 -0.1894  0.5685 -0.0856
13668TIP3    H162495   2.298   3.962  15.686  0.6371  1.6610 -0.3624
13668TIP3    H262496   2.151   3.983  15.717  0.9280  1.0843  1.5410
13669TIP3   OH262497   3.884   1.264   5.075  0.0801  0.1989  0.1550
13669TIP3    H162498   3.888   1.169   5.064  1.6741  0.4226 -1.9666
13669TIP3    H262499   3.891   1.278   5.169  0.1053 -1.7716  0.4862
13670TIP3   OH262500   0.809   0.884  14.657  0.0664  0.3457 -0.1789
13670TIP3    H162501   0.718   0.907  14.677 -0.3863 -1.4595  0.0045
13670TIP3    H262502   0.861   0.933  14.721 -0.9770 -0.7252  1.5615
13671TIP3   OH262503   2.451   2.563   5.806 -0.4581 -0.1694 -0.0057
13671TIP3    H162504   2.473   2.639   5.752 -2.5676 -0.4278 -1.3325
13671TIP3    H262505   2.535   2.535   5.843  1.1959 -0.1974 -3.4180
13672TIP3   OH262506   1.029   3.437  16.940  0.4193  0.0266 -0.2264
13672TIP3    H162507   0.982   3.520  16.945 -0.6058 -0.5754  0.7545
13672TIP3    H262508   0.967   3.373  16.975  0.9432 -1.2620 -1.5385
13673TIP3   OH262509   2.162   6.632   4.416 -0.3203 -0.0706 -0.1903
13673TIP3    H162510   2.214   6.658   4.492  0.9703 -0.6435 -0.8365
13673TIP3    H262511   2.215   6.659   4.341 -0.7144 -1.1257 -0.8689
13674TIP3   OH262512   4.349   0.089  14.403  1.2537  0.0437 -0.2568
13674TIP3    H162513   4.365   0.006  14.358 -0.7203 -0.9378  0.7233
13674TIP3    H262514   4.363   0.156  14.336  1.4107 -1.1758 -1.4764
13675TIP3   OH262515   2.822   4.857   3.585  0.1858  0.0143 -0.3010
13675TIP3    H162516   2.787   4.778   3.627  1.5566 -0.2590  0.4087
13675TIP3    H262517   2.858   4.908   3.657 -1.6989  1.8857 -0.6117
13676TIP3   OH262518   0.093   6.148   1.720 -0.1020 -0.1146  0.1377
13676TIP3    H162519   0.117   6.165   1.812  0.9418  1.4757 -0.3906
13676TIP3    H262520   0.097   6.233   1.678 -1.8708 -0.6135 -1.1386
13677TIP3   OH262521   3.830   6.703   4.800  0.2889 -0.3124  0.1748
13677TIP3    H162522   3.852   6.734   4.888 -1.4849  0.0864  0.5172
13677TIP3    H262523   3.754   6.646   4.812 -0.9254  0.9206 -1.2340
13678TIP3   OH262524   1.649   2.287   5.927 -0.0759  0.2808  0.3849
13678TIP3    H162525   1.598   2.288   5.846 -1.0365  0.7491  0.9835
13678TIP3    H262526   1.584   2.285   5.997  0.7417 -0.0104  1.1584
13679TIP3   OH262527   0.911   2.320   1.686  0.4407 -0.2141  0.4027
13679TIP3    H162528   0.913   2.416   1.683  1.0495 -0.2296 -1.5485
13679TIP3    H262529   0.820   2.297   1.669  0.1230 -0.0019  1.7150
13680TIP3   OH262530   4.999   5.712   5.078 -0.3642 -0.5228  0.3768
13680TIP3    H162531   4.958   5.659   5.009 -2.9054 -0.5303  1.7855
13680TIP3    H262532   5.046   5.649   5.133  0.2092 -0.7301 -0.3317
13681TIP3   OH262533   6.765   1.716   2.386 -0.2978  0.3016  0.4814
13681TIP3    H162534   6.743   1.780   2.454  1.2197 -0.5390  1.8375
13681TIP3    H262535   6.771   1.633   2.434 -0.5526 -0.5597 -0.9415
13682TIP3   OH262536   0.799   2.635  14.443 -0.0599 -0.1626  0.0273
13682TIP3    H162537   0.788   2.542  14.461  1.1398 -0.2407  0.4771
13682TIP3    H262538   0.752   2.650  14.361  1.5773 -1.6451 -1.2619
13683TIP3   OH262539   4.536   1.527   3.708 -0.6519 -0.0287 -0.3887
13683TIP3    H162540   4.516   1.543   3.800 -1.0333 -2.0389 -0.0560
13683TIP3    H262541   4.496   1.441   3.690  0.4847 -0.2493 -2.0811
13684TIP3   OH262542   1.223   3.736   5.383 -0.1744  0.0327  0.2599
13684TIP3    H162543   1.299   3.697   5.341  0.4862  0.8943  0.6330
13684TIP3    H262544   1.238   3.724   5.477  0.0800  1.2406  0.3846
13685TIP3   OH262545   6.454   1.486   5.854 -0.4612  0.4225  0.1923
13685TIP3    H162546   6.525   1.543   5.882 -0.5364  0.6594 -0.0946
13685TIP3    H262547   6.428   1.520   5.768  0.9799 -1.3988 -1.0325
13686TIP3   OH262548   5.270   1.183  15.357 -0.2636  0.3812 -0.7244
13686TIP3    H162549   5.314   1.178  15.442 -1.4507 -1.7223 -0.1709
13686TIP3    H262550   5.324   1.243  15.306  0.3882  1.8597  1.5469
13687TIP3   OH262551   4.936   1.922   4.791  0.7224 -0.0430 -0.1186
13687TIP3    H162552   5.023   1.882   4.795  0.9098  0.3557 -0.1153
13687TIP3    H262553   4.925   1.945   4.699  1.1857  1.1230  0.1025
13688TIP3   OH262554   6.595   0.949  13.044  0.5699  0.5931 -0.5442
13688TIP3    H162555   6.572   0.914  12.958  1.1852  0.5753 -0.7064
13688TIP3    H262556   6.658   0.886  13.080  2.4058  1.9260 -1.2171
13689TIP3   OH262557   1.515   5.522  10.621  0.4560  0.2785  0.6991
13689TIP3    H162558   1.593   5.471  10.641  0.1477 -1.0168 -1.1592
13689TIP3    H262559   1.541   5.613  10.635  2.2865 -0.1379  0.1568
13690TIP3   OH262560   2.212   1.814   5.794 -0.2182 -0.1775 -0.3670
13690TIP3    H162561   2.222   1.797   5.888 -0.7924  0.4101 -0.1846
13690TIP3    H262562   2.263   1.894   5.779  0.8672 -0.9336 -0.8110
13691TIP3   OH262563   0.304   1.629  17.221 -0.1539 -0.1467 -0.1861
13691TIP3    H162564   0.385   1.583  17.198 -0.2125 -0.9184  1.0500
13691TIP3    H262565   0.320   1.662  17.309 -1.1805 -0.3127  0.0795
13692TIP3   OH262566   0.506   1.828   0.506  0.0501 -0.8084 -0.6447
13692TIP3    H162567   0.537   1.790   0.588  2.0791 -1.0044 -1.4378
13692TIP3    H262568   0.436   1.888   0.532  0.8011 -0.6851  1.2537
13693TIP3   OH262569   3.161   2.787  15.358  0.0345 -0.3805 -0.3585
13693TIP3    H162570   3.250   2.755  15.339  0.9063  0.8151  1.5215
13693TIP3    H262571   3.146   2.763  15.449 -0.3980  2.0152  0.2438
13694TIP3   OH262572   2.221   5.272   2.519 -0.2686 -0.0489  0.3030
13694TIP3    H162573   2.142   5.234   2.482  0.2001 -1.5321  0.7730
13694TIP3    H262574   2.285   5.268   2.448 -0.6920  1.5267 -0.2103
13695TIP3   OH262575   2.553   2.791   5.667 -0.3535  0.1383 -0.1179
13695TIP3    H162576   2.564   2.862   5.731 -1.2151  0.2525 -0.0765
13695TIP3    H262577   2.642   2.764   5.645 -0.0122  1.2018 -0.0971
13696TIP3   OH262578   2.790   4.475   0.949 -0.1386 -0.1123 -0.8376
13696TIP3    H162579   2.799   4.420   1.027  1.5389  1.4394  0.1409
13696TIP3    H262580   2.879   4.503   0.929 -0.4992 -0.5792 -3.4541
13697TIP3   OH262581   0.895   3.397   1.245 -0.2836 -0.6255  0.4237
13697TIP3    H162582   0.829   3.453   1.204 -0.3871 -0.9211  0.1936
13697TIP3    H262583   0.975   3.451   1.245 -0.5697 -0.1893  0.8904
13698TIP3   OH262584   0.736   5.203  17.359  0.2527  0.2583 -0.3345
13698TIP3    H162585   0.791   5.281  17.368  0.6730 -0.1689  0.9626
13698TIP3    H262586   0.764   5.145  17.430 -1.2655 -0.3576 -0.2141
13699TIP3   OH262587   3.207   0.344   5.541 -0.1570 -0.1718 -0.3871
13699TIP3    H162588   3.180   0.426   5.499 -1.7389 -1.2039 -1.5216
13699TIP3    H262589   3.163   0.345   5.626  1.4661  1.0296  0.4952
13700TIP3   OH262590   0.122   2.091  11.729 -0.7506  0.5727  0.3793
13700TIP3    H162591   0.191   2.039  11.688  0.0381  0.6015  1.6532
13700TIP3    H262592   0.046   2.032  11.728 -0.8932  0.7034 -1.4395
13701TIP3   OH262593   0.220   3.562  13.737 -0.5838 -0.4250 -0.6743
13701TIP3    H162594   0.208   3.470  13.760 -0.2709 -0.1384  0.7460
13701TIP3    H262595   0.266   3.600  13.812 -0.0703  0.7424 -1.5333
13702TIP3   OH262596   6.437   5.696  17.057  0.9494  0.2440 -0.3517
13702TIP3    H162597   6.522   5.707  17.014  0.0173 -0.9660 -2.7018
13702TIP3    H262598   6.458   5.651  17.140  2.7368  1.7697  0.0863
13703TIP3   OH262599   5.944   2.382   5.446  0.0598  0.3864 -0.4695
13703TIP3    H162600   5.923   2.292   5.421 -1.7040  0.5284  0.3635
13703TIP3    H262601   5.948   2.430   5.363 -3.3114  0.3798 -0.7737
13704TIP3   OH262602   0.992   6.078  10.813  0.6376 -0.2181  0.2607
13704TIP3    H162603   0.928   6.120  10.755  1.0241 -0.9636 -0.7337
13704TIP3    H262604   1.048   6.150  10.843 -0.0982  0.3027  0.4149
13705TIP3   OH262605   1.359   1.185   2.058 -0.1205  0.2357  0.1676
13705TIP3    H162606   1.338   1.115   2.121  0.4095  0.8099  1.0001
13705TIP3    H262607   1.451   1.207   2.076  0.8506 -1.2025 -2.3932
13706TIP3   OH262608   1.716   0.732  17.285  0.0727 -0.5232 -0.5714
13706TIP3    H162609   1.795   0.746  17.233  0.0416 -0.0859 -0.5063
13706TIP3    H262610   1.667   0.666  17.236  1.5602 -2.6387  0.6096
13707TIP3   OH262611   0.245   3.519  16.937 -0.3251 -0.4777 -0.2768
13707TIP3    H162612   0.166   3.566  16.908 -0.2751 -0.2222 -0.0085
13707TIP3    H262613   0.222   3.427  16.930 -1.2787 -0.4102  1.4487
13708TIP3   OH262614   5.326   0.826   5.643  0.4499 -0.3101  0.0941
13708TIP3    H162615   5.302   0.824   5.736  0.3343  0.3370  0.0852
13708TIP3    H262616   5.299   0.741   5.609 -2.3381  0.5533 -0.0329
13709TIP3   OH262617   4.639   6.269   3.988 -0.1625 -0.3486  0.2520
13709TIP3    H162618   4.591   6.288   4.069 -0.3900  0.0524  0.0293
13709TIP3    H262619   4.611   6.337   3.927  0.9034  0.0509  0.1917
13710TIP3   OH262620   1.615   4.063  13.558 -0.2401 -0.4408 -0.0194
13710TIP3    H162621   1.658   4.065  13.643 -1.6178 -0.6419  0.7147
13710TIP3    H262622   1.559   3.986  13.562 -0.3691 -0.4149 -1.0929
13711TIP3   OH262623   6.417   2.034   2.167 -0.5551 -0.3656  0.2189
13711TIP3    H162624   6.491   1.975   2.183  0.0509  0.2497 -0.2850
13711TIP3    H262625   6.394   2.067   2.254  0.7415  0.5982  0.2174
13712TIP3   OH262626   1.546   4.863  14.732  0.0681 -0.8118  0.0746
13712TIP3    H162627   1.617   4.813  14.691 -0.7986 -2.0838  0.0582
13712TIP3    H262628   1.549   4.835  14.824  0.4562  0.1854  0.3734
13713TIP3   OH262629   1.387   6.757  12.880  0.5090 -0.4690 -0.0477
13713TIP3    H162630   1.301   6.784  12.849  1.1067  1.7103  0.0121
13713TIP3    H262631   1.447   6.783  12.810  1.4396  0.9174  1.1983
13714TIP3   OH262632   4.113   4.103   5.997  0.0401 -0.4135 -0.4010
13714TIP3    H162633   4.172   4.042   6.041  2.7722  3.0290  1.2052
13714TIP3    H262634   4.054   4.134   6.065 -0.4829 -0.3467 -0.8781
13715TIP3   OH262635   4.808   0.806  12.524 -0.1915 -0.2239  0.7969
13715TIP3    H162636   4.803   0.896  12.491 -1.1973 -0.4218  0.3662
13715TIP3    H262637   4.837   0.754  12.448 -0.0658 -0.3311  0.9169
13716TIP3   OH262638   1.096   0.872   3.774 -0.3412  0.5716 -0.3593
13716TIP3    H162639   1.022   0.855   3.716 -0.4059  2.3799 -0.8551
13716TIP3    H262640   1.062   0.856   3.862 -1.5159  1.9400 -0.5354
13717TIP3   OH262641   1.689   0.191   5.356  0.7566 -0.3392 -0.5651
13717TIP3    H162642   1.756   0.243   5.401  1.6188 -2.1098  0.2814
13717TIP3    H262643   1.716   0.194   5.263 -0.8101  2.9949 -1.0762
13718TIP3   OH262644   4.259   5.762   3.579  0.2665  0.1286 -0.0071
13718TIP3    H162645   4.195   5.706   3.624  0.6336 -0.1702  0.1490
13718TIP3    H262646   4.312   5.701   3.527 -0.9439  0.5724 -1.8784
13719TIP3   OH262647   5.463   1.038   2.166  0.4316 -0.2452 -0.4836
13719TIP3    H162648   5.377   1.073   2.144  0.7278  0.0027 -1.2831
13719TIP3    H262649   5.482   1.072   2.254  0.1261  0.4663 -0.6941
13720TIP3   OH262650   0.076   5.099   0.680 -0.6654  0.3088  0.4634
13720TIP3    H162651   0.010   5.082   0.613 -0.4743  1.3903 -0.0156
13720TIP3    H262652   0.158   5.109   0.631 -0.2913 -0.1272  0.9764
13721TIP3   OH262653   3.504   0.848   4.396 -0.8912 -0.0927  0.1804
13721TIP3    H162654   3.555   0.826   4.318  0.1820  1.4323  0.4062
13721TIP3    H262655   3.442   0.914   4.366 -2.8914 -1.9934 -0.1115
13722TIP3   OH262656   6.486   2.905   3.139 -0.7668 -0.5894 -0.1002
13722TIP3    H162657   6.554   2.962   3.174 -0.6365 -0.4276 -0.6073
13722TIP3    H262658   6.448   2.955   3.066 -0.9388 -0.9696 -0.2741
13723TIP3   OH262659   5.252   1.211  12.087  0.4731 -0.1312 -0.4259
13723TIP3    H162660   5.176   1.168  12.048  0.1285 -1.0327  1.1890
13723TIP3    H262661   5.284   1.150  12.153  0.6134  1.6295  1.2144
13724TIP3   OH262662   5.552   5.668   2.408 -0.0251  0.1719 -0.7822
13724TIP3    H162663   5.530   5.610   2.335 -2.0546  2.4869 -2.1692
13724TIP3    H262664   5.632   5.713   2.380 -0.9995  1.3195 -1.8239
13725TIP3   OH262665   6.258   5.379   3.957  0.8159  0.4385  0.0895
13725TIP3    H162666   6.308   5.298   3.949  0.3352 -0.0809  1.9610
13725TIP3    H262667   6.323   5.448   3.946  1.6183 -0.2172  0.6481
13726TIP3   OH262668   6.461   6.214  14.480 -0.0937 -0.2869  0.2006
13726TIP3    H162669   6.444   6.238  14.571  0.3157 -0.3032  0.2833
13726TIP3    H262670   6.433   6.122  14.474 -0.5843 -0.1421  0.1799
13727TIP3   OH262671   0.528   2.382   0.633 -0.2020  0.5110  0.2720
13727TIP3    H162672   0.586   2.387   0.556  0.2848  1.5652  0.6925
13727TIP3    H262673   0.556   2.302   0.678 -1.8338 -1.2606 -1.6705
13728TIP3   OH262674   5.156   2.413   3.692 -0.7762 -0.0037 -0.1664
13728TIP3    H162675   5.103   2.444   3.765  0.6089 -0.4021  1.0507
13728TIP3    H262676   5.117   2.329   3.668 -0.5270 -0.4412  0.9255
13729TIP3   OH262677   6.098   3.668  11.899 -0.2786  0.5748  1.0728
13729TIP3    H162678   6.182   3.683  11.857 -0.2161 -0.6118  0.7374
13729TIP3    H262679   6.111   3.693  11.991  0.3032  0.8166  0.9227
13730TIP3   OH262680   3.770   3.693   1.351  0.3064 -0.5807  0.3385
13730TIP3    H162681   3.727   3.620   1.308 -1.0054  0.2812  0.1541
13730TIP3    H262682   3.751   3.769   1.296  3.1026 -0.3365 -0.4319
13731TIP3   OH262683   3.902   4.778  11.893 -0.1262 -0.7168  0.0461
13731TIP3    H162684   3.866   4.695  11.861  0.4757 -1.0904  0.3049
13731TIP3    H262685   3.836   4.843  11.871 -0.9274 -1.3704  0.4379
13732TIP3   OH262686   2.356   1.029  14.839  1.2492  0.4619 -0.4476
13732TIP3    H162687   2.430   1.068  14.792  1.8549  1.7712  1.4654
13732TIP3    H262688   2.320   1.101  14.891 -1.3304 -0.1782 -1.2154
13733TIP3   OH262689   3.595   0.885   4.656  0.3771  0.4746  0.2944
13733TIP3    H162690   3.578   0.976   4.680  0.9602  0.6015  0.2361
13733TIP3    H262691   3.552   0.874   4.572 -0.3136  0.4842  0.6371
13734TIP3   OH262692   5.768   4.939  16.319 -0.0094 -0.1672  0.1633
13734TIP3    H162693   5.734   5.011  16.373 -0.8259 -1.1453  0.9833
13734TIP3    H262694   5.825   4.890  16.378 -0.1494 -0.6920 -0.1364
13735TIP3   OH262695   3.189   4.570   4.273 -0.7124  0.1126  0.1751
13735TIP3    H162696   3.275   4.606   4.293 -0.5650  0.8739 -1.6374
13735TIP3    H262697   3.206   4.486   4.232 -0.8995 -0.2999  0.9273
13736TIP3   OH262698   4.173   4.375   3.794 -0.2693 -0.3230 -0.1607
13736TIP3    H162699   4.175   4.393   3.888  2.6078  1.3829 -0.4255
13736TIP3    H262700   4.184   4.461   3.753 -0.1056 -1.1844 -2.0172
13737TIP3   OH262701   5.226   0.433  12.958 -0.2772  0.3879  0.1460
13737TIP3    H162702   5.177   0.472  13.030 -1.1601 -0.2649 -0.0764
13737TIP3    H262703   5.201   0.485  12.881  0.4026  0.8746  0.2525
13738TIP3   OH262704   6.612   0.994  12.240 -0.1032  0.2498 -0.0209
13738TIP3    H162705   6.626   0.915  12.187 -1.1736 -0.4694  0.7202
13738TIP3    H262706   6.664   0.981  12.319  0.7959  0.9237 -0.4829
13739TIP3   OH262707   6.585   4.375  15.491 -0.3146 -0.2898 -0.0816
13739TIP3    H162708   6.624   4.314  15.429  0.8146  0.5704 -0.2560
13739TIP3    H262709   6.572   4.324  15.571  3.3680 -0.1702  0.7896
13740TIP3   OH262710   0.765   5.338   4.696  0.1688  0.1452  0.5875
13740TIP3    H162711   0.744   5.271   4.761  0.0386 -1.4047 -0.9811
13740TIP3    H262712   0.712   5.315   4.620  2.7298 -0.0733 -1.2406
13741TIP3   OH262713   1.400   2.675   3.754 -0.5164  0.1005  0.2554
13741TIP3    H162714   1.413   2.770   3.759  0.2630  0.0481 -0.3768
13741TIP3    H262715   1.489   2.640   3.759 -0.8426 -0.6404  1.0982
13742TIP3   OH262716   1.773   5.133   3.186  0.2824  0.0325  0.1146
13742TIP3    H162717   1.698   5.094   3.232  0.9197  0.5476  1.6505
13742TIP3    H262718   1.736   5.166   3.104 -0.9524 -0.6826  0.3578
13743TIP3   OH262719   4.494   0.008  15.574  0.2088 -0.6419  0.1830
13743TIP3    H162720   4.466   0.091  15.536  0.7444 -1.1490 -1.3966
13743TIP3    H262721   4.563   0.032  15.636 -1.4053  0.3050  1.6929
13744TIP3   OH262722   3.745   2.704  16.696 -0.4670 -0.2911  0.3992
13744TIP3    H162723   3.709   2.688  16.784  0.5407  0.0283  0.8854
13744TIP3    H262724   3.714   2.791  16.673  0.0917  0.0490  0.8845
13745TIP3   OH262725   4.880   6.598  15.873  0.1046  0.1463 -0.3720
13745TIP3    H162726   4.858   6.690  15.865  1.6914  0.6470  0.4979
13745TIP3    H262727   4.957   6.587  15.817  0.7847 -0.3058  0.6268
13746TIP3   OH262728   1.626   4.372   1.804  0.4068 -0.1765  0.2570
13746TIP3    H162729   1.582   4.430   1.742  1.0228  0.0081 -0.0139
13746TIP3    H262730   1.717   4.370   1.775  0.5624 -0.6244  0.7566
13747TIP3   OH262731   2.585   1.895  15.364  0.4341 -0.1185  0.5747
13747TIP3    H162732   2.564   1.953  15.438  2.5832 -0.0309  1.2077
13747TIP3    H262733   2.618   1.954  15.296  1.2374 -0.4469  0.6693
13748TIP3   OH262734   5.265   3.976  11.843  0.7924  0.0182  0.3179
13748TIP3    H162735   5.301   4.058  11.808  1.1350 -0.7430 -1.1830
13748TIP3    H262736   5.341   3.918  11.851  0.4213 -0.4406  0.5479
13749TIP3   OH262737   1.623   4.806   2.280 -0.4339 -0.0591  0.4503
13749TIP3    H162738   1.703   4.837   2.237 -0.5107  0.4432  0.6576
13749TIP3    H262739   1.597   4.879   2.337 -0.7587 -0.4172  0.7648
13750TIP3   OH262740   4.257   1.920  17.222 -0.2178  0.0753  0.1912
13750TIP3    H162741   4.348   1.898  17.201 -0.1597  1.0560 -0.6374
13750TIP3    H262742   4.263   1.982  17.294 -0.2436 -0.0103  0.2681
13751TIP3   OH262743   4.369   0.907  15.786 -0.3281 -0.5825 -0.2731
13751TIP3    H162744   4.372   0.813  15.768  1.1421 -1.1569  2.4478
13751TIP3    H262745   4.426   0.919  15.862 -0.2991  2.5712 -0.6652
13752TIP3   OH262746   3.960   2.075  15.744 -0.0492  0.4587 -0.1256
13752TIP3    H162747   4.044   2.122  15.745  0.2766 -0.0932 -0.7008
13752TIP3    H262748   3.947   2.051  15.653  0.5642 -1.8971  0.3183
13753TIP3   OH262749   0.536   6.366  11.068 -0.4984  0.1361  0.2154
13753TIP3    H162750   0.451   6.395  11.103 -1.1672 -1.3476 -0.1190
13753TIP3    H262751   0.515   6.288  11.016  1.0798 -0.2320  0.0998
13754TIP3   OH262752   1.873   5.080  11.790 -0.2758  0.0382 -0.1013
13754TIP3    H162753   1.859   5.164  11.834  1.5457  0.2746  0.1099
13754TIP3    H262754   1.820   5.086  11.710 -0.4129  1.2804  0.0608
13755TIP3   OH262755   5.906   5.402  11.895 -0.3994 -0.5118  0.1677
13755TIP3    H162756   5.842   5.473  11.904 -1.2287 -1.2262  0.0424
13755TIP3    H262757   5.882   5.359  11.813 -0.0595 -1.0927  0.3732
13756TIP3   OH262758   6.343   0.068   3.169  0.1630  0.1461 -0.2401
13756TIP3    H162759   6.422   0.122   3.163 -0.7020  2.0908  3.3640
13756TIP3    H262760   6.274   0.129   3.194 -1.6620 -2.0874  0.4951
13757TIP3   OH262761   5.006   3.485  11.117 -0.2571 -0.0534 -0.0927
13757TIP3    H162762   4.982   3.539  11.042 -0.2967  1.2014  0.7894
13757TIP3    H262763   4.925   3.443  11.143 -0.0164 -1.4618 -1.4544
13758TIP3   OH262764   1.476   1.803  11.236 -0.1055 -0.2706  0.4377
13758TIP3    H162765   1.531   1.879  11.257  0.6869 -0.6522 -0.1782
13758TIP3    H262766   1.523   1.759  11.165 -1.4009 -0.4189 -0.3492
13759TIP3   OH262767   2.240   3.005  13.776  0.3633  0.4582  0.2859
13759TIP3    H162768   2.255   2.957  13.695  0.0184  0.7824  0.0300
13759TIP3    H262769   2.328   3.016  13.813  0.8301  2.4897 -1.2835
13760TIP3   OH262770   0.168   3.000   4.931 -0.3628 -0.0996  0.0311
13760TIP3    H162771   0.186   3.001   5.025 -0.6204 -1.3557  0.1099
13760TIP3    H262772   0.174   3.092   4.904  1.6048  0.0749  0.9045
13761TIP3   OH262773   4.430   2.528  15.000 -0.1695 -0.0516  0.0072
13761TIP3    H162774   4.378   2.569  14.931  1.3233  1.1498 -0.4635
13761TIP3    H262775   4.469   2.601  15.047  0.5589 -0.9060  0.7621
13762TIP3   OH262776   2.820   5.069   1.313  0.4673  0.5248  0.4895
13762TIP3    H162777   2.817   5.093   1.221 -0.0804  0.3937  0.4682
13762TIP3    H262778   2.767   5.136   1.357  3.4306  2.6324  1.1965
13763TIP3   OH262779   6.433   6.294  14.789  0.6494 -0.0860  0.2937
13763TIP3    H162780   6.350   6.259  14.820 -0.5294  0.8982 -1.5668
13763TIP3    H262781   6.497   6.226  14.808 -1.0294 -1.9840 -0.5115
13764TIP3   OH262782   4.261   4.835   3.975 -0.1495  0.0481 -0.6693
13764TIP3    H162783   4.169   4.862   3.975 -0.6672 -1.6316 -0.2529
13764TIP3    H262784   4.296   4.870   3.893 -1.1665  0.6328 -0.8763
13765TIP3   OH262785   4.442   5.116  12.777 -0.1248  0.2487 -0.4222
13765TIP3    H162786   4.521   5.071  12.806 -0.4442  0.8284  1.4812
13765TIP3    H262787   4.464   5.149  12.690  0.9968 -1.3435 -0.7885
13766TIP3   OH262788   5.557   3.464  11.998 -0.0737 -0.2310  0.3998
13766TIP3    H162789   5.598   3.476  11.913  2.0657 -0.1564  1.3785
13766TIP3    H262790   5.547   3.370  12.008 -0.4377 -0.2328  0.0320
13767TIP3   OH262791   3.373   5.368   0.529 -0.2880 -0.1283  1.1228
13767TIP3    H162792   3.335   5.433   0.471 -1.7367  0.5307  2.7040
13767TIP3    H262793   3.455   5.343   0.488 -1.3862  0.0617 -1.3272
13768TIP3   OH262794   0.112   6.036   3.155 -0.4941 -0.2695  0.0011
13768TIP3    H162795   0.198   6.029   3.196 -1.2017 -0.1396  1.6191
13768TIP3    H262796   0.054   5.985   3.212 -1.5403 -0.1546 -0.9104
13769TIP3   OH262797   6.147   4.921   5.992 -0.2732 -0.3076  0.6136
13769TIP3    H162798   6.120   4.963   6.073  1.3583  0.5028  0.7666
13769TIP3    H262799   6.065   4.893   5.951 -1.2272  0.7989  1.7058
13770TIP3   OH262800   6.241   3.825   0.344  0.0182  0.2317 -0.4471
13770TIP3    H162801   6.259   3.876   0.265 -0.9923  0.4597 -0.5367
13770TIP3    H262802   6.172   3.765   0.318  3.0037 -3.2419 -1.2018
13771TIP3   OH262803   4.107   1.865   5.069 -0.6721  0.1695 -0.0678
13771TIP3    H162804   4.193   1.867   5.111 -0.7891  2.1510  0.1688
13771TIP3    H262805   4.079   1.957   5.068 -2.3325 -0.3153 -1.0788
13772TIP3   OH262806   6.283   2.314  14.478  0.3297 -0.2539  0.3809
13772TIP3    H162807   6.227   2.277  14.409  1.1169 -1.0730  0.1607
13772TIP3    H262808   6.295   2.241  14.539  0.9059  0.0107  0.5816
13773TIP3   OH262809   4.678   6.618  12.481  0.2525  0.2308 -0.2375
13773TIP3    H162810   4.662   6.598  12.389  0.3122 -1.5373  0.1153
13773TIP3    H262811   4.773   6.612  12.490  0.3927  1.8420 -0.3494
13774TIP3   OH262812   3.924   3.187   2.915  0.5487 -0.5720  0.4247
13774TIP3    H162813   3.842   3.225   2.948  0.1557 -1.2758  0.2745
13774TIP3    H262814   3.940   3.112   2.972 -0.4464 -2.1650 -1.2831
13775TIP3   OH262815   1.516   6.280  14.086  0.2342 -0.3688  0.0271
13775TIP3    H162816   1.432   6.323  14.073  1.0653  1.3047 -0.0098
13775TIP3    H262817   1.493   6.187  14.099 -1.6652  0.1518  0.8371
13776TIP3   OH262818   1.173   3.953  15.251  0.6877 -0.0413 -0.1986
13776TIP3    H162819   1.153   4.002  15.172 -1.5252  2.1943  1.6061
13776TIP3    H262820   1.121   3.873  15.244  1.5802 -0.5607 -1.5317
13777TIP3   OH262821   3.995   6.197   3.594  0.2040 -0.1066  0.6498
13777TIP3    H162822   3.906   6.232   3.599 -0.1904 -0.6963 -1.3133
13777TIP3    H262823   4.051   6.273   3.580  0.1033  0.3215  2.3736
13778TIP3   OH262824   5.572   2.139   1.978  0.4788 -0.0133  0.5807
13778TIP3    H162825   5.529   2.221   2.003  0.8382  0.3697 -0.0483
13778TIP3    H262826   5.625   2.116   2.054  2.5190  1.7824 -0.1851
13779TIP3   OH262827   0.252   1.132  14.603  0.1939 -0.0701 -0.3050
13779TIP3    H162828   0.272   1.061  14.664  0.0323  0.2679  0.1431
13779TIP3    H262829   0.327   1.134  14.543  1.0991  0.5872  0.8089
13780TIP3   OH262830   6.744   6.753   2.700  0.9858  0.4502 -0.7446
13780TIP3    H162831   6.650   6.763   2.711  0.7598 -1.9849  0.0845
13780TIP3    H262832   6.782   6.792   2.780  0.7478  1.6125 -1.1707
13781TIP3   OH262833   6.622   0.358   1.560 -0.4882 -0.0145  0.0627
13781TIP3    H162834   6.564   0.386   1.630  1.3046  0.3452  1.4720
13781TIP3    H262835   6.661   0.277   1.591  0.4377  0.2206 -0.4459
13782TIP3   OH262836   6.488   3.084  11.662 -0.3212 -1.1003  0.9057
13782TIP3    H162837   6.520   3.169  11.693 -0.7827 -0.0412 -1.2904
13782TIP3    H262838   6.456   3.040  11.741 -1.6524  1.4768  1.9509
13783TIP3   OH262839   0.473   6.030  14.784  0.2309 -0.4169 -0.3041
13783TIP3    H162840   0.435   6.010  14.699 -0.0664  1.3524 -0.6366
13783TIP3    H262841   0.404   6.009  14.847 -0.0008 -0.5735 -0.6080
13784TIP3   OH262842   5.490   6.775  15.991  0.2262  0.0033  0.3157
13784TIP3    H162843   5.476   6.682  15.976 -0.4404  0.0164  0.8149
13784TIP3    H262844   5.493   6.814  15.904  1.9258 -0.6630  0.0272
13785TIP3   OH262845   6.014   0.988  16.666 -0.5277  0.5793  0.7391
13785TIP3    H162846   6.066   1.009  16.744 -0.3008 -1.5467  1.2184
13785TIP3    H262847   5.943   0.933  16.699  0.6364 -1.9919 -0.7110
13786TIP3   OH262848   4.371   5.128   5.479  0.0855  0.1972  0.3107
13786TIP3    H162849   4.451   5.149   5.432 -0.4662 -1.0124 -1.2556
13786TIP3    H262850   4.331   5.213   5.498  0.2106  0.7328 -1.6664
13787TIP3   OH262851   0.011   0.541  15.887 -0.8048  0.2099  0.0975
13787TIP3    H162852   0.063   0.620  15.877 -1.6819  0.7441 -0.2877
13787TIP3    H262853   0.022   0.493  15.805 -2.0310  1.0018 -0.5479
13788TIP3   OH262854   1.204   6.170  13.312  0.3155 -0.0441 -0.6789
13788TIP3    H162855   1.128   6.213  13.351  0.0950 -0.7246 -0.3571
13788TIP3    H262856   1.236   6.111  13.380 -1.6805 -3.2933 -2.3044
13789TIP3   OH262857   3.142   5.460   0.831 -0.0188  0.1731  0.6823
13789TIP3    H162858   3.140   5.445   0.736 -1.4447  0.8317  0.5759
13789TIP3    H262859   3.235   5.460   0.853  0.3498  0.1107 -0.7309
13790TIP3   OH262860   2.659   0.190   3.543  0.3350  0.2678  0.4527
13790TIP3    H162861   2.726   0.244   3.501  0.4880  0.4114  0.8768
13790TIP3    H262862   2.580   0.244   3.541  0.1588  0.0013 -0.2730
13791TIP3   OH262863   4.721   2.092  11.991 -0.4437 -0.6740  0.0441
13791TIP3    H162864   4.694   2.106  11.900  1.1878 -1.5332 -0.6306
13791TIP3    H262865   4.692   2.004  12.012  0.9056 -1.2499 -0.3739
13792TIP3   OH262866   5.633   2.782   1.988 -0.5585 -0.4502 -0.6253
13792TIP3    H162867   5.695   2.709   1.982  0.4590  0.2650  0.5788
13792TIP3    H262868   5.549   2.744   1.963  0.0006 -1.9552 -0.3415
13793TIP3   OH262869   3.132   4.288  11.472  0.5540 -0.4697  0.5124
13793TIP3    H162870   3.105   4.348  11.542  2.0341  1.7120 -0.6788
13793TIP3    H262871   3.059   4.290  11.410  0.8141  0.5967  0.2130
13794TIP3   OH262872   0.653   3.012   2.499 -0.3152  0.0040 -0.1206
13794TIP3    H162873   0.713   3.036   2.569  0.6470 -1.1787 -0.5241
13794TIP3    H262874   0.581   2.967   2.543 -0.2620  0.2386  0.2103
13795TIP3   OH262875   6.346   1.026   0.825 -0.0121  0.8645  0.2218
13795TIP3    H162876   6.333   1.067   0.910 -1.5551 -1.0834  1.0093
13795TIP3    H262877   6.347   1.099   0.763  0.5761  2.2743  1.8264
13796TIP3   OH262878   2.777   4.067   3.364 -0.2483 -0.5109  0.0222
13796TIP3    H162879   2.685   4.040   3.361 -0.4050  0.0872 -1.2568
13796TIP3    H262880   2.774   4.162   3.351  0.5872 -0.5747 -0.6774
13797TIP3   OH262881   0.760   3.849  12.662 -0.2842  0.0009 -0.6482
13797TIP3    H162882   0.770   3.939  12.692  1.5942 -0.3753 -0.0593
13797TIP3    H262883   0.708   3.806  12.730 -0.9639  0.5493 -0.8081
13798TIP3   OH262884   6.728   3.753   2.564  0.3112 -0.6463  0.3595
13798TIP3    H162885   6.717   3.728   2.472  1.7292  0.8360 -0.2554
13798TIP3    H262886   6.647   3.798   2.586  0.0752 -0.7652 -0.2396
13799TIP3   OH262887   3.700   5.060   5.615 -0.0757 -0.4654 -0.0671
13799TIP3    H162888   3.641   5.116   5.666  1.9925  1.0543  0.7914
13799TIP3    H262889   3.702   5.101   5.528  0.1014 -0.2008  0.0590
13800TIP3   OH262890   2.785   0.072  16.484 -0.3162  0.4263 -0.2706
13800TIP3    H162891   2.723   0.036  16.548 -0.0520  0.9372  0.2815
13800TIP3    H262892   2.853   0.112  16.537 -1.2111  2.8642 -0.8255
13801TIP3   OH262893   6.005   3.887   4.634 -0.1372  0.1939 -0.7121
13801TIP3    H162894   6.051   3.835   4.701  0.6309  0.2049 -1.2103
13801TIP3    H262895   5.938   3.828   4.600 -0.1365 -0.0210 -0.3456
13802TIP3   OH262896   2.813   2.528   1.033 -0.3886 -0.3006 -0.2136
13802TIP3    H162897   2.757   2.459   0.999 -1.5407  0.1402  0.7184
13802TIP3    H262898   2.862   2.486   1.104 -1.1256 -0.1601  0.3860
13803TIP3   OH262899   2.094   6.067   3.690  0.4598  0.5029 -0.1338
13803TIP3    H162900   2.026   6.004   3.668 -0.0033  0.9813 -0.1108
13803TIP3    H262901   2.081   6.084   3.784 -0.8534  2.2604 -0.5760
13804TIP3   OH262902   6.113   6.081  12.637  0.1718  0.2152 -0.0412
13804TIP3    H162903   6.143   6.160  12.592  0.7048 -0.5218 -1.0212
13804TIP3    H262904   6.192   6.030  12.652 -0.3803 -1.2259 -1.6134
13805TIP3   OH262905   0.918   2.080   0.292 -0.6480  0.5642  0.3616
13805TIP3    H162906   0.968   2.161   0.290  0.2736  0.0756  1.8491
13805TIP3    H262907   0.827   2.108   0.301 -0.8525  1.4908 -3.0850
13806TIP3   OH262908   2.513   3.940   1.280  0.1547  0.0019 -0.1510
13806TIP3    H162909   2.500   4.017   1.335  1.2338 -0.3462  0.6434
13806TIP3    H262910   2.600   3.952   1.241 -0.2699 -0.1309 -1.1827
13807TIP3   OH262911   0.462   3.020   2.259  0.7223  0.4040  0.3749
13807TIP3    H162912   0.538   3.079   2.261  1.3187 -0.1340 -2.6161
13807TIP3    H262913   0.420   3.037   2.175 -2.1749  0.2033  1.6447
13808TIP3   OH262914   2.622   0.152   5.104 -0.2489  0.4535 -0.2357
13808TIP3    H162915   2.566   0.228   5.123  1.2992  1.1679  1.7348
13808TIP3    H262916   2.569   0.076   5.129 -0.9475  0.9963 -0.0260
13809TIP3   OH262917   2.104   5.796   3.866  0.0912 -0.1212  0.4447
13809TIP3    H162918   2.096   5.811   3.961  1.7649  0.6025  0.5183
13809TIP3    H262919   2.091   5.883   3.828  1.3060 -0.0411  0.1777
13810TIP3   OH262920   3.655   5.190   5.371  0.0116  0.4648  0.0557
13810TIP3    H162921   3.579   5.240   5.402 -0.7801  0.8529 -2.3073
13810TIP3    H262922   3.650   5.195   5.276  2.0479 -0.9920 -0.1980
13811TIP3   OH262923   3.547   2.560   6.706 -0.5553 -0.3059  0.5861
13811TIP3    H162924   3.520   2.544   6.797 -1.5437  1.1165  0.5777
13811TIP3    H262925   3.521   2.650   6.689 -0.6297 -0.6271 -1.2043
13812TIP3   OH262926   3.210   6.629   2.528  0.9956  0.3445 -0.5544
13812TIP3    H162927   3.200   6.565   2.598  1.9258  1.3051  0.5072
13812TIP3    H262928   3.302   6.620   2.500  1.4637  1.8846  0.3466
13813TIP3   OH262929   4.397   3.450  14.622 -0.0376 -0.6844  0.0309
13813TIP3    H162930   4.422   3.499  14.701 -1.8052 -2.3808  1.7668
13813TIP3    H262931   4.429   3.503  14.549 -0.0390  1.9409  1.8252
13814TIP3   OH262932   1.895   5.081  15.686 -0.5976  0.2482  0.1580
13814TIP3    H162933   1.883   5.101  15.593 -1.1412  1.1370  0.4031
13814TIP3    H262934   1.821   5.026  15.709 -0.0242 -0.6619 -0.1139
13815TIP3   OH262935   4.445   1.895   0.146  0.5971 -0.1752 -0.5141
13815TIP3    H162936   4.471   1.951   0.218  0.5880 -0.5507 -0.2154
13815TIP3    H262937   4.380   1.946   0.097  0.1420 -0.1611  0.0966
13816TIP3   OH262938   2.795   0.369  14.114  0.4720 -0.0291 -0.1961
13816TIP3    H162939   2.743   0.449  14.104  1.9288  1.1824  1.4393
13816TIP3    H262940   2.744   0.315  14.174  1.1235  1.2623  1.6070
13817TIP3   OH262941   1.770   3.773   1.847 -0.0502  0.6454 -0.2446
13817TIP3    H162942   1.748   3.704   1.785 -1.4096  0.7809  0.0511
13817TIP3    H262943   1.687   3.795   1.889 -0.4980  4.8781 -2.7412
13818TIP3   OH262944   1.251   1.130   0.295 -0.3266  0.8003 -0.5465
13818TIP3    H162945   1.176   1.072   0.300 -1.0662  1.7015 -0.8945
13818TIP3    H262946   1.218   1.215   0.325  1.0908  0.7417  1.3909
13819TIP3   OH262947   4.329   4.638  15.587 -0.4726  0.5938  0.0448
13819TIP3    H162948   4.317   4.648  15.682 -1.5584 -1.4602  0.1756
13819TIP3    H262949   4.354   4.726  15.557 -1.9858  1.7771  1.9580
13820TIP3   OH262950   1.520   5.971   2.783  0.0697  0.3465  0.3628
13820TIP3    H162951   1.429   5.999   2.792  0.6246  2.0056  1.1260
13820TIP3    H262952   1.531   5.903   2.850 -0.9452 -0.8720 -0.6535
13821TIP3   OH262953   1.231   6.308  11.546 -0.4224  0.2569  0.6947
13821TIP3    H162954   1.158   6.352  11.590 -1.3723 -0.9648  0.3756
13821TIP3    H262955   1.195   6.225  11.516  0.3784  0.7264 -1.7813
13822TIP3   OH262956   1.893   5.715   6.442  0.7226  0.3186  0.1173
13822TIP3    H162957   1.971   5.664   6.420  0.4434  0.2893 -0.8623
13822TIP3    H262958   1.827   5.650   6.464  0.6956  0.3015 -0.0125
13823TIP3   OH262959   4.416   1.659   2.735  0.4592 -0.4939 -0.1249
13823TIP3    H162960   4.454   1.648   2.822  0.1779  0.7997  0.1797
13823TIP3    H262961   4.332   1.702   2.751  1.1496  1.3352 -1.1192
13824TIP3   OH262962   5.805   1.630  15.789  0.2986 -0.1184  0.2137
13824TIP3    H162963   5.841   1.719  15.793 -1.5180  0.6467  0.5697
13824TIP3    H262964   5.750   1.631  15.711  0.7200 -1.1290 -0.1034
13825TIP3   OH262965   3.518   0.048   4.948 -0.4852  0.4139  0.4091
13825TIP3    H162966   3.558   0.135   4.950 -1.2123  0.7648  0.1285
13825TIP3    H262967   3.504   0.030   4.855 -3.0403  1.2962  0.5399
13826TIP3   OH262968   2.071   6.686  14.435 -0.4824 -0.0421  0.1732
13826TIP3    H162969   1.978   6.701  14.455 -0.0015 -0.2901  3.0009
13826TIP3    H262970   2.086   6.594  14.455  0.5940  0.2530  0.8087
13827TIP3   OH262971   4.316   4.028  17.388  0.9862  0.0085  0.5616
13827TIP3    H162972   4.246   4.007  17.327 -0.0162  1.4586  1.1519
13827TIP3    H262973   4.391   4.051  17.333  0.1475  1.1371 -0.1317
13828TIP3   OH262974   0.596   4.207  12.205 -0.3867 -0.1342 -0.3790
13828TIP3    H162975   0.569   4.290  12.245  0.8378  0.3443 -0.4982
13828TIP3    H262976   0.532   4.192  12.135 -0.0034  1.2843 -1.0776
13829TIP3   OH262977   1.753   1.064  15.885  0.5126 -0.4533  0.1370
13829TIP3    H162978   1.664   1.040  15.857 -0.3247  2.0567  0.3640
13829TIP3    H262979   1.758   1.034  15.975  0.1267 -1.1522 -0.0645
13830TIP3   OH262980   4.217   4.701   1.141 -0.0171 -0.2672  0.5029
13830TIP3    H162981   4.213   4.781   1.192  2.3523  0.5339 -0.4258
13830TIP3    H262982   4.259   4.637   1.198  0.8584  0.0570  0.2282
13831TIP3   OH262983   6.049   3.021  16.124  0.1073  0.1953 -0.3177
13831TIP3    H162984   6.095   3.077  16.187 -0.8168 -0.2254  0.7673
13831TIP3    H262985   5.969   2.995  16.170 -1.2657  0.9560 -2.1703
13832TIP3   OH262986   4.334   1.936   5.177 -0.5011  0.3800  0.3136
13832TIP3    H162987   4.299   1.994   5.244 -0.9556  0.7041 -0.1905
13832TIP3    H262988   4.428   1.952   5.178 -0.7444  2.2965 -0.8451
13833TIP3   OH262989   4.519   2.598   4.771 -0.0390  0.3241  0.1102
13833TIP3    H162990   4.596   2.650   4.749  0.7944 -1.1893 -0.7053
13833TIP3    H262991   4.544   2.550   4.849 -0.1273 -0.2229 -0.1940
13834TIP3   OH262992   2.628   2.687  13.139  0.4868 -0.2106  0.7429
13834TIP3    H162993   2.619   2.598  13.105 -0.4974  1.2235 -3.3296
13834TIP3    H262994   2.690   2.729  13.080  1.2061  1.7551  2.7659
13835TIP3   OH262995   0.271   3.481   1.486  0.3428 -0.0013  0.8019
13835TIP3    H162996   0.271   3.499   1.580 -0.3938 -1.5163  1.1226
13835TIP3    H262997   0.271   3.385   1.480  0.9059  0.0731 -0.7511
13836TIP3   OH262998   2.587   5.451   6.655  0.3877 -0.0964 -0.6095
13836TIP3    H162999   2.564   5.515   6.588 -0.1130 -0.8507 -1.1706
13836TIP3    H263000   2.583   5.500   6.738  0.0803  0.6053 -1.0327
13837TIP3   OH263001   1.944   0.977   3.531 -0.1482 -0.2671  0.2579
13837TIP3    H163002   2.000   0.920   3.583  0.0965 -1.1107 -0.8810
13837TIP3    H263003   1.990   1.061   3.529  0.2973 -0.4984  0.6218
13838TIP3   OH263004   6.486   0.579  14.983  0.2928 -0.0675 -0.5062
13838TIP3    H163005   6.546   0.520  15.029 -0.1167  0.4464  0.7358
13838TIP3    H263006   6.488   0.549  14.892  1.2323 -1.0389 -0.1925
13839TIP3   OH263007   6.344   0.318   6.137  0.2875  0.1689  0.1498
13839TIP3    H163008   6.320   0.279   6.221 -0.0806 -0.9932 -0.4712
13839TIP3    H263009   6.431   0.282   6.118 -0.0560 -0.3696 -0.4337
13840TIP3   OH263010   3.500   3.198   1.351  0.1591 -0.7430  0.2557
13840TIP3    H163011   3.413   3.223   1.383  0.1127 -1.2319  0.5204
13840TIP3    H263012   3.560   3.251   1.403 -0.0135  0.6217 -0.8701
13841TIP3   OH263013   5.843   6.184  17.203  0.5542  0.5756 -0.2803
13841TIP3    H163014   5.759   6.162  17.244  1.0418  2.2579  1.8322
13841TIP3    H263015   5.899   6.108  17.219  0.0810  0.3536  0.3423
13842TIP3   OH263016   3.891   4.317  17.232  0.2476  0.1674 -0.4962
13842TIP3    H163017   3.854   4.230  17.215 -1.0035  0.7078 -0.6468
13842TIP3    H263018   3.875   4.331  17.325 -1.0102  0.8773 -0.8014
13843TIP3   OH263019   2.182   2.207   1.086 -0.3875 -0.4082  0.2056
13843TIP3    H163020   2.118   2.278   1.076  0.2289  0.0623 -0.5451
13843TIP3    H263021   2.265   2.246   1.059  0.0095 -1.3413  0.0424
13844TIP3   OH263022   5.596   1.331   3.247 -0.2522 -0.5311  0.5924
13844TIP3    H163023   5.542   1.262   3.208  0.7556 -0.2912 -1.3549
13844TIP3    H263024   5.681   1.289   3.262  0.2456  0.1360 -0.2303
13845TIP3   OH263025   1.147   4.970  12.688 -0.0817  0.1223 -0.1665
13845TIP3    H163026   1.211   4.983  12.758  0.0607  1.4482 -0.5151
13845TIP3    H263027   1.176   4.890  12.644  1.5762  0.8508 -0.5225
13846TIP3   OH263028   2.066   3.819  17.411  0.5164 -0.1602  0.1167
13846TIP3    H163029   1.974   3.795  17.399  0.9067 -2.1195  0.7158
13846TIP3    H263030   2.101   3.825  17.322 -0.3990  1.6677 -0.1664
13847TIP3   OH263031   1.371   1.635  13.996 -0.9280  0.3450  0.2947
13847TIP3    H163032   1.382   1.540  14.000  0.4986  0.4297 -0.8733
13847TIP3    H263033   1.285   1.648  13.957 -1.3064 -0.4462  0.8424
13848TIP3   OH263034   5.721   0.142   0.512 -0.0150  0.0635  0.7140
13848TIP3    H163035   5.719   0.134   0.607 -1.0100 -0.0735  0.6909
13848TIP3    H263036   5.637   0.107   0.483 -0.3358  1.4155 -0.1035
13849TIP3   OH263037   0.419   2.209   3.171 -0.0894  0.4852 -0.4215
13849TIP3    H163038   0.426   2.160   3.088 -1.7133  1.2163 -1.0434
13849TIP3    H263039   0.484   2.279   3.163  0.6658 -0.2101 -0.5068
13850TIP3   OH263040   3.970   1.308  12.348 -0.6457 -0.0204 -0.3519
13850TIP3    H163041   3.924   1.276  12.425 -1.6098 -0.4087 -1.0671
13850TIP3    H263042   3.929   1.392  12.328 -0.2898  0.1569 -0.3583
13851TIP3   OH263043   3.791   4.975   2.799 -0.6280 -0.5681 -0.3041
13851TIP3    H163044   3.792   4.937   2.711 -0.8294 -2.3619  0.4185
13851TIP3    H263045   3.700   4.966   2.827 -0.8777  1.2678 -0.3973
13852TIP3   OH263046   5.621   3.468  12.761  0.2036 -0.5192  0.0294
13852TIP3    H163047   5.692   3.532  12.755 -0.5778  0.2691 -1.3040
13852TIP3    H263048   5.638   3.421  12.843  1.2086  0.9105  0.6926
13853TIP3   OH263049   0.323   2.722   2.556  0.5768 -0.1358  0.5194
13853TIP3    H163050   0.255   2.723   2.623 -2.9070 -2.0482 -2.6430
13853TIP3    H263051   0.388   2.661   2.590 -1.2714 -1.4019  2.0038
13854TIP3   OH263052   4.318   5.488  11.288  0.3027  0.5780  0.2879
13854TIP3    H163053   4.267   5.530  11.219  2.2380  0.7902 -1.0993
13854TIP3    H263054   4.274   5.514  11.369 -2.8956 -0.8076 -0.8097
13855TIP3   OH263055   0.419   3.177   0.735  0.2388  0.4954 -0.7546
13855TIP3    H163056   0.496   3.220   0.772 -1.0876  1.1166  1.5483
13855TIP3    H263057   0.376   3.245   0.684  1.5284 -0.0593 -2.6695
13856TIP3   OH263058   0.004   3.105  15.101  0.1506 -0.5101  0.3330
13856TIP3    H163059  -0.063   3.171  15.119 -0.7298 -1.3998  0.3802
13856TIP3    H263060   0.048   3.091  15.184  0.3995  0.0731  0.3040
13857TIP3   OH263061   1.199   0.545  11.317 -0.2573  0.1826  0.1383
13857TIP3    H163062   1.124   0.596  11.346  0.5776  2.1300 -0.9596
13857TIP3    H263063   1.274   0.602  11.333  0.7456 -0.7945 -0.9151
13858TIP3   OH263064   4.351   1.062  17.102 -0.1705  0.7610 -0.2981
13858TIP3    H163065   4.322   0.971  17.101 -0.1351  0.7483 -1.2913
13858TIP3    H263066   4.281   1.108  17.148 -0.7818  0.4007 -0.8357
13859TIP3   OH263067   6.693   0.518   3.927 -0.6671 -0.1880  0.3656
13859TIP3    H163068   6.753   0.547   3.858  1.3805 -3.2978  0.6335
13859TIP3    H263069   6.729   0.557   4.007 -2.5547  2.7236 -0.0624
13860TIP3   OH263070   2.042   6.308  13.189 -0.2806 -0.6697  0.3804
13860TIP3    H163071   2.032   6.356  13.107  1.6382  0.4788  0.7602
13860TIP3    H263072   2.021   6.217  13.167  1.8651 -0.7155 -1.8365
13861TIP3   OH263073   4.589   2.159  16.356  0.2802  0.2535  0.0938
13861TIP3    H163074   4.636   2.203  16.285 -1.0121  1.8572  0.1767
13861TIP3    H263075   4.616   2.204  16.435  2.3358 -2.0456  0.8510
13862TIP3   OH263076   5.747   5.564  14.332  0.1848 -0.0295  0.3330
13862TIP3    H163077   5.714   5.650  14.308  1.2878  0.1436 -0.6403
13862TIP3    H263078   5.801   5.537  14.257  0.2288 -1.3649  0.8149
13863TIP3   OH263079   1.284   2.168  16.609 -0.6991  0.2850 -0.4022
13863TIP3    H163080   1.335   2.129  16.538  0.2656 -0.5752  0.7107
13863TIP3    H263081   1.344   2.169  16.684 -1.9322  0.3892  0.6196
13864TIP3   OH263082   2.260   4.249   2.078  0.0254  0.7832  0.3658
13864TIP3    H163083   2.243   4.335   2.040 -0.6581  0.2657 -0.5500
13864TIP3    H263084   2.201   4.244   2.154  0.2175  1.2024  0.5412
13865TIP3   OH263085   4.958   6.185   1.401  0.3515  0.0208 -0.5681
13865TIP3    H163086   4.875   6.223   1.371 -0.6044 -0.4873  1.3227
13865TIP3    H263087   4.974   6.114   1.339 -1.4177 -0.8193 -0.1449
13866TIP3   OH263088   5.660   4.240   1.482 -0.4387 -0.5960 -0.3817
13866TIP3    H163089   5.716   4.287   1.544 -0.3212 -0.6030 -0.4820
13866TIP3    H263090   5.598   4.193   1.537 -0.0658 -0.9445 -0.2553
13867TIP3   OH263091   0.274   2.972   2.453  0.1568 -0.1331 -0.3011
13867TIP3    H163092   0.342   3.012   2.398  0.2779  0.9346  0.6000
13867TIP3    H263093   0.311   2.888   2.479  0.9205  0.2093 -0.2445
13868TIP3   OH263094   6.211   2.555  15.878 -0.2815  0.7865 -0.5766
13868TIP3    H163095   6.236   2.584  15.966 -3.3029 -2.1396  1.4714
13868TIP3    H263096   6.272   2.484  15.857  1.1200  2.1732 -1.4412
13869TIP3   OH263097   3.437   6.529   3.782 -0.4939  0.0920  0.0152
13869TIP3    H163098   3.479   6.554   3.700  1.5408  0.3569  1.0557
13869TIP3    H263099   3.363   6.589   3.791  0.3379  1.2850 -0.7551
13870TIP3   OH263100   4.174   1.070  15.106  0.1298 -0.4353  0.0624
13870TIP3    H163101   4.087   1.107  15.089  0.5873  1.0619  0.7662
13870TIP3    H263102   4.178   0.992  15.052  0.3810  2.3299 -4.3645
13871TIP3   OH263103   1.963   5.681  16.119 -0.0477  0.1313  0.0268
13871TIP3    H163104   2.021   5.735  16.065  0.3746 -0.2205  0.1222
13871TIP3    H263105   1.958   5.598  16.071  0.5501 -0.2803  0.6669
13872TIP3   OH263106   5.307   5.661   0.907 -0.0777  0.3337 -0.3456
13872TIP3    H163107   5.358   5.581   0.892  0.8323  0.5433  1.3361
13872TIP3    H263108   5.369   5.732   0.889  0.6734  0.5946  2.6537
13873TIP3   OH263109   0.389   5.881   0.871  0.5130 -0.2735  0.5654
13873TIP3    H163110   0.406   5.973   0.891  1.4830 -0.3653  0.2144
13873TIP3    H263111   0.444   5.863   0.795  0.8119 -1.3168  1.0153
13874TIP3   OH263112   4.455   2.451  15.560 -0.1482 -0.0737 -0.0988
13874TIP3    H163113   4.537   2.483  15.597  0.9297 -2.1499 -0.4975
13874TIP3    H263114   4.467   2.458  15.465 -0.4994 -0.2073 -0.1564
13875TIP3   OH263115   2.226   0.809   4.571  0.3944 -0.7430  0.1901
13875TIP3    H163116   2.281   0.827   4.495  0.0029 -0.9559 -0.1447
13875TIP3    H263117   2.145   0.856   4.554  0.2711 -0.8655  0.4317
13876TIP3   OH263118   4.408   5.827  16.692  0.3166 -0.3783  0.4515
13876TIP3    H163119   4.413   5.798  16.601 -2.5558  1.4930 -0.4406
13876TIP3    H263120   4.464   5.904  16.697 -2.9345  2.3332 -1.1525
13877TIP3   OH263121   5.337   5.729   4.140  0.4779 -0.2405  0.2297
13877TIP3    H163122   5.367   5.656   4.086  1.1429  0.7854 -0.8112
13877TIP3    H263123   5.262   5.765   4.093  0.5089  0.1045  0.4425
13878TIP3   OH263124   6.166   3.008   0.535 -1.0522  0.0725 -0.7597
13878TIP3    H163125   6.141   2.981   0.447  1.4272 -0.6945 -1.2987
13878TIP3    H263126   6.189   3.101   0.526 -0.5932 -0.0592 -0.9919
13879TIP3   OH263127   3.534   4.238  11.582  0.4398  0.1863 -0.3637
13879TIP3    H163128   3.615   4.187  11.591  0.6771  0.6371  0.0616
13879TIP3    H263129   3.476   4.204  11.650  0.5120  0.3333 -0.2317
13880TIP3   OH263130   5.311   5.273   2.171 -0.0128 -0.0395 -0.0341
13880TIP3    H163131   5.298   5.200   2.232 -1.0979 -0.9938 -1.3560
13880TIP3    H263132   5.270   5.244   2.089  1.1665  1.3028 -1.1572
13881TIP3   OH263133   1.035   6.151   5.573  0.4622  0.3636  0.0753
13881TIP3    H163134   1.006   6.161   5.664  1.9484  1.4468  0.4757
13881TIP3    H263135   1.050   6.241   5.543  1.8740 -0.0630 -0.5880
13882TIP3   OH263136   4.168   4.138  15.699 -0.5058 -0.4971  0.0864
13882TIP3    H163137   4.090   4.102  15.658  0.2391 -0.3079 -1.5485
13882TIP3    H263138   4.143   4.227  15.724 -1.6227 -1.2882  2.0454
13883TIP3   OH263139   3.805   0.564   1.069 -0.4618  0.4025 -0.0863
13883TIP3    H163140   3.808   0.505   1.145 -3.1776  1.2648  0.8250
13883TIP3    H263141   3.791   0.651   1.107  0.7571  1.2763 -1.5200
13884TIP3   OH263142   5.367   5.356  12.463 -0.1826  0.3361 -1.1936
13884TIP3    H163143   5.326   5.440  12.482  1.8971  1.2699 -0.4582
13884TIP3    H263144   5.444   5.379  12.411  2.3396 -0.6407  1.7976
13885TIP3   OH263145   0.052   1.537  13.602 -0.0749  0.6625 -0.1514
13885TIP3    H163146   0.039   1.463  13.541  0.0059  0.7796 -0.3123
13885TIP3    H263147  -0.001   1.608  13.564  0.8366  1.0720 -0.6856
13886TIP3   OH263148   0.444   1.151   3.205 -0.0305  0.3420 -0.6060
13886TIP3    H163149   0.510   1.174   3.140  0.6282 -0.2819 -0.1684
13886TIP3    H263150   0.431   1.057   3.195  0.2598  0.1927  0.3242
13887TIP3   OH263151   2.881   0.271  12.880  0.3267  0.0519 -0.2667
13887TIP3    H163152   2.939   0.200  12.852  0.7585  0.3119 -0.0237
13887TIP3    H263153   2.840   0.301  12.798 -0.9002 -1.3706 -0.2254
13888TIP3   OH263154   0.501   0.017   3.499 -0.3691 -0.1727  0.1189
13888TIP3    H163155   0.508  -0.030   3.583  2.1156  1.9043  1.2116
13888TIP3    H263156   0.558  -0.031   3.440 -0.9568 -0.7796  0.0325
13889TIP3   OH263157   4.451   3.229   3.952 -0.3100  0.3076  0.4572
13889TIP3    H163158   4.491   3.149   3.987  2.0321  1.2759  0.1413
13889TIP3    H263159   4.450   3.215   3.857 -0.5994  0.3591  0.4519
13890TIP3   OH263160   0.676   3.504   2.797 -0.2155  0.4723 -0.0512
13890TIP3    H163161   0.645   3.562   2.867 -0.7045  0.7076 -0.4504
13890TIP3    H263162   0.596   3.475   2.753  0.0211 -0.5515  0.1697
13891TIP3   OH263163   4.072   4.761   1.949 -0.0751  0.0693  0.4018
13891TIP3    H163164   4.011   4.783   2.019 -1.3300 -1.4570 -0.1681
13891TIP3    H263165   4.117   4.844   1.930 -2.0355  1.2847  0.7670
13892TIP3   OH263166   4.034   0.278  15.027 -0.7198  0.4230 -1.0310
13892TIP3    H163167   3.941   0.285  15.004 -0.6309  0.9681 -1.2288
13892TIP3    H263168   4.073   0.359  14.995 -0.0338 -0.1200 -1.5914
13893TIP3   OH263169   2.875   5.043   3.818  0.0867  0.4846  0.0453
13893TIP3    H163170   2.821   4.969   3.845 -1.6931  1.0456 -1.7549
13893TIP3    H263171   2.959   5.029   3.863 -0.8153 -1.5794  1.2309
13894TIP3   OH263172   4.439   6.060   0.531  0.2796  0.2392  0.1502
13894TIP3    H163173   4.344   6.054   0.537  0.2933 -1.3144 -0.7206
13894TIP3    H263174   4.470   5.970   0.538  1.6371  0.6405 -0.3013
13895TIP3   OH263175   1.537   4.042  17.321 -0.0350 -0.8619  0.5144
13895TIP3    H163176   1.556   4.126  17.361  1.4001 -0.2786 -1.2589
13895TIP3    H263177   1.534   3.980  17.395  1.4017  0.3193  1.6229
13896TIP3   OH263178   1.125   4.809   0.171 -0.2983 -0.1154  0.1498
13896TIP3    H163179   1.192   4.764   0.119 -0.4330 -0.0457 -0.0858
13896TIP3    H263180   1.081   4.739   0.218 -0.1436 -0.1749  0.2081
13897TIP3   OH263181   0.269   5.314  12.931 -0.0779  0.6007 -0.2891
13897TIP3    H163182   0.349   5.332  12.979 -0.2821  2.1687 -0.5030
13897TIP3    H263183   0.296   5.312  12.839  0.0178 -0.7250 -0.2530
13898TIP3   OH263184   0.916   4.637   4.555 -0.6489 -0.0978 -0.8505
13898TIP3    H163185   1.011   4.628   4.569 -0.3082  1.3756 -2.0017
13898TIP3    H263186   0.877   4.586   4.626  1.0024  1.5030  1.3872
13899TIP3   OH263187   5.437   4.806   5.590  0.0057  0.6948  0.3234
13899TIP3    H163188   5.422   4.868   5.518 -0.8351  0.5675  0.3846
13899TIP3    H263189   5.370   4.828   5.655 -0.4542 -0.4328  0.2460
13900TIP3   OH263190   4.247   3.320  15.112  0.6474  0.4943 -0.0073
13900TIP3    H163191   4.248   3.379  15.036  0.2200  1.9392  1.0661
13900TIP3    H263192   4.312   3.253  15.092  2.1839  2.1243 -0.6746
13901TIP3   OH263193   3.894   3.201  15.656  0.5274 -0.1429 -0.1303
13901TIP3    H163194   3.896   3.109  15.682  2.2521 -0.1054 -0.0381
13901TIP3    H263195   3.832   3.203  15.583 -1.0125 -1.0156  1.0776
13902TIP3   OH263196   4.876   2.915  13.953 -0.7321 -0.0560  0.5434
13902TIP3    H163197   4.801   2.855  13.956  0.7093 -2.0610 -0.6076
13902TIP3    H263198   4.873   2.953  13.866 -0.0506 -0.7133  0.2160
13903TIP3   OH263199   2.165   3.451   2.932  0.0790  0.3509 -0.1449
13903TIP3    H163200   2.116   3.369   2.923  3.3388 -1.9707  1.3018
13903TIP3    H263201   2.177   3.481   2.842 -1.6377 -0.4293 -0.6833
13904TIP3   OH263202   3.201   6.119  15.872  0.5417 -0.3059  0.1616
13904TIP3    H163203   3.127   6.171  15.903  0.4158 -0.6299  0.4093
13904TIP3    H263204   3.164   6.033  15.852  0.7090 -0.2325 -0.4638
13905TIP3   OH263205   0.050   4.917   5.225  0.2021 -0.4835 -0.1055
13905TIP3    H163206   0.113   4.980   5.190  1.1613 -0.9909  0.6560
13905TIP3    H263207   0.104   4.847   5.261 -0.7317 -0.3452  1.6992
13906TIP3   OH263208   1.161   5.342   2.348  0.1848  0.6796  0.2285
13906TIP3    H163209   1.150   5.355   2.442 -1.5131 -1.0829  0.3134
13906TIP3    H263210   1.084   5.384   2.309 -0.2022 -0.4136 -0.2013
13907TIP3   OH263211   4.101   4.598   5.826 -0.4318 -0.1038 -0.0748
13907TIP3    H163212   4.080   4.614   5.734  2.9347  1.7463 -0.6912
13907TIP3    H263213   4.026   4.550   5.860 -3.1149  1.6434 -3.0222
13908TIP3   OH263214   1.933   1.563  13.291  0.0452  1.0169  0.6950
13908TIP3    H163215   1.931   1.642  13.238  1.1381  0.1989 -0.6294
13908TIP3    H263216   2.016   1.521  13.269 -1.1157 -1.2122  0.2773
13909TIP3   OH263217   1.724   2.579   4.147  0.4630  0.6875 -0.4198
13909TIP3    H163218   1.807   2.560   4.191  1.2509 -1.0872 -2.5098
13909TIP3    H263219   1.748   2.639   4.077  0.5295 -1.6729 -2.5491
13910TIP3   OH263220   0.103   4.443  11.399  0.4094  0.1786  0.0169
13910TIP3    H163221   0.130   4.351  11.392 -1.4783 -0.5129  0.8941
13910TIP3    H263222   0.185   4.492  11.405  1.4719 -1.4255 -0.5357
13911TIP3   OH263223   1.950   0.225  16.435  0.1254 -0.0710 -0.0403
13911TIP3    H163224   1.973   0.313  16.406  0.4665 -0.6543 -1.6088
13911TIP3    H263225   2.033   0.177  16.438 -0.3860 -1.2983 -2.6618
13912TIP3   OH263226   2.310   0.161  16.197  0.3057  0.4032 -0.5828
13912TIP3    H163227   2.293   0.090  16.135  0.0915  0.0015 -0.0714
13912TIP3    H263228   2.404   0.179  16.187  0.4396 -0.2027 -0.4521
13913TIP3   OH263229   5.024   3.706   1.120  0.3267  0.0466 -0.5487
13913TIP3    H163230   5.109   3.701   1.162 -0.4932  1.1184  1.3494
13913TIP3    H263231   5.013   3.620   1.079  0.2831 -2.0420  3.3824
13914TIP3   OH263232   5.475   5.976   4.262 -0.0972  0.3592  0.6604
13914TIP3    H163233   5.444   5.895   4.221  0.0118  0.6863 -0.0878
13914TIP3    H263234   5.395   6.027   4.279 -0.0156  1.1278 -1.1059
13915TIP3   OH263235   5.464   1.066  10.826  0.6267 -0.2761  0.1515
13915TIP3    H163236   5.411   1.019  10.762  0.6494 -0.2329  0.1013
13915TIP3    H263237   5.543   1.013  10.836 -0.3211 -1.4785  1.8007
13916TIP3   OH263238   5.094   1.043   0.327 -0.0569 -0.1464 -0.0442
13916TIP3    H163239   5.033   1.063   0.398 -1.2596 -1.2043 -0.7206
13916TIP3    H263240   5.139   0.963   0.356  1.4997  0.9456  0.7111
13917TIP3   OH263241   0.651   2.057  13.826 -0.1857 -0.0044  0.3361
13917TIP3    H163242   0.598   1.999  13.880  0.4293  0.8420  1.9139
13917TIP3    H263243   0.623   2.038  13.736 -0.7599 -1.9330  0.8754
13918TIP3   OH263244   3.638   5.640   1.937 -0.2530  0.0873 -0.4856
13918TIP3    H163245   3.732   5.643   1.953 -0.4914  1.2100  0.9080
13918TIP3    H263246   3.611   5.732   1.939 -1.4897 -0.2732 -0.1303
13919TIP3   OH263247   3.166   1.010   0.719 -0.0629  0.6167  0.0184
13919TIP3    H163248   3.122   1.065   0.654  0.2433  2.3373  1.1957
13919TIP3    H263249   3.244   1.060   0.744 -0.7130  0.5560  2.4397
13920TIP3   OH263250   4.445   5.299  10.644 -0.2546  0.5492 -0.4594
13920TIP3    H163251   4.473   5.324  10.556  1.4059 -1.2863 -0.5233
13920TIP3    H263252   4.525   5.269  10.687 -1.1561  0.7586  1.4601
13921TIP3   OH263253   3.578   2.063  15.010 -0.0737 -0.0478 -0.3128
13921TIP3    H163254   3.607   2.072  14.919  0.7363  0.3994 -0.0236
13921TIP3    H263255   3.566   2.153  15.040  0.7875 -0.1353  0.3592
13922TIP3   OH263256   1.830   3.892  13.219 -0.3239  0.0236  0.7056
13922TIP3    H163257   1.925   3.902  13.222 -0.3899  0.6147  1.2535
13922TIP3    H263258   1.813   3.840  13.141  0.4761 -0.4223  0.8195
13923TIP3   OH263259   4.447   2.366  15.250 -0.2322 -0.5028  0.4982
13923TIP3    H163260   4.413   2.453  15.231 -0.1303 -0.3093  1.1719
13923TIP3    H263261   4.542   2.373  15.240 -0.1102 -0.2121  1.7476
13924TIP3   OH263262   1.861   5.952   5.368 -0.1399  0.1104 -0.0583
13924TIP3    H163263   1.931   5.992   5.317  0.0001  1.0191  0.8023
13924TIP3    H263264   1.839   6.018   5.434 -2.4688  0.2599 -0.8899
13925TIP3   OH263265   3.553   5.279   0.738  0.6155  0.1628 -0.1992
13925TIP3    H163266   3.499   5.318   0.670  0.7694 -0.4377 -0.6682
13925TIP3    H263267   3.570   5.190   0.708  0.0501 -0.3675  0.9883
13926TIP3   OH263268   2.231   1.695  11.189 -0.2136 -0.2426 -0.1342
13926TIP3    H163269   2.294   1.627  11.211 -1.4989 -1.1969  0.7782
13926TIP3    H263270   2.150   1.648  11.169 -1.7595  0.9726  2.5531
13927TIP3   OH263271   5.288   0.238   0.857  0.0221  0.3797 -0.5999
13927TIP3    H163272   5.226   0.308   0.878  0.3796  1.4806 -2.8919
13927TIP3    H263273   5.374   0.277   0.872  0.2116 -0.1413 -0.3007
13928TIP3   OH263274   2.148   5.666   2.202 -0.5895  0.5765  0.1544
13928TIP3    H163275   2.194   5.676   2.119 -1.1848  1.3905 -0.0876
13928TIP3    H263276   2.218   5.653   2.267 -0.1561 -0.8692 -0.5642
13929TIP3   OH263277   6.013   2.632  17.152  0.0976  0.0834 -0.1076
13929TIP3    H163278   5.982   2.674  17.232  2.9602  2.4388 -0.0805
13929TIP3    H263279   6.075   2.566  17.182  1.0953  0.8973 -0.3388
13930TIP3   OH263280   5.250   2.796   0.435 -0.0950  1.0199  0.1887
13930TIP3    H163281   5.159   2.816   0.460 -1.3087 -1.1787 -2.0378
13930TIP3    H263282   5.282   2.740   0.506  0.0065  2.7661  1.5925
13931TIP3   OH263283   4.136   0.377   1.179 -0.6216 -0.2814 -0.4367
13931TIP3    H163284   4.088   0.356   1.099  1.1088  1.3241 -1.9918
13931TIP3    H263285   4.228   0.365   1.156  0.0199  1.8826  0.7168
13932TIP3   OH263286   1.366   0.306   2.208 -0.1525  0.3971 -0.4611
13932TIP3    H163287   1.376   0.222   2.254 -0.3388 -0.1315 -1.3472
13932TIP3    H263288   1.327   0.364   2.273 -1.6864 -0.7162 -0.3235
13933TIP3   OH263289   2.161   0.975  17.383 -0.5340 -0.0267  0.1322
13933TIP3    H163290   2.251   0.989  17.353 -0.5369 -1.2538 -0.5311
13933TIP3    H263291   2.107   1.022  17.319 -0.3560  1.1460  0.8263
13934TIP3   OH263292   0.972   1.495   0.467  0.3590 -0.4781  0.1539
13934TIP3    H163293   1.037   1.510   0.536  0.8618 -1.4386 -0.0941
13934TIP3    H263294   0.956   1.401   0.470  0.2006 -0.4945 -0.8747
13935TIP3   OH263295   6.466   1.406  13.646  0.5965  0.3013  0.0187
13935TIP3    H163296   6.520   1.484  13.633  0.4138  1.0947  3.3253
13935TIP3    H263297   6.528   1.334  13.653  1.0200  0.7267  0.6861
13936TIP3   OH263298   3.511   0.166  16.440  0.2765 -0.1889  0.4012
13936TIP3    H163299   3.588   0.109  16.440  0.5159  0.0586 -1.5195
13936TIP3    H263300   3.464   0.143  16.360 -0.6371  0.9804  0.5747
13937TIP3   OH263301   4.659   3.680   2.557  0.1492  0.7850  0.2109
13937TIP3    H163302   4.682   3.588   2.542  1.2813  1.0120  0.4734
13937TIP3    H263303   4.587   3.697   2.496  0.3164 -0.1062 -0.2566
13938TIP3   OH263304   3.024   3.665  12.445  0.0134 -0.6601 -0.3895
13938TIP3    H163305   2.944   3.650  12.394 -0.7677  2.2166 -0.2262
13938TIP3    H263306   3.079   3.718  12.388  1.2474 -1.4790  0.0092
13939TIP3   OH263307   5.925   0.046  14.140  0.5104  0.2982 -0.3850
13939TIP3    H163308   5.952  -0.045  14.152 -1.7045 -0.2619  1.1118
13939TIP3    H263309   6.001   0.090  14.104  2.1537 -1.8258  0.3070
13940TIP3   OH263310   6.722   6.401  14.884 -0.2266  0.4550 -0.4610
13940TIP3    H163311   6.672   6.383  14.963 -0.0949  1.8488 -0.0288
13940TIP3    H263312   6.713   6.322  14.831 -0.5985 -0.3684  0.7899
13941TIP3   OH263313   1.342   5.826   1.067 -0.3461  0.1584  0.4359
13941TIP3    H163314   1.247   5.816   1.070 -0.3583  0.4902  2.1308
13941TIP3    H263315   1.357   5.896   1.003 -1.2076 -0.1227 -0.0959
13942TIP3   OH263316   4.082   0.209  15.892  0.0123 -0.1066  0.1204
13942TIP3    H163317   3.999   0.162  15.882  0.2220 -0.5300  0.3077
13942TIP3    H263318   4.085   0.231  15.985  0.3590 -0.5824  0.2295
13943TIP3   OH263319   2.425   4.759  13.552 -0.6756 -0.0405 -0.7439
13943TIP3    H163320   2.509   4.776  13.594 -0.7898 -0.4664 -0.3357
13943TIP3    H263321   2.420   4.663  13.546 -1.3027 -0.0346 -0.4106
13944TIP3   OH263322   1.521   2.609  11.535  0.4681 -0.3975 -0.2195
13944TIP3    H163323   1.582   2.588  11.464  1.6940  0.2005  0.6231
13944TIP3    H263324   1.492   2.698  11.516  0.8230 -0.2249  0.0473
13945TIP3   OH263325   4.284   0.172   5.862 -0.0024 -0.6808  0.3166
13945TIP3    H163326   4.277   0.088   5.818 -1.4144  0.3293 -1.5256
13945TIP3    H263327   4.209   0.174   5.922  0.1591 -0.8101  0.5253
13946TIP3   OH263328   6.185   5.301  16.766  0.1262  0.0941 -0.1458
13946TIP3    H163329   6.173   5.363  16.838 -0.3493  1.1274 -1.0854
13946TIP3    H263330   6.169   5.215  16.806 -0.9273  0.7009  0.8082
13947TIP3   OH263331   2.715   3.254  13.930  0.4772 -0.4651  0.1802
13947TIP3    H163332   2.771   3.185  13.964  0.7224 -0.7670 -0.8300
13947TIP3    H263333   2.630   3.212  13.914  0.6783 -0.5783 -0.6038
13948TIP3   OH263334   6.303   5.605  16.223 -0.6488 -0.3388 -0.6393
13948TIP3    H163335   6.351   5.627  16.143  1.0562 -0.9498  0.1742
13948TIP3    H263336   6.211   5.614  16.199 -0.1523  1.1464 -2.1881
13949TIP3   OH263337   3.771   4.051   3.700 -0.0819 -0.3246 -0.4721
13949TIP3    H163338   3.829   4.011   3.764 -0.8915 -0.5167  0.1549
13949TIP3    H263339   3.776   3.994   3.624 -1.7420 -2.0705  0.6400
13950TIP3   OH263340   0.567   0.506  11.321 -0.2033 -0.7798  0.9302
13950TIP3    H163341   0.545   0.462  11.239  0.5249  1.2501 -0.4076
13950TIP3    H263342   0.496   0.481  11.381 -1.2262 -1.6005 -0.5643
13951TIP3   OH263343   3.630   1.333   4.976 -0.0888 -0.6606 -0.0745
13951TIP3    H163344   3.721   1.310   4.997  0.0234  0.4496  0.7333
13951TIP3    H263345   3.629   1.429   4.975 -1.0830 -0.6636 -0.8750
13952TIP3   OH263346   3.732   4.574  12.578  0.0285 -0.1289  0.2664
13952TIP3    H163347   3.744   4.632  12.504  0.4480 -1.3165 -0.6290
13952TIP3    H263348   3.820   4.558  12.612 -0.0759 -0.2878  0.4702
13953TIP3   OH263349   4.225   4.266   5.185 -0.7225  0.3949 -0.0619
13953TIP3    H163350   4.176   4.339   5.148 -1.7398  1.0852  2.4637
13953TIP3    H263351   4.276   4.304   5.256  0.3463 -1.0236 -0.0175
13954TIP3   OH263352   1.753   0.939   3.200 -0.5249 -0.2402 -0.6776
13954TIP3    H163353   1.665   0.927   3.236 -0.1750 -1.4098 -0.1571
13954TIP3    H263354   1.784   0.850   3.182  0.2322  0.2005 -1.6552
13955TIP3   OH263355   1.798   6.141   5.581 -0.0789 -0.1798 -0.0677
13955TIP3    H163356   1.862   6.096   5.636 -0.9164 -1.3391 -0.0281
13955TIP3    H263357   1.732   6.174   5.642  1.1910  2.3879  0.0841
13956TIP3   OH263358   2.154   2.622   1.743  0.3000 -0.7622 -0.7240
13956TIP3    H163359   2.070   2.616   1.696 -0.7650 -0.2190  1.0285
13956TIP3    H263360   2.160   2.714   1.769  0.4984 -1.1858  0.8012
13957TIP3   OH263361   2.870   0.265   4.439  0.0842 -0.1123 -0.0799
13957TIP3    H163362   2.961   0.255   4.467  0.4345 -1.3296 -1.5105
13957TIP3    H263363   2.857   0.360   4.432  0.9980  0.0969  0.8492
13958TIP3   OH263364   6.485   5.750  14.324 -0.2495 -0.4120  0.1362
13958TIP3    H163365   6.462   5.706  14.242  0.0091  0.6886 -0.5419
13958TIP3    H263366   6.550   5.816  14.299  0.8785 -0.9764  1.4462
13959TIP3   OH263367   0.887   0.311   3.107 -0.5115 -0.5731 -0.7269
13959TIP3    H163368   0.916   0.225   3.137  2.0311  0.9285  1.4839
13959TIP3    H263369   0.818   0.336   3.168 -2.1452 -1.4402 -2.1110
13960TIP3   OH263370   5.955   3.479   1.104  0.0147  0.6130 -0.4018
13960TIP3    H163371   5.897   3.476   1.180  1.0452  2.2407  0.5114
13960TIP3    H263372   6.026   3.418   1.126  1.5194  2.7737  1.0686
13961TIP3   OH263373   1.678   6.268   1.615 -0.2945  0.1955  0.1585
13961TIP3    H163374   1.603   6.322   1.639  0.2906  1.1321 -0.0458
13961TIP3    H263375   1.647   6.212   1.544 -0.7974  0.5720  0.0796
13962TIP3   OH263376   2.241   0.852   2.311 -0.3585  0.0040  0.2210
13962TIP3    H163377   2.231   0.873   2.218 -0.3880  0.7542  0.3875
13962TIP3    H263378   2.317   0.793   2.314  1.3928  2.1276 -0.0174
13963TIP3   OH263379   2.031   3.972  12.050  0.1371  0.1135 -0.0876
13963TIP3    H163380   1.965   4.012  11.994 -2.0445 -1.4799  1.2020
13963TIP3    H263381   2.067   3.901  11.996 -0.0403  0.2601 -0.4035
13964TIP3   OH263382   1.889   2.397   5.330 -0.0495 -0.2536 -0.0880
13964TIP3    H163383   1.896   2.490   5.309  0.9026 -0.3031 -0.0325
13964TIP3    H263384   1.884   2.394   5.426 -2.8218 -0.1190 -0.1727
13965TIP3   OH263385   0.444   0.380   3.876 -0.4920  0.1971 -0.0387
13965TIP3    H163386   0.437   0.306   3.937  1.3858 -0.3899 -0.4922
13965TIP3    H263387   0.448   0.340   3.789  0.0171  0.8601 -0.3276
13966TIP3   OH263388   6.337   2.782  13.790 -0.3752  0.1139 -0.1409
13966TIP3    H163389   6.261   2.730  13.819 -1.2860  1.8930  0.8246
13966TIP3    H263390   6.311   2.815  13.704  0.4598 -1.4512 -1.0412
13967TIP3   OH263391   1.469   6.370  16.416  0.3866 -0.0635 -0.0240
13967TIP3    H163392   1.509   6.408  16.493  0.5748 -0.1850 -0.0614
13967TIP3    H263393   1.447   6.280  16.442 -1.1601  0.4277  0.4624
13968TIP3   OH263394   5.125   2.689   5.639 -0.0671 -0.0214 -0.1183
13968TIP3    H163395   5.179   2.764   5.665 -0.4696 -0.0823  0.9230
13968TIP3    H263396   5.187   2.616   5.635  0.3463  0.3563 -1.2327
13969TIP3   OH263397   5.583   1.442   5.348 -0.5661 -0.0787  0.2285
13969TIP3    H163398   5.664   1.483   5.380 -0.6642  0.1031  0.2436
13969TIP3    H263399   5.551   1.503   5.281 -0.0963 -0.6971 -0.5692
13970TIP3   OH263400   2.615   4.149   3.015 -0.0177 -0.2300  0.4215
13970TIP3    H163401   2.524   4.122   3.004 -0.6184  2.1119 -0.9770
13970TIP3    H263402   2.644   4.173   2.927  0.7831  2.3982  1.2894
13971TIP3   OH263403   3.085   1.156  11.063  0.1801  0.4606  0.3308
13971TIP3    H163404   3.178   1.152  11.044  0.1777  1.9979 -0.1030
13971TIP3    H263405   3.079   1.191  11.152  0.0360 -1.5161  1.1520
13972TIP3   OH263406   5.421   6.246   4.555 -0.7107 -0.3164  0.2990
13972TIP3    H163407   5.387   6.287   4.476 -1.2861  0.7008  1.0490
13972TIP3    H263408   5.387   6.157   4.553 -2.0672  0.1809  0.1884
13973TIP3   OH263409   0.971   4.291   0.299  0.1352  0.6350  0.1212
13973TIP3    H163410   0.912   4.277   0.373  0.2006 -0.6908 -0.0475
13973TIP3    H263411   1.058   4.277   0.336  0.2784  1.4456  0.1098
13974TIP3   OH263412   5.354   4.431   3.296  0.3059  0.0939 -0.3666
13974TIP3    H163413   5.348   4.419   3.391 -1.1297 -1.0350 -0.5584
13974TIP3    H263414   5.414   4.363   3.267  1.6232  1.1420 -0.1736
13975TIP3   OH263415   4.166   0.436   4.845 -0.0288 -0.3891 -0.0436
13975TIP3    H163416   4.130   0.350   4.822 -0.8778 -0.6971  2.1788
13975TIP3    H263417   4.091   0.495   4.842  0.4358  0.1849 -0.9566
13976TIP3   OH263418   2.905   2.960   5.474 -0.0735  0.1844  0.3009
13976TIP3    H163419   2.915   2.885   5.416 -2.1081  0.0171  0.0998
13976TIP3    H263420   2.993   2.996   5.482  0.6219 -1.1065 -1.1001
13977TIP3   OH263421   6.713   1.813   3.341 -0.0279  0.2291  0.2301
13977TIP3    H163422   6.724   1.744   3.275 -2.0295 -0.3196  0.3937
13977TIP3    H263423   6.761   1.888   3.306 -0.3822 -0.2914 -1.4735
13978TIP3   OH263424   1.829   4.078  14.637  0.0470  0.3706  0.6197
13978TIP3    H163425   1.830   3.985  14.661  1.2978  0.4405  0.8921
13978TIP3    H263426   1.916   4.110  14.660  0.5743  0.9947 -1.9737
13979TIP3   OH263427   4.285   3.200   3.484  0.3319  0.1213 -0.0633
13979TIP3    H163428   4.380   3.185   3.489  0.3713 -0.2247 -1.4933
13979TIP3    H263429   4.276   3.271   3.420 -0.4257 -0.6911 -0.8845
13980TIP3   OH263430   1.439   2.978  12.476  0.0922 -0.4330 -0.2955
13980TIP3    H163431   1.409   2.963  12.565 -0.2117 -0.1387 -0.3442
13980TIP3    H263432   1.407   2.903  12.426  2.8650 -2.2371  0.3972
13981TIP3   OH263433   2.947   2.570   1.417 -0.0906 -0.3467 -0.3833
13981TIP3    H163434   2.959   2.506   1.487 -0.8049 -1.1110 -0.9306
13981TIP3    H263435   2.971   2.522   1.337  0.4407  0.4223 -0.6943
13982TIP3   OH263436   4.757   5.956  14.856 -0.4601  0.2502 -0.1586
13982TIP3    H163437   4.751   6.041  14.813 -0.2869  0.3069 -0.0724
13982TIP3    H263438   4.667   5.925  14.861 -0.5146  0.3889 -0.2702
13983TIP3   OH263439   6.546   5.320   3.438 -0.1784  0.2776 -0.3153
13983TIP3    H163440   6.577   5.357   3.355  0.1499  1.3588  0.2621
13983TIP3    H263441   6.496   5.392   3.478 -0.8851 -0.4506  0.1261
13984TIP3   OH263442   5.836   1.759  13.483  0.3315  0.6341  0.4098
13984TIP3    H163443   5.742   1.740  13.473  0.5823 -1.5852  1.5940
13984TIP3    H263444   5.876   1.721  13.405  0.4316 -0.1409  0.8359
13985TIP3   OH263445   3.874   6.650   1.570  0.3307  0.9262 -0.3196
13985TIP3    H163446   3.942   6.659   1.637  0.0463  2.3937 -0.1868
13985TIP3    H263447   3.918   6.606   1.497  0.9137  0.1980  0.4479
13986TIP3   OH263448   4.792   3.104  16.511 -0.4295 -0.3590  0.5193
13986TIP3    H163449   4.854   3.144  16.450 -0.0215 -1.0921  0.4467
13986TIP3    H263450   4.820   3.013  16.518 -1.4520 -0.6867  0.5435
13987TIP3   OH263451   1.787   4.885  13.923  0.5243  0.5857  0.4919
13987TIP3    H163452   1.706   4.891  13.973 -0.0168  2.2448 -0.5102
13987TIP3    H263453   1.851   4.935  13.975  1.0743 -1.0776  1.4980
13988TIP3   OH263454   4.151   5.880  16.998  0.8932 -0.5527  0.0871
13988TIP3    H163455   4.097   5.871  16.919  1.4459 -2.2881 -0.1493
13988TIP3    H263456   4.239   5.897  16.965  0.7904  0.7895  0.4273
13989TIP3   OH263457   1.739   3.501   0.949 -0.2189  0.0978  0.0489
13989TIP3    H163458   1.740   3.585   0.904 -0.3903  0.2994  0.4128
13989TIP3    H263459   1.803   3.511   1.020 -0.2125 -0.0919  0.0722
13990TIP3   OH263460   3.510   4.564   5.590  0.4975  0.3977 -0.5607
13990TIP3    H163461   3.581   4.508   5.620  1.1785  0.5028 -1.9228
13990TIP3    H263462   3.431   4.525   5.627  1.1095 -0.5959 -0.2779
13991TIP3   OH263463   5.030   3.571   1.478 -0.1006 -0.4008  0.1616
13991TIP3    H163464   5.002   3.496   1.530  1.1782 -1.4058 -0.5456
13991TIP3    H263465   4.949   3.618   1.458 -0.8864 -1.4207  0.8584
13992TIP3   OH263466   5.986   6.628   0.612 -0.0858  0.2227  0.3293
13992TIP3    H163467   6.076   6.633   0.642  0.1305  1.0888 -0.4271
13992TIP3    H263468   5.946   6.559   0.666  1.4553 -1.3417 -0.4391
13993TIP3   OH263469   5.187   1.688   3.451  0.0038 -0.3263 -0.1041
13993TIP3    H163470   5.100   1.654   3.473 -0.3442 -0.6433 -1.8346
13993TIP3    H263471   5.170   1.774   3.415  0.3926 -0.4527 -0.5915
13994TIP3   OH263472   1.380   1.110  13.888 -0.0479 -0.6431  0.1861
13994TIP3    H163473   1.371   1.150  13.801 -1.5253  2.4483  1.6192
13994TIP3    H263474   1.471   1.125  13.912 -0.4221  1.6111  0.4548
13995TIP3   OH263475   1.851   2.002  14.759  0.3820 -0.1202  0.3987
13995TIP3    H163476   1.917   2.017  14.691  1.5712 -1.1060  1.2748
13995TIP3    H263477   1.791   2.076  14.752  0.7930  0.0925 -1.3365
13996TIP3   OH263478   2.494   3.054  17.343 -0.5670 -0.4458 -0.1120
13996TIP3    H163479   2.420   3.018  17.392 -1.3179 -0.7630 -1.4399
13996TIP3    H263480   2.464   3.140  17.313  0.1865  0.0986  0.6508
13997TIP3   OH263481   5.516   6.148   6.845 -0.3289 -0.2116 -0.4139
13997TIP3    H163482   5.553   6.211   6.907  1.4253  0.1422 -1.7443
13997TIP3    H263483   5.593   6.108   6.803 -1.4101 -2.4436 -0.4131
13998TIP3   OH263484   3.084   6.327   2.689  0.1539 -0.1394 -0.2908
13998TIP3    H163485   3.170   6.341   2.649 -0.3381  0.7028 -1.0960
13998TIP3    H263486   3.083   6.234   2.710  1.5317 -0.0247  0.4003
13999TIP3   OH263487   5.365   4.552   1.242  0.2149  0.0435  0.2704
13999TIP3    H163488   5.352   4.476   1.185 -0.0041  0.3574 -0.1039
13999TIP3    H263489   5.457   4.575   1.230  0.6493 -0.9896  1.4309
14000TIP3   OH263490   4.681   1.916   1.489  0.5193  0.0857  0.0964
14000TIP3    H163491   4.676   1.908   1.394  1.1547  1.1772 -0.0503
14000TIP3    H263492   4.740   1.846   1.516 -1.4740 -1.7354 -0.0183
14001TIP3   OH263493   0.400   1.404  11.828 -0.2840  0.6523  0.3571
14001TIP3    H163494   0.431   1.493  11.842  0.1000  0.4437  0.8836
14001TIP3    H263495   0.438   1.378  11.744  0.2720  0.7058  0.5877
14002TIP3   OH263496   3.115   3.142  15.340 -0.0208 -0.2976  0.0944
14002TIP3    H163497   3.030   3.120  15.378 -0.3699  1.8856  0.7343
14002TIP3    H263498   3.143   3.221  15.387  1.7838 -0.2314 -0.9734
14003TIP3   OH263499   2.280   3.541  15.384 -0.2463 -0.0542  0.4976
14003TIP3    H163500   2.362   3.551  15.432 -1.3591  1.2473  2.2612
14003TIP3    H263501   2.264   3.627  15.346 -0.9388 -0.2072  0.4281
14004TIP3   OH263502   0.957   1.053   6.143  0.4410  0.2299 -0.3202
14004TIP3    H163503   1.008   1.134   6.146  0.8190  0.0165  2.5584
14004TIP3    H263504   0.870   1.079   6.175  0.6452 -0.4788  0.8931
14005TIP3   OH263505   6.364   1.173  14.930 -0.9719  0.1696 -0.2694
14005TIP3    H163506   6.302   1.123  14.877 -0.6329 -0.2185 -0.2992
14005TIP3    H263507   6.447   1.168  14.882 -0.9865  0.9549 -0.3957
14006TIP3   OH263508   1.419   4.710  15.969 -0.6406 -0.0511  0.1674
14006TIP3    H163509   1.356   4.664  15.913 -0.1979 -0.6778  0.1732
14006TIP3    H263510   1.499   4.658  15.962 -0.0815  0.8157  0.0521
14007TIP3   OH263511   5.824   0.282   2.434  0.8301  0.6625  0.1866
14007TIP3    H163512   5.841   0.371   2.464  1.2350  0.5697  0.2318
14007TIP3    H263513   5.909   0.238   2.438  0.4244 -0.0707  1.2940
14008TIP3   OH263514   4.102   3.547   0.835  0.4237 -0.1511  1.0565
14008TIP3    H163515   4.016   3.589   0.834  1.1973  1.5334  1.0971
14008TIP3    H263516   4.108   3.507   0.922 -0.2213 -0.0797  1.1388
14009TIP3   OH263517   1.252   2.864   0.270  0.6500  0.5132  0.3702
14009TIP3    H163518   1.235   2.880   0.363  2.3072  0.2211  0.7427
14009TIP3    H263519   1.181   2.910   0.225  0.1063  1.0844  1.7553
14010TIP3   OH263520   3.025   1.244  14.878  0.4337 -0.0809  0.3269
14010TIP3    H163521   2.959   1.173  14.877 -0.2751  0.5557  0.7432
14010TIP3    H263522   3.106   1.201  14.905  0.4584 -1.0936 -1.1962
14011TIP3   OH263523   6.664   4.655   4.135  0.3383  1.0463  0.3913
14011TIP3    H163524   6.743   4.677   4.086 -0.8997 -0.3516 -2.5374
14011TIP3    H263525   6.668   4.560   4.146 -0.5662  1.0505  0.8519
14012TIP3   OH263526   1.834   2.316  12.091 -0.0853  0.6777  0.2587
14012TIP3    H163527   1.739   2.305  12.096 -0.1333  0.4853 -0.8257
14012TIP3    H263528   1.853   2.384  12.155 -1.0240  1.1010  0.1147
14013TIP3   OH263529   5.113   3.406   3.868  0.4862 -0.1602  0.2778
14013TIP3    H163530   5.137   3.435   3.780 -0.1820 -1.1900 -0.2693
14013TIP3    H263531   5.174   3.334   3.887 -0.5836 -1.2226 -0.1588
14014TIP3   OH263532   4.252   1.245   0.419  0.6813  0.1644  0.7741
14014TIP3    H163533   4.211   1.329   0.441 -0.3971 -0.1487  0.0541
14014TIP3    H263534   4.257   1.245   0.324  0.7567 -0.5392  0.7737
14015TIP3   OH263535   3.292   3.254  14.017 -0.3131  0.0556  0.1889
14015TIP3    H163536   3.254   3.243  14.104 -0.0733 -2.4455  0.0396
14015TIP3    H263537   3.383   3.278  14.033 -0.4023  0.1088  0.6167
14016TIP3   OH263538   3.529   2.571   6.293 -0.0172  0.1781  0.0803
14016TIP3    H163539   3.488   2.657   6.289 -0.3554  0.0396  0.4593
14016TIP3    H263540   3.468   2.517   6.343 -0.0211 -0.4017 -0.5283
14017TIP3   OH263541   2.500   6.234   3.097  0.2985  0.0926  0.4983
14017TIP3    H163542   2.429   6.197   3.044  0.8009 -0.5546  0.2803
14017TIP3    H263543   2.495   6.187   3.180  0.0649  0.5035  0.7218
14018TIP3   OH263544   5.259   4.901   0.557  0.1227 -0.1490  0.2718
14018TIP3    H163545   5.191   4.838   0.536 -0.3971  0.3899  0.3168
14018TIP3    H263546   5.302   4.865   0.635 -0.4994 -0.1989  0.6005
14019TIP3   OH263547   5.564   2.684  13.554 -0.0297 -0.2174 -0.7912
14019TIP3    H163548   5.635   2.735  13.593  0.0713  1.1563 -2.6589
14019TIP3    H263549   5.494   2.687  13.620  1.1483 -0.4876  0.5168
14020TIP3   OH263550   2.373   3.032  12.431  0.2451 -0.0504  0.5838
14020TIP3    H163551   2.329   3.092  12.371 -2.5501 -1.6731  0.8208
14020TIP3    H263552   2.430   3.087  12.484  0.0303  1.9189 -1.1344
14021TIP3   OH263553   0.342   5.712   2.844  0.3113 -0.1855 -0.0536
14021TIP3    H163554   0.326   5.732   2.936  1.0730 -1.5270  0.4009
14021TIP3    H263555   0.374   5.621   2.844  2.6032  0.5376 -1.3778
14022TIP3   OH263556   4.945   4.453   6.363  0.4233 -0.9406  0.3599
14022TIP3    H163557   4.972   4.449   6.455 -1.4618 -0.5802  0.9748
14022TIP3    H263558   4.876   4.519   6.362  1.3356  0.0524 -1.5910
14023TIP3   OH263559   5.372   4.883  16.955  0.1926  0.0213 -0.4777
14023TIP3    H163560   5.461   4.886  16.919  1.4249 -0.2713  2.2913
14023TIP3    H263561   5.351   4.975  16.972  0.7446 -0.0194  0.5175
14024TIP3   OH263562   4.520   6.274  13.556  0.1721 -0.4114 -0.6425
14024TIP3    H163563   4.472   6.192  13.566  1.4454 -1.2112 -0.8048
14024TIP3    H263564   4.591   6.268  13.621  0.8083  0.1446 -1.2649
14025TIP3   OH263565   3.960   4.581   4.721 -0.0833  0.0598  0.2498
14025TIP3    H163566   3.928   4.536   4.799  1.4904  0.4916  1.1865
14025TIP3    H263567   4.054   4.591   4.735  0.7153 -1.9063 -2.7579
14026TIP3   OH263568   6.314   2.148   4.695  0.4479 -0.0091  0.3551
14026TIP3    H163569   6.351   2.233   4.669 -0.7521  0.5300  0.3617
14026TIP3    H263570   6.352   2.131   4.781  0.5698  0.5995  0.4273
14027TIP3   OH263571   2.268   5.934   0.399  0.1733 -0.0797 -0.1312
14027TIP3    H163572   2.240   5.884   0.322 -0.1299  0.2903 -0.2654
14027TIP3    H263573   2.188   5.976   0.430  0.1305 -0.8393  0.8541
14028TIP3   OH263574   0.937   3.064  13.544  0.5710 -0.1704 -0.3766
14028TIP3    H163575   0.905   3.048  13.633  0.4015 -1.3849 -0.6403
14028TIP3    H263576   0.912   3.155  13.526 -1.0305 -0.4611  0.1507
14029TIP3   OH263577   1.821   2.209  11.339  0.2273 -0.3880  0.0892
14029TIP3    H163578   1.893   2.193  11.278  1.5778 -0.1097  1.5388
14029TIP3    H263579   1.808   2.304  11.337 -0.3603 -0.4744 -0.4365
14030TIP3   OH263580   4.889   4.789   4.026  0.0288  0.2826 -0.3570
14030TIP3    H163581   4.946   4.714   4.039 -0.0084  0.4637  0.9865
14030TIP3    H263582   4.803   4.752   4.006  0.0276 -0.0281  0.2298
14031TIP3   OH263583   6.158   0.459  16.354 -0.1133  0.0764 -0.1229
14031TIP3    H163584   6.252   0.477  16.365  0.0201  0.4404 -1.6467
14031TIP3    H263585   6.155   0.372  16.316 -0.4558 -0.2749  0.6770
14032TIP3   OH263586   0.841   6.565   2.908  0.1354  0.0661  0.5265
14032TIP3    H163587   0.831   6.633   2.842 -2.0167 -0.5545  0.1184
14032TIP3    H263588   0.752   6.532   2.922  0.7182 -0.7725  2.7374
14033TIP3   OH263589   1.458   2.738  10.845  0.3052  0.2334 -0.9333
14033TIP3    H163590   1.435   2.706  10.758 -3.0829  0.8408 -0.4248
14033TIP3    H263591   1.384   2.711  10.900  1.5430  1.2964  1.3986
14034TIP3   OH263592   2.340   5.525  16.867  0.6506 -0.1008  0.3456
14034TIP3    H163593   2.433   5.502  16.870  1.0954  0.7245 -3.0300
14034TIP3    H263594   2.295   5.440  16.861  0.9136 -0.6110  3.6233
14035TIP3   OH263595   1.148   5.251  16.850 -0.2980  0.3078 -0.2361
14035TIP3    H163596   1.178   5.266  16.940 -1.8413  1.4811  0.1187
14035TIP3    H263597   1.084   5.180  16.858 -0.4972  0.4696 -0.3880
14036TIP3   OH263598   3.842   2.842   4.191 -0.0866  0.6857  0.5367
14036TIP3    H163599   3.894   2.913   4.155  0.6725 -0.3197 -0.4219
14036TIP3    H263600   3.858   2.846   4.286  2.1023  0.1539  0.2394
14037TIP3   OH263601   1.367   3.483  15.390  0.2545 -0.0318 -0.1376
14037TIP3    H163602   1.301   3.469  15.458 -0.3196 -0.1365 -0.7129
14037TIP3    H263603   1.420   3.403  15.392 -0.6229 -0.6376 -0.7613
14038TIP3   OH263604   0.267   5.999   4.487  0.3054  0.2467  0.1979
14038TIP3    H163605   0.291   5.970   4.575  0.8978  2.3950  0.7897
14038TIP3    H263606   0.177   6.031   4.496  0.2699  0.2189 -0.0415
14039TIP3   OH263607   6.299   4.103  16.801  0.2724  0.6697  0.3314
14039TIP3    H163608   6.307   4.178  16.860 -0.8267  0.0633  1.2917
14039TIP3    H263609   6.260   4.139  16.722  0.0013  1.1632  0.6807
14040TIP3   OH263610   4.855   2.096  14.170  0.2721 -0.2423  0.0317
14040TIP3    H163611   4.901   2.174  14.200  0.0225 -0.7732  1.9141
14040TIP3    H263612   4.793   2.129  14.105 -0.2612  1.2362  1.2286
14041TIP3   OH263613   2.808   0.100   3.910  0.2303 -0.1604  0.0544
14041TIP3    H163614   2.716   0.118   3.887  0.5706 -0.3880 -1.5877
14041TIP3    H263615   2.834   0.174   3.965 -0.3478  0.9451 -1.1277
14042TIP3   OH263616   1.190   6.543   2.799  0.2440  0.0803 -0.0657
14042TIP3    H163617   1.281   6.566   2.819  1.2949 -1.9114 -2.1051
14042TIP3    H263618   1.162   6.608   2.735  1.3606 -1.0149 -1.7598
14043TIP3   OH263619   4.319   0.152  11.508 -0.3367 -0.2510 -0.0848
14043TIP3    H163620   4.287   0.072  11.549  0.0941 -0.3933 -0.0197
14043TIP3    H263621   4.360   0.122  11.427 -0.0077 -0.1241  0.0308
14044TIP3   OH263622   0.134   1.958   1.208  0.5408 -0.1394  0.6481
14044TIP3    H163623   0.067   1.939   1.274 -0.9784  0.1124 -0.7483
14044TIP3    H263624   0.154   1.873   1.169 -2.8290  0.2288 -2.4063
14045TIP3   OH263625   5.638   0.934   5.180 -0.4604  0.5672  0.5171
14045TIP3    H163626   5.677   0.899   5.261 -1.2780  1.0812  1.1505
14045TIP3    H263627   5.712   0.975   5.135 -0.1494  1.1689  1.5111
14046TIP3   OH263628   4.400   3.818   0.061 -0.5320 -0.1161  0.8106
14046TIP3    H163629   4.368   3.895   0.014  1.2426  0.8612  1.1640
14046TIP3    H263630   4.328   3.795   0.121 -1.1470  1.1269  0.5737
14047TIP3   OH263631   5.159   0.377  17.193  0.7431 -0.2183 -0.6452
14047TIP3    H163632   5.158   0.411  17.282 -1.9640  0.4972 -0.8538
14047TIP3    H263633   5.171   0.454  17.138 -2.7428  0.2590 -1.0042
14048TIP3   OH263634   0.645   1.939  12.887 -0.1106 -0.0545 -0.1725
14048TIP3    H163635   0.613   1.915  12.801  3.2326 -2.8936 -0.8675
14048TIP3    H263636   0.578   1.909  12.948 -0.1993 -3.0122 -1.5985
14049TIP3   OH263637   4.221   1.960  15.197  0.1617  0.1055 -1.2126
14049TIP3    H163638   4.309   1.984  15.223  0.1524 -1.7336  0.8112
14049TIP3    H263639   4.167   2.036  15.221  0.8778  0.3225 -0.2350
14050TIP3   OH263640   1.360   5.281   4.917 -0.8182 -0.3677  0.0747
14050TIP3    H163641   1.429   5.315   4.860  0.6953 -3.4503 -0.1571
14050TIP3    H263642   1.339   5.196   4.880 -2.9652 -0.5825  1.6533
14051TIP3   OH263643   1.684   5.935   1.242  0.6154  0.2821 -0.0995
14051TIP3    H163644   1.684   5.843   1.269  1.7399  0.2173 -0.2678
14051TIP3    H263645   1.773   5.965   1.259  1.0201  0.6110 -2.3871
14052TIP3   OH263646   5.720   3.227  17.096 -0.1334  0.1084 -0.8497
14052TIP3    H163647   5.678   3.295  17.148  0.6736  0.9107 -1.2168
14052TIP3    H263648   5.680   3.235  17.009  0.2385  0.3839 -0.9995
14053TIP3   OH263649   4.327   6.502  16.111  0.1312 -0.4317  0.3615
14053TIP3    H163650   4.233   6.498  16.131  0.0174 -2.4348 -0.4169
14053TIP3    H263651   4.340   6.590  16.076 -1.5652 -0.3256 -0.0733
14054TIP3   OH263652   6.323   2.455   0.356 -0.3189  0.8419 -0.7277
14054TIP3    H163653   6.237   2.415   0.370 -0.6890  1.7424 -0.3520
14054TIP3    H263654   6.304   2.545   0.330  0.5103  1.5469  0.9371
14055TIP3   OH263655   3.796   1.313  14.060  0.6551  0.8716 -0.0170
14055TIP3    H163656   3.740   1.368  14.004 -1.5147 -0.3151  0.8446
14055TIP3    H263657   3.802   1.230  14.013  0.4575  0.5193  0.5679
14056TIP3   OH263658   1.302   6.212  16.961 -0.1479  0.4918  0.0062
14056TIP3    H163659   1.370   6.166  17.010  0.3358  0.7416 -0.4278
14056TIP3    H263660   1.237   6.144  16.941 -0.2337  0.3373  0.7735
14057TIP3   OH263661   5.816   2.794  15.909 -0.5064 -0.3591  0.2450
14057TIP3    H163662   5.736   2.769  15.864 -0.6585  0.0205  0.3066
14057TIP3    H263663   5.884   2.739  15.870 -0.6367 -0.0404 -0.4431
14058TIP3   OH263664   3.349   0.277   5.883 -0.2274  0.6475  0.0124
14058TIP3    H163665   3.368   0.250   5.973  0.6855  0.5868 -0.1845
14058TIP3    H263666   3.351   0.373   5.886 -1.0530  0.6573  0.2290
14059TIP3   OH263667   2.317   3.988  16.695 -0.2570 -0.6064 -0.0824
14059TIP3    H163668   2.321   3.914  16.635 -2.4249 -1.2285  0.4581
14059TIP3    H263669   2.365   3.959  16.773  1.5375 -0.2335 -0.9844
14060TIP3   OH263670   4.507   5.214  14.524  0.5200  0.0094 -0.8236
14060TIP3    H163671   4.602   5.219  14.520  0.5112  0.4928 -0.4930
14060TIP3    H263672   4.483   5.153  14.454  0.9317  1.4401 -2.2731
14061TIP3   OH263673   5.076   1.453  15.264 -0.1939 -0.2905  0.1192
14061TIP3    H163674   5.114   1.374  15.226  0.6437 -1.2149  2.7208
14061TIP3    H263675   5.005   1.421  15.320 -0.6458  0.9284  0.2696
14062TIP3   OH263676   3.803   0.380  13.887 -0.7731 -0.5153  0.2172
14062TIP3    H163677   3.733   0.419  13.835  0.5606  0.6227 -0.8117
14062TIP3    H263678   3.884   0.418  13.851  0.4755 -2.7008  0.5361
14063TIP3   OH263679   6.445   2.804  16.675  0.7819 -0.1148  0.2727
14063TIP3    H163680   6.371   2.799  16.735 -0.9285  3.7084 -1.1842
14063TIP3    H263681   6.428   2.736  16.610  0.2469 -1.3084  1.6113
14064TIP3   OH263682   4.312   0.235  15.748  0.5532  0.0471 -0.2088
14064TIP3    H163683   4.236   0.210  15.801 -0.1969  0.5646 -1.0202
14064TIP3    H263684   4.275   0.280  15.673  1.5792 -0.9770 -1.3747
14065TIP3   OH263685   4.711   0.134   5.548 -0.1569  0.5992  0.6050
14065TIP3    H163686   4.641   0.085   5.591  0.7403  0.2682  1.7350
14065TIP3    H263687   4.687   0.226   5.559 -1.6777  0.4954 -1.2306
14066TIP3   OH263688   1.884   6.059  15.511  0.2262  0.1325  0.4124
14066TIP3    H163689   1.873   6.149  15.542  1.6137  0.6425 -0.4719
14066TIP3    H263690   1.897   6.067  15.417 -2.9014 -1.3042 -0.2810
14067TIP3   OH263691   2.357   2.530  11.321  0.3915  0.5771 -0.0754
14067TIP3    H163692   2.434   2.489  11.282  0.9619  0.6329  0.9407
14067TIP3    H263693   2.303   2.456  11.351 -0.7596  0.4823 -2.1815
14068TIP3   OH263694   0.665   6.434  16.570 -0.2997 -0.1481 -0.1292
14068TIP3    H163695   0.747   6.475  16.544  1.8141 -1.2589  3.9001
14068TIP3    H263696   0.623   6.499  16.627  0.5672 -1.4757  2.1554
14069TIP3   OH263697   2.978   4.681  14.722 -0.3588 -0.2550 -0.1020
14069TIP3    H163698   2.918   4.667  14.649 -0.5592  0.6654 -0.1197
14069TIP3    H263699   3.021   4.596  14.734 -1.5514 -0.8934 -0.1842
14070TIP3   OH263700   4.741   2.317   3.595 -0.2062 -0.6010 -0.2688
14070TIP3    H163701   4.663   2.306   3.540  0.0314 -1.0568 -0.5264
14070TIP3    H263702   4.787   2.392   3.556  0.0196 -0.9947 -0.7712
14071TIP3   OH263703   3.555   4.526   4.212  0.1029  0.2099 -0.5491
14071TIP3    H163704   3.623   4.593   4.227  0.6592 -0.2203 -1.0912
14071TIP3    H263705   3.599   4.459   4.159 -0.2071 -0.9737  0.6256
14072TIP3   OH263706   0.825   3.261   3.082 -0.1199  0.7267 -0.2432
14072TIP3    H163707   0.883   3.233   3.153 -2.5292 -1.1008  1.1506
14072TIP3    H263708   0.787   3.343   3.113  1.4852  1.8446 -1.0910
14073TIP3   OH263709   2.775   2.569   3.450 -0.2188  0.0447  0.4456
14073TIP3    H163710   2.740   2.658   3.450 -1.8592 -0.5512 -1.1220
14073TIP3    H263711   2.848   2.572   3.388  0.3519  0.4863  1.1169
14074TIP3   OH263712   1.637   6.082   4.443  0.7497 -0.0334  0.1638
14074TIP3    H163713   1.567   6.089   4.508  0.9013  0.7301  0.2577
14074TIP3    H263714   1.675   6.170   4.439  1.9274 -0.5155  0.3657
14075TIP3   OH263715   4.426   1.937   4.031  0.2933 -0.2436 -0.3974
14075TIP3    H163716   4.503   1.910   4.081 -0.4341  0.8087  1.4288
14075TIP3    H263717   4.457   2.006   3.972  0.9004 -0.4095 -0.2719
14076TIP3   OH263718   6.484   4.260   0.510  0.1290 -0.3421  0.2383
14076TIP3    H163719   6.522   4.189   0.562 -0.4482 -0.6620  0.2303
14076TIP3    H263720   6.394   4.267   0.541 -0.3352 -0.7861 -0.9722
14077TIP3   OH263721   1.912   4.413  17.350 -0.2653  0.3802 -0.6880
14077TIP3    H163722   2.005   4.393  17.349 -0.1558  0.8913 -1.4950
14077TIP3    H263723   1.877   4.362  17.423  0.8831  1.3256  0.5611
14078TIP3   OH263724   6.057   3.048  13.865 -0.3279 -0.4276 -0.4266
14078TIP3    H163725   6.009   3.126  13.839 -0.6750  0.0718  1.5559
14078TIP3    H263726   6.121   3.034  13.795 -1.7100  0.3251 -1.8946
14079TIP3   OH263727   1.031   2.312  16.539  0.5023  0.7224  0.5982
14079TIP3    H163728   0.980   2.281  16.614  1.1715 -0.9351  0.4075
14079TIP3    H263729   1.121   2.287  16.560  1.0078  2.0710  0.1475
14080TIP3   OH263730   5.083   0.797   3.858 -0.1926  0.0370  0.3496
14080TIP3    H163731   5.087   0.842   3.774 -0.4983  0.4230  0.5402
14080TIP3    H263732   5.141   0.847   3.915 -1.6047  1.0337  0.9499
14081TIP3   OH263733   1.937   4.405   0.479 -0.8608  0.1199 -0.3923
14081TIP3    H163734   1.880   4.463   0.428 -1.3718 -1.5283 -1.8071
14081TIP3    H263735   1.992   4.363   0.413 -0.3444 -0.8077  0.6089
14082TIP3   OH263736   5.159   2.559   1.109 -0.3994  0.4635 -0.0506
14082TIP3    H163737   5.102   2.612   1.053  0.6257  0.3070 -1.2783
14082TIP3    H263738   5.244   2.561   1.066  0.0761 -0.8159  0.7646
14083TIP3   OH263739   4.222   1.123   6.326  0.3316  0.4906  0.0731
14083TIP3    H163740   4.137   1.093   6.295 -0.0914  1.7320 -0.0052
14083TIP3    H263741   4.233   1.081   6.411 -1.5229  2.2638  1.2590
14084TIP3   OH263742   5.110   0.005   6.240  0.4300  0.3515  0.4404
14084TIP3    H163743   5.185  -0.028   6.289  0.5563  0.8239  0.5771
14084TIP3    H263744   5.092  -0.062   6.174  0.1641 -0.3557  1.2303
14085TIP3   OH263745   2.870   6.524   0.269 -0.4018 -0.2355 -0.3073
14085TIP3    H163746   2.883   6.433   0.243 -0.8343  0.1846 -2.1265
14085TIP3    H263747   2.946   6.570   0.234 -1.1987  0.4201 -1.2434
14086TIP3   OH263748   6.402   5.989  15.979  0.0389  0.4304 -0.0583
14086TIP3    H163749   6.336   5.987  15.909 -0.8688 -2.3912  0.7754
14086TIP3    H263750   6.476   5.941  15.942 -0.1105 -0.2945  0.5535
14087TIP3   OH263751   2.288   2.690   3.468  0.1187  0.0036  0.0822
14087TIP3    H163752   2.365   2.656   3.513 -0.3370 -1.5913 -0.2782
14087TIP3    H263753   2.216   2.637   3.501 -0.4360 -0.2339 -1.4228
14088TIP3   OH263754   2.238   3.380   2.082 -0.4122  0.0898 -0.0362
14088TIP3    H163755   2.154   3.352   2.118  0.3847 -2.3874  0.0683
14088TIP3    H263756   2.303   3.330   2.131  1.2076  2.2432  0.1728
14089TIP3   OH263757   6.405   3.716   2.033  0.1766  0.3884 -0.5575
14089TIP3    H163758   6.357   3.634   2.044  1.1229  0.1142  2.3627
14089TIP3    H263759   6.496   3.690   2.018  0.6046  0.8462  1.0608
14090TIP3   OH263760   4.160   0.877   2.501  0.1552  0.1711 -0.5822
14090TIP3    H163761   4.135   0.959   2.457  0.2805 -0.6584 -2.3038
14090TIP3    H263762   4.247   0.857   2.466 -0.3437 -1.2649 -1.1018
14091TIP3   OH263763   0.495   2.763  12.509  0.1171 -0.2909 -0.3136
14091TIP3    H163764   0.399   2.764  12.507  0.1155  1.0040 -1.4773
14091TIP3    H263765   0.520   2.809  12.429  1.7417 -2.2784 -1.0317
14092TIP3   OH263766   2.589   2.049  14.894 -0.1746  0.0925 -0.7835
14092TIP3    H163767   2.503   2.017  14.868 -0.2947 -0.2253  0.0028
14092TIP3    H263768   2.590   2.140  14.863 -1.0811  0.3356 -0.1540
14093TIP3   OH263769   3.041   2.236   0.271  0.3538  0.1784 -0.5014
14093TIP3    H163770   2.953   2.212   0.243  0.1985  0.6376 -0.4270
14093TIP3    H263771   3.030   2.320   0.315  0.6788 -0.2438  0.4186
14094TIP3   OH263772   5.154   6.497  12.273  0.4869  0.3880 -0.1158
14094TIP3    H163773   5.196   6.537  12.196  0.2414  0.7425 -0.0684
14094TIP3    H263774   5.223   6.443  12.312  0.0587 -1.4846 -1.7455
14095TIP3   OH263775   0.508   1.646   4.085  0.1803  0.3613  0.1273
14095TIP3    H163776   0.478   1.724   4.131  1.0344  0.5347  0.4110
14095TIP3    H263777   0.435   1.585   4.092 -0.9606  1.5363 -1.1334
14096TIP3   OH263778   6.266   3.756  15.332 -0.1626  0.0075 -0.0809
14096TIP3    H163779   6.176   3.729  15.316  0.1015 -0.8352 -0.1701
14096TIP3    H263780   6.264   3.797  15.418 -0.7547  0.6046 -0.3734
14097TIP3   OH263781   3.115   0.003   5.458 -0.1949  0.1281  0.8314
14097TIP3    H163782   3.099   0.040   5.545  0.4967 -0.6386  1.3045
14097TIP3    H263783   3.057   0.052   5.400  0.2941  1.5773  1.5029
14098TIP3   OH263784   4.013   3.815   1.469  0.3181 -0.1835  0.5651
14098TIP3    H163785   4.089   3.872   1.462 -1.3558  2.2061  0.7523
14098TIP3    H263786   4.025   3.750   1.399  1.8752  0.9165 -0.2399
14099TIP3   OH263787   3.336   4.516  13.391  0.3490  0.3649 -0.2900
14099TIP3    H163788   3.367   4.429  13.368  0.1365  0.1094  0.3618
14099TIP3    H263789   3.405   4.551  13.448  0.1189  0.3512  0.0029
14100TIP3   OH263790   0.538   4.969   0.081  0.1836 -0.3995  0.2760
14100TIP3    H163791   0.629   4.995   0.095  0.1019  0.0282  0.0332
14100TIP3    H263792   0.515   4.921   0.161  0.9013 -1.3116 -0.0481
14101TIP3   OH263793   2.506   0.762  12.073  0.1422  0.1950 -0.3557
14101TIP3    H163794   2.573   0.706  12.033 -0.1828  1.0024 -2.1124
14101TIP3    H263795   2.441   0.701  12.108 -0.4635 -0.5954 -2.6812
14102TIP3   OH263796   0.801   1.851   2.042 -0.3523 -0.6235  0.4971
14102TIP3    H163797   0.865   1.826   1.975  0.8931  0.4717  1.2469
14102TIP3    H263798   0.842   1.827   2.125 -0.0681  1.7165  1.1113
14103TIP3   OH263799   0.094   3.000   0.853  0.3776 -0.2442  0.1245
14103TIP3    H163800   0.154   2.960   0.791 -0.6835 -2.3298  0.3592
14103TIP3    H263801   0.027   2.934   0.868 -0.9952  1.3052  1.2666
14104TIP3   OH263802   4.147   5.570  16.608 -0.2127  0.2665 -0.1283
14104TIP3    H163803   4.129   5.662  16.589 -0.5225 -0.0546 -1.4755
14104TIP3    H263804   4.169   5.569  16.702 -0.0829  1.7180 -0.1173
14105TIP3   OH263805   5.138   4.572  14.442  0.3126 -0.1638  0.6452
14105TIP3    H163806   5.190   4.497  14.470  2.0191  0.4886 -0.5876
14105TIP3    H263807   5.183   4.604  14.364 -1.9513  0.4714 -0.4790
14106TIP3   OH263808   4.002   5.701   0.595  0.1859  0.2829  0.0148
14106TIP3    H163809   4.066   5.673   0.529  1.3766 -0.3431  1.3594
14106TIP3    H263810   3.929   5.736   0.545  0.8017 -0.6810 -1.6451
14107TIP3   OH263811   3.871   3.655  14.140  0.0267 -0.4749  0.1178
14107TIP3    H163812   3.776   3.655  14.151  0.1555  0.4566  1.5090
14107TIP3    H263813   3.897   3.745  14.160  1.1812 -0.6570 -0.4929
14108TIP3   OH263814   5.008   1.471   6.865  0.1127  0.2690  0.4852
14108TIP3    H163815   5.047   1.554   6.893  0.8035  0.7471 -1.7313
14108TIP3    H263816   5.066   1.404   6.903  2.0452  0.9288 -1.1307
14109TIP3   OH263817   2.207   5.856  17.249 -0.0277 -0.4373  0.4030
14109TIP3    H163818   2.185   5.803  17.326  3.9487 -0.3281  1.8361
14109TIP3    H263819   2.207   5.795  17.176 -1.1964 -1.1254  0.9604
14110TIP3   OH263820   6.545   5.714  15.131 -0.2404 -0.0496 -0.1414
14110TIP3    H163821   6.470   5.655  15.133 -1.0291  0.9064  2.3477
14110TIP3    H263822   6.507   5.802  15.130  0.9088  0.4836 -1.4426
14111TIP3   OH263823   1.324   3.412   5.105 -0.4034 -0.5487  0.2588
14111TIP3    H163824   1.291   3.329   5.069  2.2201 -0.9280 -1.5015
14111TIP3    H263825   1.395   3.385   5.163  0.5345  0.4494 -0.4014
14112TIP3   OH263826   1.293   3.771   4.087  0.5344  0.0489 -0.2202
14112TIP3    H163827   1.297   3.863   4.114 -0.3218  0.3529 -1.0853
14112TIP3    H263828   1.349   3.765   4.010 -1.9302  0.6249 -2.1840
14113TIP3   OH263829   3.495   0.441   5.236  0.1416  0.6388 -0.5467
14113TIP3    H163830   3.504   0.491   5.317  1.3366 -1.1448  0.4973
14113TIP3    H263831   3.418   0.386   5.249  1.5192 -1.2194  0.3808
14114TIP3   OH263832   3.176   3.253  11.219 -0.3653  0.4902 -0.5929
14114TIP3    H163833   3.211   3.340  11.240  0.6341  0.1675 -0.8637
14114TIP3    H263834   3.199   3.239  11.128 -0.6226 -0.0144 -0.5853
14115TIP3   OH263835   0.335   3.114   4.655 -0.3057 -0.2298  0.3441
14115TIP3    H163836   0.355   3.179   4.588  0.7953  0.4385  1.2736
14115TIP3    H263837   0.338   3.030   4.609 -2.7109  0.3596 -1.0954
14116TIP3   OH263838   0.721   5.024   1.583  0.7572  0.7461 -0.1927
14116TIP3    H163839   0.727   5.090   1.515  1.3866  0.5932 -0.2912
14116TIP3    H263840   0.718   5.074   1.665  2.0744  0.8913 -0.2148
14117TIP3   OH263841   1.734   3.195  10.726 -0.5274  0.4005  0.0465
14117TIP3    H163842   1.742   3.188  10.821 -0.5130  0.3136  0.0398
14117TIP3    H263843   1.823   3.209  10.696 -0.7285  2.0740  0.1725
14118TIP3   OH263844   2.102   3.616  12.202 -0.2418  0.1060  0.4653
14118TIP3    H163845   2.019   3.660  12.222 -1.2445 -0.7324 -1.5916
14118TIP3    H263846   2.077   3.526  12.184  1.0149 -0.0184 -0.7937
14119TIP3   OH263847   3.099   5.989  11.081 -0.5489  0.0739  0.3263
14119TIP3    H163848   3.106   6.021  10.991 -1.4751 -2.0838 -0.5520
14119TIP3    H263849   3.048   6.057  11.126 -0.6164  0.8830 -0.9081
14120TIP3   OH263850   2.987   5.110  16.629 -0.0443  0.1949  0.2188
14120TIP3    H163851   2.964   5.142  16.716  1.0074  1.2460  0.1299
14120TIP3    H263852   2.965   5.182  16.570  0.6749  0.0739 -0.2016
14121TIP3   OH263853   3.007   6.545   4.200  0.1581 -0.4611  0.1835
14121TIP3    H163854   2.934   6.487   4.178  1.4085 -1.5079 -1.4753
14121TIP3    H263855   2.997   6.620   4.142  1.2445 -1.3636 -1.2356
14122TIP3   OH263856   4.291   6.672  12.613  0.2753  0.5445  0.4115
14122TIP3    H163857   4.257   6.675  12.524 -1.8528 -1.9709  0.9971
14122TIP3    H263858   4.369   6.727  12.611 -1.4103  3.1948 -2.1725
14123TIP3   OH263859   6.647   6.411   1.561 -0.4245  0.1713  1.0083
14123TIP3    H163860   6.638   6.333   1.506 -0.9058  0.4337  0.7148
14123TIP3    H263861   6.572   6.466   1.538  0.8729  1.5564 -0.1396
14124TIP3   OH263862   2.047   5.557   0.516 -0.0481 -0.6339  0.3718
14124TIP3    H163863   1.994   5.576   0.594  0.4293  1.5218  0.2207
14124TIP3    H263864   2.070   5.464   0.525 -0.7702 -0.6670  2.3166
14125TIP3   OH263865   2.528   2.818   3.146  0.0030 -0.1947 -0.0362
14125TIP3    H163866   2.612   2.797   3.188 -0.1467  0.1670  0.4491
14125TIP3    H263867   2.511   2.909   3.170  0.5363  0.4586 -1.9527
14126TIP3   OH263868   5.266   1.638  14.461  0.1905  0.2079  0.1624
14126TIP3    H163869   5.186   1.662  14.414 -1.0907  0.3549  2.2795
14126TIP3    H263870   5.327   1.709  14.441 -0.5069  0.5695 -0.7660
14127TIP3   OH263871   5.258   0.083   1.221 -0.2782  0.0929  0.3321
14127TIP3    H163872   5.190   0.144   1.249 -2.1189 -2.2045  1.1916
14127TIP3    H263873   5.284   0.038   1.302  0.8682 -0.4170 -0.3048
14128TIP3   OH263874   5.712   0.581  15.196  0.0950  0.3807  0.4568
14128TIP3    H163875   5.770   0.598  15.123  0.1227 -1.3095  0.0472
14128TIP3    H263876   5.766   0.536  15.261 -0.4681 -0.1863  0.5493
14129TIP3   OH263877   4.139   2.543   2.496  0.9289 -0.0766  0.1261
14129TIP3    H163878   4.134   2.456   2.536 -0.4904 -0.0859 -0.0143
14129TIP3    H263879   4.217   2.539   2.441  2.3754 -0.3933  2.0777
14130TIP3   OH263880   4.821   5.709   0.516  0.5497 -0.8276 -0.5576
14130TIP3    H163881   4.841   5.756   0.435  0.3039 -0.1276 -0.2161
14130TIP3    H263882   4.747   5.653   0.493  0.7865 -0.9932 -0.9415
14131TIP3   OH263883   4.867   0.948   3.451 -0.1417  0.0205  0.5967
14131TIP3    H163884   4.828   0.921   3.368  1.0799 -1.6508  0.4975
14131TIP3    H263885   4.817   1.025   3.477 -0.8441  0.3435 -1.4648
14132TIP3   OH263886   6.068   2.764   0.885  0.2467 -0.0147 -0.3265
14132TIP3    H163887   6.001   2.696   0.882  1.3008 -1.0770 -2.1268
14132TIP3    H263888   6.066   2.797   0.974 -2.6389 -0.0004 -0.3212
14133TIP3   OH263889   2.278   2.355  11.572 -0.2705  0.4377 -0.0475
14133TIP3    H163890   2.206   2.298  11.599 -0.2661  0.7059  0.5499
14133TIP3    H263891   2.282   2.422  11.641  1.3706 -0.2916  0.6115
14134TIP3   OH263892   0.531   5.860  12.504 -0.2970  0.4937 -0.1260
14134TIP3    H163893   0.454   5.915  12.490  0.8783  2.5431  0.9066
14134TIP3    H263894   0.605   5.920  12.496  1.1967 -1.3237 -0.6715
14135TIP3   OH263895   1.898   4.342  15.133 -0.7883  0.0869  0.3560
14135TIP3    H163896   1.908   4.359  15.226 -2.0878 -1.0909  0.7500
14135TIP3    H263897   1.845   4.262  15.128  1.2706 -1.3073 -1.3701
14136TIP3   OH263898   0.932   5.416  12.187 -0.2187 -0.0395  0.2921
14136TIP3    H163899   0.845   5.377  12.178 -0.9808  1.5075  0.6765
14136TIP3    H263900   0.940   5.475  12.113  0.4594 -0.0526  0.3467
14137TIP3   OH263901   1.009   4.194  16.142  0.2139 -0.5324 -0.0412
14137TIP3    H163902   1.037   4.176  16.232  0.3749 -0.3026 -0.0433
14137TIP3    H263903   1.091   4.195  16.092  0.0712 -1.2221 -0.2890
14138TIP3   OH263904   3.093   6.705   1.291 -0.3055  0.4064 -0.2272
14138TIP3    H163905   3.040   6.646   1.344 -0.8191  0.7144 -0.3843
14138TIP3    H263906   3.183   6.686   1.315 -0.5417  0.7886  1.0099
14139TIP3   OH263907   1.188   3.303  17.440  0.0223  0.7462 -0.0794
14139TIP3    H163908   1.268   3.254  17.425  0.9448  2.4028 -0.8327
14139TIP3    H263909   1.217   3.388  17.471 -1.5537  0.6544  1.8364
14140TIP3   OH263910   1.922   3.132   2.387  0.4417 -0.8722  0.2299
14140TIP3    H163911   1.920   3.050   2.436  0.5003 -0.0795  1.6173
14140TIP3    H263912   1.830   3.160   2.384  0.4499 -0.8755 -0.0306
14141TIP3   OH263913   1.684   0.506  12.678 -0.1234  0.0156 -0.1408
14141TIP3    H163914   1.705   0.441  12.611  0.3329  0.2822 -0.2624
14141TIP3    H263915   1.730   0.475  12.756 -0.3730 -0.1090 -0.0401
14142TIP3   OH263916   5.820   2.616  14.925  0.8587  0.6994  0.0143
14142TIP3    H163917   5.886   2.684  14.934  1.6563 -0.1783  1.1308
14142TIP3    H263918   5.750   2.642  14.985 -0.5168  2.3512 -2.1759
14143TIP3   OH263919   6.507   6.556   5.842 -0.0112 -0.1410 -0.5664
14143TIP3    H163920   6.543   6.636   5.804 -1.8356  1.3102  0.6298
14143TIP3    H263921   6.421   6.546   5.801  0.1553 -1.4686 -0.6457
14144TIP3   OH263922   3.941   4.691   4.103 -0.5403 -0.1038 -0.0783
14144TIP3    H163923   3.906   4.611   4.065 -0.9494  0.6319 -1.3141
14144TIP3    H263924   3.930   4.757   4.035  2.3493  0.4078 -0.1519
14145TIP3   OH263925   3.925   5.946  11.936 -0.2872 -0.0660 -0.7561
14145TIP3    H163926   3.888   6.016  11.990  0.3691  0.4606 -0.9763
14145TIP3    H263927   3.848   5.907  11.892 -0.8171 -0.4812  0.5006
14146TIP3   OH263928   3.281   0.287  11.529 -0.0670 -0.1761  0.4385
14146TIP3    H163929   3.221   0.215  11.549 -0.1148 -0.7919 -1.7090
14146TIP3    H263930   3.353   0.275  11.590 -0.3710 -1.6897  0.5333
14147TIP3   OH263931   1.105   3.989   5.472  0.5474 -1.0636 -0.4853
14147TIP3    H163932   1.103   3.893   5.474  0.5157 -1.0541  0.2684
14147TIP3    H263933   1.087   4.015   5.563 -1.9674 -0.2995 -1.1323
14148TIP3   OH263934   2.065   4.257  13.386 -0.0466  0.4113 -0.2737
14148TIP3    H163935   2.148   4.295  13.359  1.1100 -2.4361 -1.1324
14148TIP3    H263936   2.066   4.264  13.482  1.5008 -0.0728 -0.2166
14149TIP3   OH263937   3.940   2.194   5.934 -0.2735 -0.1420  0.6854
14149TIP3    H163938   4.005   2.129   5.961 -1.3995 -0.6383  2.3282
14149TIP3    H263939   3.916   2.167   5.845  0.6982 -0.8056  0.5980
14150TIP3   OH263940   6.601   3.240  12.669  0.1495  0.1665  0.4303
14150TIP3    H163941   6.572   3.281  12.588  0.5534  0.6138  0.5062
14150TIP3    H263942   6.634   3.312  12.722 -0.0102 -0.1357  0.9523
14151TIP3   OH263943   0.722   5.474   2.038  0.2103  0.6691  0.2132
14151TIP3    H163944   0.799   5.524   2.010  0.4407  0.7023  0.8929
14151TIP3    H263945   0.758   5.390   2.067 -0.0262  0.6302  0.3967
14152TIP3   OH263946   0.496   3.643   4.589 -0.1783 -0.6135 -0.0131
14152TIP3    H163947   0.589   3.630   4.567 -0.1701 -0.3133 -0.1672
14152TIP3    H263948   0.467   3.711   4.528 -0.4830 -0.6582  0.0821
14153TIP3   OH263949   5.510   3.291   1.553 -0.3845  0.1441  0.0415
14153TIP3    H163950   5.522   3.333   1.638 -1.7488 -0.3126  0.4979
14153TIP3    H263951   5.553   3.349   1.491  2.0492 -0.2965  1.1827
14154TIP3   OH263952   1.129   0.836   4.593 -0.2376 -0.2699 -0.1427
14154TIP3    H163953   1.140   0.819   4.687  2.5972  1.5438 -0.0374
14154TIP3    H263954   1.102   0.751   4.557 -1.0741 -1.1032  2.2291
14155TIP3   OH263955   5.188   6.394   5.818  0.0780  0.0987  0.0814
14155TIP3    H163956   5.131   6.428   5.750 -0.8069 -0.4124  0.5542
14155TIP3    H263957   5.150   6.309   5.842  0.9854 -0.2204  0.4660
14156TIP3   OH263958   0.651   4.660   3.294 -0.4170 -0.0392  0.0409
14156TIP3    H163959   0.692   4.686   3.376  0.9720  0.1427 -0.6654
14156TIP3    H263960   0.581   4.600   3.319  0.2647 -0.3342  1.3167
14157TIP3   OH263961   0.356   5.864  13.215 -0.4118 -0.7825  0.1976
14157TIP3    H163962   0.324   5.828  13.132 -2.1222  1.9731 -0.4650
14157TIP3    H263963   0.381   5.788  13.266 -0.0958 -2.6447 -2.5095
14158TIP3   OH263964   5.341   5.900  12.053 -0.0890 -0.5901 -0.2416
14158TIP3    H163965   5.416   5.959  12.058 -0.1717 -0.5488  0.8038
14158TIP3    H263966   5.331   5.881  11.960  0.7842 -0.0422 -0.4578
14159TIP3   OH263967   3.172   1.380  13.269  0.4479 -0.8468  0.4004
14159TIP3    H163968   3.173   1.285  13.255 -0.0663 -0.7281 -0.4570
14159TIP3    H263969   3.214   1.391  13.355 -1.7847 -2.0476  1.7537
14160TIP3   OH263970   2.926   0.152   5.056  0.2022 -0.0601  0.1920
14160TIP3    H163971   2.851   0.109   5.097  1.1970 -0.9831  1.1131
14160TIP3    H263972   2.896   0.173   4.967 -0.9050 -1.0658  0.3026
14161TIP3   OH263973   3.485   0.579   0.178 -0.0096  0.2722 -0.1122
14161TIP3    H163974   3.474   0.501   0.123 -1.0089  1.1891 -1.2869
14161TIP3    H263975   3.403   0.586   0.226  0.5639 -0.0828  0.9393
14162TIP3   OH263976   0.269   1.197   4.362  0.1409 -0.2895  0.4643
14162TIP3    H163977   0.315   1.127   4.408 -0.7547  0.4192  2.6142
14162TIP3    H263978   0.181   1.196   4.400 -0.3740  0.9866 -0.6001
14163TIP3   OH263979   3.359   4.130  12.127 -0.7403 -0.1722  0.0386
14163TIP3    H163980   3.421   4.058  12.139 -1.6224 -0.8248  0.8053
14163TIP3    H263981   3.289   4.113  12.191 -0.2005  2.2054  1.4173
14164TIP3   OH263982   5.295   5.300  14.024 -0.6573  0.0290  0.0628
14164TIP3    H163983   5.277   5.390  14.051  0.0911 -0.4111  2.1809
14164TIP3    H263984   5.234   5.246  14.075  2.1294 -0.9780  2.5727
14165TIP3   OH263985   0.424   2.996   2.756 -0.2726 -0.0496  0.0946
14165TIP3    H163986   0.377   3.017   2.676  1.0794  1.1045 -0.4232
14165TIP3    H263987   0.503   3.050   2.753 -0.2246  0.0922  2.2377
14166TIP3   OH263988   0.718   2.682   2.488 -0.6509 -0.0511  0.0211
14166TIP3    H163989   0.698   2.763   2.535  0.3821  0.7212 -0.8336
14166TIP3    H263990   0.697   2.702   2.396  0.0278 -0.5984 -0.2589
14167TIP3   OH263991   6.716   3.705  16.483  0.0304 -0.6267 -0.2226
14167TIP3    H163992   6.682   3.740  16.565  1.3649  1.2147 -0.3865
14167TIP3    H263993   6.721   3.611  16.497  0.0165 -0.3765  1.7361
14168TIP3   OH263994   2.017   1.042  13.486  0.1956  0.2918 -0.2213
14168TIP3    H163995   2.109   1.018  13.488  1.4307  4.3365 -0.0273
14168TIP3    H263996   1.990   1.046  13.578 -1.4563 -4.3191 -0.2375
14169TIP3   OH263997   5.773   2.592   5.956 -0.0495  0.1759 -0.6057
14169TIP3    H163998   5.782   2.540   6.036  0.4677  0.8131 -0.2394
14169TIP3    H263999   5.836   2.663   5.967 -0.9626  1.0561 -0.9569
14170TIP3   OH264000   3.565   1.193  14.819 -0.2237  0.0598  0.3088
14170TIP3    H164001   3.509   1.268  14.796 -0.3994 -0.4310 -0.9051
14170TIP3    H264002   3.611   1.222  14.898  0.1861  1.7086 -0.4790
14171TIP3   OH264003   2.450   0.348   5.246  0.5941  0.0271  0.7435
14171TIP3    H164004   2.525   0.406   5.232 -0.5004  1.3631  0.1872
14171TIP3    H264005   2.457   0.323   5.338  2.0160 -0.3387  0.5710
14172TIP3   OH264006   4.778   3.124  17.087 -0.1056 -0.1374 -0.1105
14172TIP3    H164007   4.714   3.081  17.143 -2.9680  2.0588 -1.4461
14172TIP3    H264008   4.781   3.070  17.007 -1.7009  0.6262 -0.7340
14173TIP3   OH264009   5.555   0.148   1.380  0.0553 -0.4441  0.0416
14173TIP3    H164010   5.474   0.154   1.430 -0.6631 -0.3761 -1.0981
14173TIP3    H264011   5.545   0.070   1.326 -0.5770  1.1938 -2.3355
14174TIP3   OH264012   0.053   4.468   6.084 -0.0137  0.2722  0.3872
14174TIP3    H164013   0.005   4.440   6.006  0.5967 -0.1132  0.1411
14174TIP3    H264014   0.097   4.388   6.115  1.4224  0.8513 -0.0831
14175TIP3   OH264015   6.421   0.356   4.854 -0.0526  0.2241  0.1302
14175TIP3    H164016   6.387   0.323   4.771 -0.5639  0.6959  0.1518
14175TIP3    H264017   6.398   0.449   4.855 -0.3537  0.1490  0.9489
14176TIP3   OH264018   3.098   2.089  12.886 -0.3418  0.1371 -0.4620
14176TIP3    H164019   3.088   2.135  12.803 -0.3201  1.8733  0.4439
14176TIP3    H264020   3.011   2.090  12.926  0.1404  1.5812  0.6288
14177TIP3   OH264021   3.494   1.485  16.514 -0.4721  0.3304  0.1879
14177TIP3    H164022   3.477   1.499  16.607  0.0490  0.6240  0.2487
14177TIP3    H264023   3.575   1.535  16.497  1.0626 -1.9732  0.2291
14178TIP3   OH264024   2.937   6.167  17.056 -0.1240  0.1985  0.8892
14178TIP3    H164025   2.955   6.213  17.138  0.6400 -2.2186  2.1612
14178TIP3    H264026   2.857   6.117  17.073 -0.2400  0.0513 -0.0237
14179TIP3   OH264027   5.422   0.336   2.895 -0.0277  0.4031 -0.0697
14179TIP3    H164028   5.514   0.310   2.903  0.2668  1.1779 -0.8846
14179TIP3    H264029   5.416   0.380   2.810 -1.3012 -0.2449 -0.3379
14180TIP3   OH264030   6.687   3.514  15.162 -0.4613 -0.0256 -0.1233
14180TIP3    H164031   6.673   3.464  15.242 -0.6098 -0.4853 -0.4277
14180TIP3    H264032   6.654   3.602  15.182  0.1882  0.0727  0.5511
14181TIP3   OH264033   3.784   2.425  16.850  0.4958 -0.1121  0.2401
14181TIP3    H164034   3.853   2.477  16.890  0.5564 -1.1125  1.5073
14181TIP3    H264035   3.829   2.350  16.811  0.2379 -0.1843  0.0728
14182TIP3   OH264036   3.698   3.197  12.718 -0.1092 -0.0689  0.1501
14182TIP3    H164037   3.758   3.258  12.760  0.1014 -0.3764  0.3063
14182TIP3    H264038   3.655   3.247  12.649 -1.6611  0.9132  1.7555
14183TIP3   OH264039   1.676   2.857  16.805  0.7345  0.1308 -0.0236
14183TIP3    H164040   1.748   2.874  16.744  0.5673 -0.4974 -0.4040
14183TIP3    H264041   1.610   2.811  16.753  0.8169 -0.8968  0.7502
14184TIP3   OH264042   3.917   3.864  12.132  0.5463  0.3115 -0.5511
14184TIP3    H164043   3.963   3.923  12.071 -0.3670  1.1940 -0.4051
14184TIP3    H264044   3.966   3.872  12.214  1.7713 -0.8684 -1.1222
14185TIP3   OH264045   5.305   5.074   0.054 -0.0829  0.1441 -0.1363
14185TIP3    H164046   5.356   5.023   0.116 -0.5745 -0.6555 -0.3790
14185TIP3    H264047   5.317   5.165   0.082  1.9341  0.0412 -0.5333
14186TIP3   OH264048   4.970   5.569  12.045  0.0188 -0.6228 -0.1622
14186TIP3    H164049   4.998   5.612  12.126  2.6958 -1.5983 -0.4464
14186TIP3    H264050   5.010   5.482  12.049 -0.2987 -0.9234 -2.2497
14187TIP3   OH264051   2.864   0.600   4.972  0.6627  0.1197 -0.2410
14187TIP3    H164052   2.960   0.595   4.973  0.7291  1.2516 -0.2816
14187TIP3    H264053   2.844   0.692   4.988 -0.4483 -0.2462  0.5902
14188TIP3   OH264054   1.958   3.423  16.934 -0.3858 -0.0680  0.4329
14188TIP3    H164055   1.997   3.510  16.936 -0.1760 -0.1620  0.4340
14188TIP3    H264056   2.025   3.367  16.894 -0.2530 -0.3605  1.0545
14189TIP3   OH264057   3.218   4.116  13.473 -0.8564  0.1918  0.4782
14189TIP3    H164058   3.253   4.027  13.468 -0.4279  0.3774  0.0828
14189TIP3    H264059   3.289   4.171  13.441 -0.9037  0.7325  1.2600
14190TIP3   OH264060   1.330   5.922  12.727  0.3094 -0.1539  0.1336
14190TIP3    H164061   1.313   6.003  12.680 -0.6970 -1.1281 -1.2329
14190TIP3    H264062   1.251   5.870  12.716  0.6089 -1.0015  1.7055
14191TIP3   OH264063   1.559   3.896   3.195  0.4419  0.1091 -0.4815
14191TIP3    H164064   1.493   3.943   3.143  0.0989  1.1853  0.8547
14191TIP3    H264065   1.546   3.928   3.284 -0.0671 -2.8261  0.6241
14192TIP3   OH264066   1.917   1.039   2.343 -0.2564 -0.1594 -0.1506
14192TIP3    H164067   1.903   1.020   2.435 -1.6031 -0.1522 -0.3290
14192TIP3    H264068   2.012   1.046   2.333 -0.0149 -1.6308  0.9313
14193TIP3   OH264069   2.115   6.331  10.230 -0.1050  0.1923 -0.0863
14193TIP3    H164070   2.046   6.266  10.218 -0.7514  0.3986  2.0400
14193TIP3    H264071   2.168   6.296  10.302  1.0325  0.8246 -0.5990
14194TIP3   OH264072   2.431   4.979   2.217  0.0637  0.2993  0.9711
14194TIP3    H164073   2.521   4.964   2.188 -1.0092 -1.9706 -1.7307
14194TIP3    H264074   2.408   4.899   2.264 -0.6983  0.6133  1.1445
14195TIP3   OH264075   0.406   0.889   1.203  0.1038  0.3683  0.4938
14195TIP3    H164076   0.364   0.975   1.203  0.8083  0.8533 -2.8306
14195TIP3    H264077   0.341   0.831   1.165  0.6461  0.0983 -0.0509
14196TIP3   OH264078   0.163   1.994   3.206  0.0431 -0.1486  0.6289
14196TIP3    H164079   0.098   2.008   3.137  0.9560 -1.9071 -0.6651
14196TIP3    H264080   0.165   2.076   3.254 -0.5263  1.2201 -1.5494
14197TIP3   OH264081   5.319   5.948   5.531  0.2982  0.4152  0.0976
14197TIP3    H164082   5.235   5.989   5.554 -1.2419 -1.0900 -2.4008
14197TIP3    H264083   5.363   6.014   5.478  0.0942  0.6915  0.2659
14198TIP3   OH264084   0.500   2.890  12.231 -0.1482  0.2283 -0.1849
14198TIP3    H164085   0.498   2.981  12.260 -2.2870 -0.5664  2.5819
14198TIP3    H264086   0.412   2.875  12.195  0.9381 -0.1751 -2.9140
14199TIP3   OH264087   0.199   0.992  12.929 -0.2373 -0.2949  0.6048
14199TIP3    H164088   0.274   0.992  12.870 -0.5043  0.1481  0.2600
14199TIP3    H264089   0.124   0.974  12.873 -0.5948  0.9296  0.6615
14200TIP3   OH264090   5.240   6.658  12.079 -0.4470  0.4904  0.5598
14200TIP3    H164091   5.242   6.621  11.991 -1.6945 -0.1157  0.7676
14200TIP3    H264092   5.324   6.702  12.088 -0.5405  1.0975 -1.1611
14201TIP3   OH264093   4.406   2.329   4.532 -0.9529  0.3384  0.0639
14201TIP3    H164094   4.360   2.348   4.450 -1.8962  0.2370  0.5620
14201TIP3    H264095   4.467   2.401   4.543  0.5542 -0.5750 -1.6943
14202TIP3   OH264096   0.548   1.786  15.723 -0.5338 -0.4878  0.5494
14202TIP3    H164097   0.563   1.694  15.744  3.3988 -0.3776 -0.9714
14202TIP3    H264098   0.560   1.792  15.628 -1.7869  1.4586  0.4530
14203TIP3   OH264099   3.030   2.448   5.310  0.5349 -0.0641 -0.1017
14203TIP3    H164100   2.958   2.416   5.363  0.7383  0.0585  0.2532
14203TIP3    H264101   3.104   2.391   5.332  1.0123  0.8680  0.8452
14204TIP3   OH264102   3.762   0.918   5.050 -0.0358 -0.4024 -0.6604
14204TIP3    H164103   3.832   0.930   5.114  0.0393 -1.3552 -0.5560
14204TIP3    H264104   3.711   0.845   5.083  0.0417 -0.9566 -1.7241
14205TIP3   OH264105   4.257   0.474   5.910  0.0599  0.0833 -0.2257
14205TIP3    H164106   4.275   0.385   5.881  1.2872  0.8132 -1.8327
14205TIP3    H264107   4.344   0.514   5.921 -0.3307  2.3505 -3.7647
14206TIP3   OH264108   6.286   2.751   3.276  0.6197  0.0491 -0.5342
14206TIP3    H164109   6.340   2.818   3.234  1.3338 -0.9495 -1.2421
14206TIP3    H264110   6.346   2.703   3.333  0.0639  0.1468  0.1483
14207TIP3   OH264111   0.375   6.583  14.049  0.2648 -0.3663 -0.0095
14207TIP3    H164112   0.432   6.523  14.098  0.9486 -0.8211 -1.3255
14207TIP3    H264113   0.435   6.647  14.012  0.0117 -1.1127 -1.7919
14208TIP3   OH264114   6.077   1.808   4.700 -0.0306  0.1213  0.0032
14208TIP3    H164115   6.166   1.774   4.709 -0.3863 -0.8420 -0.0664
14208TIP3    H264116   6.056   1.842   4.787  0.0079 -0.6304  0.3112
14209TIP3   OH264117   0.178   6.700   4.921 -0.3303  0.2124 -0.0616
14209TIP3    H164118   0.121   6.634   4.962 -0.3631  0.7400  0.7677
14209TIP3    H264119   0.233   6.650   4.861  1.8204 -1.1104  2.7730
14210TIP3   OH264120   0.738   1.866  13.280 -0.4596  0.5222  0.1147
14210TIP3    H164121   0.708   1.947  13.239  0.4301  0.3360 -0.9543
14210TIP3    H264122   0.693   1.797  13.232  1.1087  0.2717 -1.0717
14211TIP3   OH264123   5.889   5.022   5.822  0.7332  0.7162  0.3424
14211TIP3    H164124   5.963   5.069   5.782  0.2646  0.2988 -1.0641
14211TIP3    H264125   5.877   5.065   5.907  3.3183  0.0785  1.1387
14212TIP3   OH264126   5.264   0.996   3.996 -0.2707 -0.3597  0.5940
14212TIP3    H164127   5.189   1.035   3.951  0.4222  1.1054  0.6506
14212TIP3    H264128   5.291   1.063   4.059  3.0557  0.5998 -1.6096
14213TIP3   OH264129   3.960   1.605   4.147  0.3237  0.0764  0.2747
14213TIP3    H164130   3.871   1.570   4.142  1.5628 -3.1928 -3.0561
14213TIP3    H264131   4.003   1.553   4.215  0.3894 -0.2058  0.0175
14214TIP3   OH264132   2.589   1.383   5.976  0.1527  0.1874  0.1207
14214TIP3    H164133   2.634   1.445   6.034  1.9234 -0.8389 -0.0824
14214TIP3    H264134   2.571   1.433   5.897  1.8358  0.4293 -0.1651
14215TIP3   OH264135   3.971   6.461   4.616  0.1044 -0.2032 -0.3012
14215TIP3    H164136   3.956   6.474   4.523  0.6666  0.5725 -0.2944
14215TIP3    H264137   3.925   6.533   4.659  0.9941  0.2497 -0.0773
14216TIP3   OH264138   0.318   3.287   0.376 -0.1128  0.2869  0.4764
14216TIP3    H164139   0.332   3.199   0.412 -3.5615  0.0957  1.7247
14216TIP3    H264140   0.282   3.272   0.289 -2.3732  0.2865  1.3426
14217TIP3   OH264141   4.956   4.298  14.628  0.6366  0.1490 -0.4878
14217TIP3    H164142   4.912   4.356  14.690  2.8502  1.2921  0.1422
14217TIP3    H264143   4.895   4.290  14.554 -0.5584  1.6845  0.2737
14218TIP3   OH264144   5.028   4.509   4.056  0.7644 -0.2717  0.2030
14218TIP3    H164145   5.018   4.487   4.148  0.7900  0.8002  0.4753
14218TIP3    H264146   5.104   4.458   4.027  0.8229 -0.5260  0.7908
14219TIP3   OH264147   1.575   0.744   5.963  0.2047  0.2776  0.7937
14219TIP3    H164148   1.637   0.761   6.034  1.0388 -1.1605  0.4341
14219TIP3    H264149   1.596   0.656   5.932 -2.3719 -0.5064  0.9960
14220TIP3   OH264150   1.318   5.999   5.969 -0.4252 -0.3919 -0.5707
14220TIP3    H164151   1.327   5.904   5.981 -0.0781 -0.1839  1.0472
14220TIP3    H264152   1.224   6.015   5.975 -0.3416 -0.4074  1.3977
14221TIP3   OH264153   1.833   0.419  12.886  0.4193 -0.2829  0.4883
14221TIP3    H164154   1.842   0.399  12.979  1.5193 -0.3729  0.3755
14221TIP3    H264155   1.923   0.426  12.854  0.1097  2.5389  0.0080
14222TIP3   OH264156   5.055   2.976   4.544  0.0624  0.2995 -0.5000
14222TIP3    H164157   5.009   2.895   4.521  0.9198 -0.7386  1.1874
14222TIP3    H264158   5.107   2.952   4.621 -0.2332  2.6706  0.5154
14223TIP3   OH264159   3.120   3.985   6.547 -0.4640 -0.0972 -0.4625
14223TIP3    H164160   3.196   3.928   6.560 -0.0599  0.0524 -1.9630
14223TIP3    H264161   3.048   3.925   6.528 -0.4132 -0.1803 -0.3915
14224TIP3   OH264162   4.452   3.953  15.603  0.3861 -0.2782  0.2468
14224TIP3    H164163   4.387   3.965  15.534  1.2883  0.7691 -0.4833
14224TIP3    H264164   4.449   4.035  15.652  1.0091 -0.2897  0.3117
14225TIP3   OH264165   5.076   3.943   4.499  0.5877  0.2089  0.0517
14225TIP3    H164166   5.041   3.870   4.448  0.2000 -0.3923  1.1420
14225TIP3    H264167   5.147   3.905   4.550  0.6502  0.6829  0.3293
14226TIP3   OH264168   1.540   1.297   4.748  0.7666 -0.2917  0.4350
14226TIP3    H164169   1.469   1.257   4.698  2.3238  0.9770 -3.1187
14226TIP3    H264170   1.601   1.225   4.765  0.0059 -0.8215  0.9975
14227TIP3   OH264171   2.054   4.641  14.770 -0.2375 -0.1724  0.3962
14227TIP3    H164172   1.963   4.612  14.763 -0.5021  0.4398  1.1916
14227TIP3    H264173   2.075   4.634  14.863 -0.2027  1.8212  0.5708
14228TIP3   OH264174   3.049   2.614  15.058  0.2856  0.1375  0.2152
14228TIP3    H164175   2.977   2.591  15.000  0.7973 -3.9608  0.8879
14228TIP3    H264176   3.014   2.684  15.114 -2.5370 -0.5158 -0.5785
14229TIP3   OH264177   2.295   3.530   5.266  0.1383  0.4970 -0.5737
14229TIP3    H164178   2.370   3.506   5.320 -1.0648 -0.8990  0.5794
14229TIP3    H264179   2.319   3.505   5.177  1.4100  1.0330 -0.3988
14230TIP3   OH264180   1.065   0.004  14.699  0.1542  0.3343  0.1014
14230TIP3    H164181   1.091   0.061  14.627  0.6394  1.7116  1.3169
14230TIP3    H264182   1.118   0.033  14.773  0.3734 -1.6723  0.8098
14231TIP3   OH264183   2.587   4.979  14.037  0.1295 -0.0826 -0.1021
14231TIP3    H164184   2.560   4.912  14.100 -0.0554 -0.5268 -0.6456
14231TIP3    H264185   2.535   4.961  13.959  0.3357  0.4802 -0.3770
14232TIP3   OH264186   4.787   5.625  14.886 -0.0006  0.1297  0.1195
14232TIP3    H164187   4.880   5.637  14.867  0.1067  0.8026  0.9847
14232TIP3    H264188   4.760   5.551  14.832  1.1531 -0.3723  0.2177
14233TIP3   OH264189   3.508   2.407  14.606  0.1475  0.1587  0.0890
14233TIP3    H164190   3.438   2.456  14.650 -0.6193 -0.3082 -0.5939
14233TIP3    H264191   3.588   2.450  14.635 -0.3022 -0.2392  2.1088
14234TIP3   OH264192   3.723   0.271  14.415  0.0881 -0.1450  0.3038
14234TIP3    H164193   3.738   0.316  14.332  0.4567 -0.9305 -0.0636
14234TIP3    H264194   3.718   0.341  14.480  2.0168  0.3714 -0.0393
14235TIP3   OH264195   2.213   2.657   2.527 -0.2828 -0.4112 -0.8875
14235TIP3    H164196   2.250   2.619   2.607  2.0772  0.9231 -1.2375
14235TIP3    H264197   2.280   2.719   2.497 -2.2924  1.1807 -2.4002
14236TIP3   OH264198   6.606   4.033   0.618  0.4576 -0.2625 -0.0106
14236TIP3    H164199   6.697   4.052   0.641  1.1191 -1.4669 -1.4920
14236TIP3    H264200   6.588   3.948   0.658  0.5355 -0.7813 -1.0286
14237TIP3   OH264201   1.687   0.218  14.366 -0.2425 -0.4275 -0.0377
14237TIP3    H164202   1.654   0.246  14.451 -1.1898 -1.0706 -0.1866
14237TIP3    H264203   1.673   0.294  14.309 -0.1393 -0.2016  0.2357
14238TIP3   OH264204   3.959   5.407  16.990  0.6751 -0.1842  0.7016
14238TIP3    H164205   3.877   5.381  17.032  0.2308 -0.0546 -0.0639
14238TIP3    H264206   3.944   5.392  16.897  1.0949  0.9719  0.4345
14239TIP3   OH264207   6.151   6.240   3.827 -0.5419 -0.4575 -0.4151
14239TIP3    H164208   6.083   6.178   3.852 -0.0811 -0.7513  0.1250
14239TIP3    H264209   6.232   6.189   3.826  0.2507  0.5989  2.3715
14240TIP3   OH264210   2.119   0.563  11.677 -0.1341  0.2934 -0.4815
14240TIP3    H164211   2.120   0.645  11.628 -0.3880  0.1050 -0.8059
14240TIP3    H264212   2.182   0.577  11.748 -0.9123  1.1373  0.0660
14241TIP3   OH264213   0.615   4.861  14.456 -0.5492  0.5285  0.5502
14241TIP3    H164214   0.547   4.795  14.471  0.7144 -0.4369  2.2805
14241TIP3    H264215   0.665   4.864  14.537  0.5173  2.3796 -0.1114
14242TIP3   OH264216   6.008   5.466  16.339  0.1229  0.1868 -0.4710
14242TIP3    H164217   6.073   5.510  16.394  1.4779  0.3949 -2.1321
14242TIP3    H264218   6.026   5.373  16.351 -0.9140  0.1457  0.9283
14243TIP3   OH264219   4.943   4.867   3.353  0.2268 -0.1594  0.2161
14243TIP3    H164220   5.029   4.848   3.317 -0.0201 -0.8499 -0.0225
14243TIP3    H264221   4.883   4.857   3.279 -0.2361 -1.2173  0.7203
14244TIP3   OH264222   3.432   0.163  12.144 -0.0304 -0.0607 -0.4191
14244TIP3    H164223   3.434   0.256  12.121 -1.1592 -0.5720 -2.9953
14244TIP3    H264224   3.523   0.133  12.133 -0.1322  0.2063 -2.4443
14245TIP3   OH264225   2.159   6.632   4.086  0.6247 -0.6790 -0.0920
14245TIP3    H164226   2.128   6.543   4.097  1.5208 -1.0996 -0.7879
14245TIP3    H264227   2.099   6.686   4.137  1.0851 -1.8483  1.7653
14246TIP3   OH264228   4.857   3.030  16.796 -0.1559  0.3979 -0.1284
14246TIP3    H164229   4.858   2.990  16.709  1.7697  1.5246 -0.6913
14246TIP3    H264230   4.942   3.006  16.834  0.5710  2.8749 -0.0321
14247TIP3   OH264231   1.023   2.078   5.645  0.1927 -0.4059 -0.4485
14247TIP3    H164232   1.063   2.134   5.712 -2.3887  1.7477 -0.5394
14247TIP3    H264233   1.076   2.092   5.567  0.8737  0.2220  0.1100
14248TIP3   OH264234   2.288   1.572   2.462 -0.3267  0.1823 -0.3698
14248TIP3    H164235   2.322   1.621   2.537 -0.3832 -0.7448  0.2743
14248TIP3    H264236   2.253   1.492   2.500 -0.1049 -0.4264 -1.4244
14249TIP3   OH264237   1.549   0.794   1.571  0.0898 -0.3321 -0.4159
14249TIP3    H164238   1.499   0.822   1.648  0.4367 -0.5456 -0.1075
14249TIP3    H264239   1.640   0.794   1.601  0.7530  3.3313 -1.8697
14250TIP3   OH264240   0.531   0.472   1.155 -0.3453 -0.0486 -0.0733
14250TIP3    H164241   0.488   0.472   1.241  1.0178 -2.0056  0.6782
14250TIP3    H264242   0.459   0.462   1.093 -1.3807  1.5582  0.7887
14251TIP3   OH264243   6.741   3.025   3.793  0.0235 -0.1823 -0.8360
14251TIP3    H164244   6.687   2.948   3.810  1.0877 -0.7110  0.2470
14251TIP3    H264245   6.686   3.081   3.739 -1.8931 -0.3601  0.8364
14252TIP3   OH264246   0.459   2.411  12.889 -0.1582  0.2277 -0.0213
14252TIP3    H164247   0.420   2.431  12.973 -0.2367  0.6014 -0.1483
14252TIP3    H264248   0.550   2.441  12.897 -0.3297  0.8282 -0.2804
14253TIP3   OH264249   1.817   6.774  14.469 -0.7787 -0.0111 -0.2128
14253TIP3    H164250   1.777   6.835  14.407 -2.1538 -1.0513 -0.3919
14253TIP3    H264251   1.764   6.782  14.548 -0.6223 -0.5680 -0.0511
14254TIP3   OH264252   0.545   2.542  15.139 -0.1937  0.5332  0.0796
14254TIP3    H164253   0.625   2.503  15.102  0.6506  2.6361 -0.4429
14254TIP3    H264254   0.536   2.625  15.094 -3.4679 -0.1733 -0.8026
14255TIP3   OH264255   4.212   5.054  12.905  0.1117  0.1240  0.5902
14255TIP3    H164256   4.285   5.091  12.855  1.5557 -0.6290  2.0707
14255TIP3    H264257   4.209   4.962  12.879 -0.8031  0.2957  0.0200
14256TIP3   OH264258   5.459   4.407   0.955 -0.6908  0.0155  0.5727
14256TIP3    H164259   5.500   4.476   1.006 -0.5659 -0.4926  1.1795
14256TIP3    H264260   5.380   4.384   1.005 -0.9207 -0.0298  0.1911
14257TIP3   OH264261   1.045   6.493  13.268  0.1962  0.1302 -0.1934
14257TIP3    H164262   0.985   6.552  13.224  0.3055  0.4601  0.0988
14257TIP3    H264263   1.049   6.416  13.211  1.8684  1.3267 -1.8316
14258TIP3   OH264264   1.784   6.169   0.432  0.3079  0.2000  0.3741
14258TIP3    H164265   1.774   6.131   0.344 -0.2516 -1.3986  1.0841
14258TIP3    H264266   1.759   6.260   0.422 -1.6739 -0.3999 -0.7626
14259TIP3   OH264267   3.337   1.324   2.682 -0.3749 -0.1157  0.0098
14259TIP3    H164268   3.358   1.393   2.619 -0.1108 -0.6591 -0.5035
14259TIP3    H264269   3.392   1.343   2.757 -1.0230  0.8047  0.2783
14260TIP3   OH264270   3.553   2.569  13.880 -0.7903  0.2994 -0.2314
14260TIP3    H164271   3.555   2.489  13.932  0.7198  0.1589 -0.4623
14260TIP3    H264272   3.485   2.553  13.814 -1.1924 -0.3785  0.3297
14261TIP3   OH264273   1.468   1.575   1.555  0.1612 -0.0642 -0.3154
14261TIP3    H164274   1.538   1.514   1.578  2.1894  1.5599 -1.7789
14261TIP3    H264275   1.507   1.632   1.489 -1.4101  3.1748  1.3337
14262TIP3   OH264276   1.801   3.571  12.748 -0.1204  0.3978  0.2895
14262TIP3    H164277   1.880   3.616  12.718 -0.9958  0.8906 -1.4566
14262TIP3    H264278   1.761   3.631  12.811  0.2737  0.6994  0.2563
14263TIP3   OH264279   2.457   2.314  17.082 -0.0321 -0.4272 -0.0335
14263TIP3    H164280   2.466   2.260  17.160  0.7356  1.0779  0.9729
14263TIP3    H264281   2.398   2.385  17.108 -0.7085 -0.5342 -1.1953
14264TIP3   OH264282   3.691   3.294   3.050  0.2572  0.0292 -0.6284
14264TIP3    H164283   3.657   3.280   3.138  1.2904  0.5153 -0.1381
14264TIP3    H264284   3.623   3.259   2.992  0.0162 -1.2240  0.3732
14265TIP3   OH264285   4.076   6.157  14.096 -0.2194  0.7295 -0.2582
14265TIP3    H164286   4.028   6.152  14.178  1.4037 -0.9005  0.6679
14265TIP3    H264287   4.014   6.194  14.033 -2.0631  0.3650  1.2834
14266TIP3   OH264288   4.283   4.124   0.241 -0.4359  0.6624 -0.2191
14266TIP3    H164289   4.326   4.182   0.178  0.4721  0.0456 -0.1897
14266TIP3    H264290   4.352   4.063   0.268 -1.4693 -0.6763 -0.5341
14267TIP3   OH264291   5.229   3.627   5.916  1.0396  0.4504  0.3310
14267TIP3    H164292   5.202   3.575   5.991  0.6720  0.7842  0.4305
14267TIP3    H264293   5.147   3.654   5.874  1.1612  2.3607  1.2314
14268TIP3   OH264294   0.782   2.686   4.721  0.4768  0.4286  0.0044
14268TIP3    H164295   0.738   2.671   4.638  1.8998  1.7599 -1.0418
14268TIP3    H264296   0.863   2.635   4.715  0.2137 -0.1314  0.9426
14269TIP3   OH264297   3.449   0.992   0.493 -0.2542 -0.2711 -0.4018
14269TIP3    H164298   3.385   1.020   0.427 -0.6127  0.5207  0.2685
14269TIP3    H264299   3.471   0.902   0.468 -1.4138 -0.4580 -0.8121
14270TIP3   OH264300   5.146   1.033  11.203  0.0861  0.0398 -0.0933
14270TIP3    H164301   5.161   0.942  11.230  0.6511  0.3381  0.6476
14270TIP3    H264302   5.204   1.045  11.128 -0.4428 -0.3852 -0.5791
14271TIP3   OH264303   2.557   4.769   6.284  0.4297 -0.2149  0.3492
14271TIP3    H164304   2.566   4.850   6.235  1.5118 -0.6180 -0.1514
14271TIP3    H264305   2.484   4.785   6.344  1.5090  1.6287  1.2683
14272TIP3   OH264306   6.047   4.186   2.373  0.3924  0.4744  0.6547
14272TIP3    H164307   6.117   4.207   2.310  0.8444  0.3049  1.0932
14272TIP3    H264308   6.000   4.114   2.332  0.2058  0.8692  0.1586
14273TIP3   OH264309   2.858   3.574  12.798 -0.4533  0.0641  0.0263
14273TIP3    H164310   2.846   3.479  12.796  2.1223 -0.3443  0.8627
14273TIP3    H264311   2.872   3.595  12.890  0.7291  0.9794 -0.3370
14274TIP3   OH264312   4.043   0.464   1.860 -0.4986 -0.3515  0.9399
14274TIP3    H164313   4.061   0.420   1.777  0.1473 -0.1922  0.9887
14274TIP3    H264314   4.116   0.438   1.917 -0.4217  0.3086  1.1510
14275TIP3   OH264315   2.940   5.738  10.851  0.3477 -0.0882 -0.2729
14275TIP3    H164316   2.860   5.700  10.889 -0.4917 -0.1648 -1.9841
14275TIP3    H264317   2.931   5.832  10.865  0.7543 -0.2172  0.9435
14276TIP3   OH264318   2.763   2.050  14.004 -1.0465 -0.7122  0.4795
14276TIP3    H164319   2.844   2.063  14.053 -1.7674  1.5448  1.1861
14276TIP3    H264320   2.703   2.010  14.067 -0.8990 -1.1307  0.3568
14277TIP3   OH264321   4.473   3.513   1.593  0.9278  0.0337 -0.4476
14277TIP3    H164322   4.475   3.594   1.644  1.2189  0.4693 -1.1310
14277TIP3    H264323   4.542   3.459   1.630 -1.8513 -1.6989  2.8236
14278TIP3   OH264324   1.533   0.977  15.762 -0.6089 -0.5728 -0.3117
14278TIP3    H164325   1.446   0.967  15.802 -1.4321 -0.6378 -2.0047
14278TIP3    H264326   1.520   0.948  15.672  1.7621 -2.9107 -0.0055
14279TIP3   OH264327   3.027   2.599   6.220 -0.0432 -0.0535  0.0294
14279TIP3    H164328   2.999   2.652   6.294 -1.3159 -1.2050  0.4225
14279TIP3    H264329   3.042   2.662   6.149 -0.6249  0.8966  0.7324
14280TIP3   OH264330   5.114   0.962   6.524 -0.1129 -0.2654 -0.2882
14280TIP3    H164331   5.082   1.022   6.456  0.9306  0.6863  0.0129
14280TIP3    H264332   5.199   0.933   6.492  0.0732 -0.3675  0.2883
14281TIP3   OH264333   3.544   6.427  11.368  0.2152  0.0660  0.2859
14281TIP3    H164334   3.615   6.415  11.305  0.3070 -1.5060  0.6429
14281TIP3    H264335   3.536   6.342  11.411 -2.5243 -0.0984 -0.3880
14282TIP3   OH264336   5.415   4.444  13.766  0.3688 -0.4707  0.0057
14282TIP3    H164337   5.408   4.474  13.857 -0.1853  0.2618 -0.2740
14282TIP3    H264338   5.328   4.459  13.729  0.4962 -1.0863 -0.5521
14283TIP3   OH264339   6.640   1.939  11.460  0.1706  0.4274  0.5410
14283TIP3    H164340   6.675   1.954  11.548 -0.5271  1.6308  0.6322
14283TIP3    H264341   6.630   1.844  11.454  2.1587  0.1346  0.9867
14284TIP3   OH264342   1.245   3.260  16.399 -0.4395  0.1305  0.6817
14284TIP3    H164343   1.271   3.302  16.480  0.8369  1.7698 -0.5087
14284TIP3    H264344   1.263   3.167  16.413  0.6690  0.5020  1.9299
14285TIP3   OH264345   0.465   1.666  11.870  0.0983  0.1342 -0.5840
14285TIP3    H164346   0.540   1.637  11.923 -0.4968  0.4728  0.4670
14285TIP3    H264347   0.464   1.761  11.879 -2.3493 -0.0144  2.1584
14286TIP3   OH264348   1.626   6.540   5.158 -0.4731 -0.1655  0.2536
14286TIP3    H164349   1.629   6.529   5.253  0.2082  0.3200  0.2949
14286TIP3    H264350   1.533   6.545   5.137 -0.6675 -1.3949  0.7581
14287TIP3   OH264351   0.131   5.887   4.882 -0.1066  0.0490 -0.1382
14287TIP3    H164352   0.200   5.953   4.877 -0.7860  0.7044 -1.4854
14287TIP3    H264353   0.165   5.813   4.831  0.0342 -0.0563  0.1054
14288TIP3   OH264354   1.391   5.756  11.146 -0.1855 -0.0537 -0.3077
14288TIP3    H164355   1.445   5.734  11.070  0.0318  0.3246 -0.2616
14288TIP3    H264356   1.304   5.772  11.109 -0.1407 -0.1238 -0.4452
14289TIP3   OH264357   4.169   4.205  14.769 -0.2371 -0.0543  0.1760
14289TIP3    H164358   4.120   4.263  14.827 -1.0311 -0.7323  0.1969
14289TIP3    H264359   4.189   4.129  14.822  1.6717  0.5804  0.4511
14290TIP3   OH264360   4.476   3.336  16.117  0.2309 -0.3419  0.1175
14290TIP3    H164361   4.555   3.356  16.166  1.0349 -0.1273 -1.2008
14290TIP3    H264362   4.503   3.342  16.025 -1.4015  0.1070 -0.3660
14291TIP3   OH264363   0.976   6.534   0.317  0.3323 -0.1557 -0.1558
14291TIP3    H164364   0.960   6.442   0.299 -0.7709 -0.1386  0.6793
14291TIP3    H264365   0.889   6.572   0.327  0.7787  0.9406 -0.2856
14292TIP3   OH264366   3.252   3.510  12.020  0.1177 -0.4511 -0.8539
14292TIP3    H164367   3.189   3.471  12.081 -1.1563  0.4669 -1.5271
14292TIP3    H264368   3.210   3.591  11.991  1.9065  0.5475 -0.8333
14293TIP3   OH264369   3.458   4.059  17.066 -0.2253 -0.1100 -0.3666
14293TIP3    H164370   3.495   4.021  16.986 -0.4622  0.2340 -0.6417
14293TIP3    H264371   3.534   4.085  17.117 -0.0568  1.9198 -1.5566
14294TIP3   OH264372   1.896   2.516   5.901 -0.4418  0.3571 -0.6128
14294TIP3    H164373   1.915   2.431   5.941  0.8875  0.2519 -1.4176
14294TIP3    H264374   1.800   2.524   5.907 -0.4463 -0.4824  0.8592
14295TIP3   OH264375   3.681   2.715   2.511 -0.1289 -0.0905  0.1940
14295TIP3    H164376   3.633   2.777   2.567 -0.0515 -0.3849  0.5876
14295TIP3    H264377   3.645   2.629   2.534  0.9852 -0.3768  0.9083
14296TIP3   OH264378   2.946   5.428  14.091 -0.1564  0.0377  0.2334
14296TIP3    H164379   2.873   5.371  14.064 -1.5331  0.9477  1.8607
14296TIP3    H264380   2.952   5.493  14.021  0.6058 -1.3292 -1.0214
14297TIP3   OH264381   3.947   1.577   2.747  0.1446  0.5455 -0.1594
14297TIP3    H164382   3.954   1.543   2.836  0.3409  0.2599 -0.2830
14297TIP3    H264383   3.856   1.606   2.739 -0.2917 -0.8300 -0.3642
14298TIP3   OH264384   0.002   4.653   3.537 -0.3186  0.3227  0.2116
14298TIP3    H164385  -0.058   4.716   3.497 -0.0382  1.5911  1.7236
14298TIP3    H264386  -0.020   4.654   3.630  0.7321 -0.6876  0.5006
14299TIP3   OH264387   6.659   5.933  11.443 -1.2181  0.7664  0.1418
14299TIP3    H164388   6.717   5.926  11.367 -0.9435  2.2470  0.1948
14299TIP3    H264389   6.605   5.854  11.439 -1.2187  0.8163 -1.6098
14300TIP3   OH264390   1.093   5.745   5.095 -0.6277  0.0014 -0.2973
14300TIP3    H164391   1.134   5.816   5.045  0.1551  0.1781  0.5591
14300TIP3    H264392   1.165   5.707   5.145 -0.9365 -1.7299 -1.0897
14301TIP3   OH264393   0.469   5.178   3.415 -0.3838  0.1568  0.7038
14301TIP3    H164394   0.505   5.257   3.456 -0.0257  0.1049  0.4963
14301TIP3    H264395   0.546   5.128   3.388 -0.5985  0.3641 -0.3647
14302TIP3   OH264396   3.419   5.957  16.709  0.2684  0.0749  0.2786
14302TIP3    H164397   3.439   6.024  16.774  0.1676  0.1542  0.2298
14302TIP3    H264398   3.471   5.882  16.735  0.4950  0.2198  0.2504
14303TIP3   OH264399   2.047   3.252   3.145 -0.7599  0.1394  0.7579
14303TIP3    H164400   2.019   3.182   3.086  2.5567 -0.3974 -0.3367
14303TIP3    H264401   2.039   3.213   3.233  1.1724 -1.7529  0.1730
14304TIP3   OH264402   1.164   5.792  11.847  0.6546  0.2276  0.0772
14304TIP3    H164403   1.200   5.875  11.816 -0.5816  0.9201  0.4375
14304TIP3    H264404   1.164   5.800  11.942 -2.8688  1.4091  0.1243
14305TIP3   OH264405   0.179   4.379   0.383 -0.3277 -0.1201 -0.2011
14305TIP3    H164406   0.161   4.361   0.476 -0.7707  1.1288 -0.0321
14305TIP3    H264407   0.159   4.471   0.372  1.6249  0.2401 -1.1065
14306TIP3   OH264408   4.631   6.469  13.836 -0.0432 -0.5695  1.0233
14306TIP3    H164409   4.673   6.386  13.813  0.6559  0.2242 -0.7376
14306TIP3    H264410   4.555   6.444  13.888 -1.4163 -2.5660 -1.6711
14307TIP3   OH264411   1.079   3.771   1.678 -0.1938 -0.0076 -0.2659
14307TIP3    H164412   1.008   3.795   1.737  0.5436  0.7092  0.3458
14307TIP3    H264413   1.142   3.725   1.734  0.3061  0.2872 -0.5822
14308TIP3   OH264414   4.762   5.161  15.367  0.5594  0.3521  0.1160
14308TIP3    H164415   4.733   5.083  15.320  0.7455  0.0299  0.5301
14308TIP3    H264416   4.767   5.229  15.300 -1.1702  0.4254  0.0336
14309TIP3   OH264417   5.722   0.528  10.794 -0.1087 -0.6287 -0.2930
14309TIP3    H164418   5.637   0.497  10.825 -0.1034  0.7153  1.2194
14309TIP3    H264419   5.758   0.455  10.744 -1.6542 -1.6379  0.0046
14310TIP3   OH264420   3.365   5.374  15.006  0.6192  0.0572 -0.2755
14310TIP3    H164421   3.356   5.332  15.091  1.7174 -1.6981 -0.9629
14310TIP3    H264422   3.445   5.426  15.013  0.1925  0.6753  0.0483
14311TIP3   OH264423   2.785   0.946   3.992  0.4640  0.3603  0.1166
14311TIP3    H164424   2.853   0.914   4.051  1.0023 -1.3234 -1.3652
14311TIP3    H264425   2.752   1.025   4.036  0.7521 -0.8415  2.7190
14312TIP3   OH264426   2.249   0.595  13.959 -0.1836  0.3704 -0.1738
14312TIP3    H164427   2.329   0.565  13.917 -0.7535 -0.7055 -0.5554
14312TIP3    H264428   2.278   0.639  14.039  0.7403 -1.0699  0.3274
14313TIP3   OH264429   5.577   0.583  12.877 -0.2041  0.9938 -0.6059
14313TIP3    H164430   5.544   0.602  12.965 -1.8381 -1.1059 -0.6903
14313TIP3    H264431   5.672   0.585  12.887 -0.3465  0.4383  1.3031
14314TIP3   OH264432   6.250   3.268  16.163  0.2483  0.0808  0.1227
14314TIP3    H164433   6.332   3.220  16.149  0.0005  0.0274 -1.3306
14314TIP3    H264434   6.219   3.239  16.249  0.6099 -1.6411 -0.2926
14315TIP3   OH264435   4.415   3.017   1.208  0.2427  0.3115 -0.8550
14315TIP3    H164436   4.375   3.096   1.245  0.1443  0.4353 -1.2179
14315TIP3    H264437   4.464   3.049   1.132  1.0712  0.1693 -0.3936
14316TIP3   OH264438   1.172   3.222   2.346  0.5087 -0.2322  0.4564
14316TIP3    H164439   1.081   3.217   2.317 -0.7074  2.6973  3.1939
14316TIP3    H264440   1.183   3.146   2.403 -0.7743  0.1646  1.2791
14317TIP3   OH264441   0.995   1.737   0.125 -0.1841 -0.2136  0.1165
14317TIP3    H164442   1.068   1.743   0.186  1.0547  0.6385 -1.3880
14317TIP3    H264443   0.966   1.827   0.113  0.3702 -0.2095 -1.4185
14318TIP3   OH264444   0.603   6.424  11.347  0.5344 -0.2288 -0.4676
14318TIP3    H164445   0.585   6.364  11.275  0.4888 -0.7004 -0.0679
14318TIP3    H264446   0.540   6.400  11.415  2.6224 -1.9258  0.9840
14319TIP3   OH264447   4.601   1.163  12.104  0.0426  0.0881  0.3851
14319TIP3    H164448   4.654   1.242  12.113  0.1394  0.4876 -2.5619
14319TIP3    H264449   4.520   1.193  12.063 -0.2722 -1.2069  0.0095
14320TIP3   OH264450   6.688   4.625   3.107  0.0999 -0.1761  0.3336
14320TIP3    H164451   6.746   4.549   3.117 -0.7611 -0.9442 -0.3410
14320TIP3    H264452   6.740   4.689   3.060  0.7454 -0.4497  0.6551
14321TIP3   OH264453   4.633   4.193  15.271  0.3753 -0.3633  0.4473
14321TIP3    H164454   4.585   4.268  15.306  1.3633  0.2430  0.5328
14321TIP3    H264455   4.686   4.162  15.345  0.8983 -0.3753  0.0733
14322TIP3   OH264456   2.764   4.166   0.512  0.2316 -0.2573  0.1482
14322TIP3    H164457   2.762   4.249   0.560  1.9833 -0.7730  1.2131
14322TIP3    H264458   2.843   4.172   0.458 -0.4297 -0.6625 -0.8987
14323TIP3   OH264459   3.086   3.895   2.806  0.0651  0.1199  0.2420
14323TIP3    H164460   3.006   3.855   2.838 -1.7545  2.1908 -1.4028
14323TIP3    H264461   3.085   3.879   2.712  1.4892  0.3848  0.1533
14324TIP3   OH264462   4.013   0.159   0.785  1.1532  0.0331  0.0277
14324TIP3    H164463   4.008   0.239   0.837 -1.8054  1.5583 -2.2317
14324TIP3    H264464   4.095   0.166   0.737  1.0109  1.7361 -0.0324
14325TIP3   OH264465   2.213   1.402   5.895 -0.0625  0.4083  0.0930
14325TIP3    H164466   2.198   1.317   5.853  3.6555 -1.0266  1.2828
14325TIP3    H264467   2.191   1.387   5.987 -2.3547  1.7556 -0.1645
14326TIP3   OH264468   5.174   1.744  11.167  0.1769 -0.0043 -0.4234
14326TIP3    H164469   5.202   1.698  11.246  0.3771 -1.9589 -1.5756
14326TIP3    H264470   5.093   1.702  11.141  1.0183 -0.6225 -2.2153
14327TIP3   OH264471   3.762   5.679   4.158  0.3408  0.0718 -0.8282
14327TIP3    H164472   3.753   5.765   4.200  1.1119 -0.2198 -0.0430
14327TIP3    H264473   3.826   5.632   4.213  1.1511 -0.4256 -2.1627
14328TIP3   OH264474   1.732   4.315  11.893  0.2807 -0.4072  0.0748
14328TIP3    H164475   1.687   4.362  11.822  1.9333  1.5821  0.2523
14328TIP3    H264476   1.825   4.333  11.878  0.6816 -0.0198  2.6980
14329TIP3   OH264477   4.928   0.261   2.420  0.1874 -0.2569  0.1745
14329TIP3    H164478   4.989   0.242   2.491 -2.0937 -3.4852  1.5129
14329TIP3    H264479   4.904   0.353   2.433  2.9493  0.4607  0.9249
14330TIP3   OH264480   3.081   5.382  16.036 -0.2379 -0.0837 -0.1745
14330TIP3    H164481   3.065   5.365  15.943  0.2848 -1.4037 -0.0462
14330TIP3    H264482   3.113   5.472  16.039 -0.1972 -0.0460 -1.2783
14331TIP3   OH264483   2.517   2.068   1.759 -0.0881 -0.6913  0.1723
14331TIP3    H164484   2.588   2.038   1.815 -0.0631 -1.5667 -0.3139
14331TIP3    H264485   2.440   2.020   1.789 -0.2151 -0.6626 -0.0970
14332TIP3   OH264486   5.327   2.143   3.861 -0.2389  0.5980  0.3292
14332TIP3    H164487   5.337   2.057   3.819 -0.6131  0.3564  0.7284
14332TIP3    H264488   5.346   2.205   3.791 -1.0567  0.2034 -0.2657
14333TIP3   OH264489   4.375   4.317   1.648 -0.0515 -0.2479 -0.4145
14333TIP3    H164490   4.456   4.279   1.614  0.5718 -0.0236  0.7466
14333TIP3    H264491   4.385   4.411   1.633  0.8198  0.0122  1.4503
14334TIP3   OH264492   0.703   2.936  15.200  0.1780  0.1963 -0.4987
14334TIP3    H164493   0.637   2.878  15.161 -0.0616 -1.0146  1.5758
14334TIP3    H264494   0.738   2.887  15.274  1.9285  1.6675 -0.2669
14335TIP3   OH264495   6.586   2.034  12.560 -0.2647  0.0019  0.1737
14335TIP3    H164496   6.664   1.980  12.571  0.5852  0.7869 -1.5070
14335TIP3    H264497   6.616   2.123  12.574 -1.3295  0.1976  1.4561
14336TIP3   OH264498   4.832   3.931   2.666 -0.0131  0.0621 -0.3336
14336TIP3    H164499   4.782   3.960   2.742  0.4006  0.3208 -0.1550
14336TIP3    H264500   4.796   3.846   2.644  1.0859 -0.8699  1.2881
14337TIP3   OH264501   2.619   3.626   4.650 -0.2180 -0.0481  0.0304
14337TIP3    H164502   2.655   3.714   4.665 -1.4730  0.2355  1.6058
14337TIP3    H264503   2.690   3.567   4.676 -0.2001  0.5072  1.2963
14338TIP3   OH264504   0.326   4.872   2.486  0.2556  0.4758  0.7522
14338TIP3    H164505   0.285   4.884   2.572 -0.2518 -1.2612  0.7876
14338TIP3    H264506   0.293   4.945   2.433  0.1371  1.2474  1.8639
14339TIP3   OH264507   0.238   5.162   5.468 -0.6120 -0.0902 -0.1969
14339TIP3    H164508   0.159   5.198   5.427 -0.3221  2.4623  1.2489
14339TIP3    H264509   0.241   5.203   5.554  2.6512  0.4648 -0.4462
14340TIP3   OH264510   0.612   2.790   2.247  0.7307  0.8279 -0.1021
14340TIP3    H164511   0.548   2.861   2.242  0.0336  0.2104 -0.1134
14340TIP3    H264512   0.650   2.785   2.159 -1.4306 -0.7999 -1.0542
14341TIP3   OH264513   5.141   3.607   4.173 -0.4762 -0.3672 -0.6402
14341TIP3    H164514   5.081   3.640   4.106 -0.2154  2.8062  0.5307
14341TIP3    H264515   5.216   3.666   4.169  0.0021 -0.7294  1.7123
14342TIP3   OH264516   3.927   1.537  13.223 -0.7946  0.0770 -0.5558
14342TIP3    H164517   3.886   1.487  13.152 -1.3115 -0.0657 -0.1691
14342TIP3    H264518   4.015   1.500  13.230 -0.5483  0.4683 -1.4829
14343TIP3   OH264519   3.927   2.908   6.224 -0.5841  0.2680  0.7539
14343TIP3    H164520   3.909   2.948   6.309 -0.0620 -4.0619  3.2082
14343TIP3    H264521   3.850   2.856   6.205  0.2059 -0.5806 -0.2805
14344TIP3   OH264522   1.046   2.532  15.529 -0.2763 -0.2732 -0.0291
14344TIP3    H164523   1.122   2.476  15.512 -0.6258 -0.6010 -0.5524
14344TIP3    H264524   1.008   2.549  15.443 -0.2835  0.6267  0.1423
14345TIP3   OH264525   0.563   4.254  17.272  0.3257  0.2544  0.1871
14345TIP3    H164526   0.513   4.182  17.233  0.1096  0.1623  0.6252
14345TIP3    H264527   0.514   4.276  17.351  0.3779  0.9038  0.0390
14346TIP3   OH264528   2.480   5.645   4.802 -0.6974 -0.0128 -0.1500
14346TIP3    H164529   2.535   5.583   4.850 -1.2871 -1.6551 -1.5094
14346TIP3    H264530   2.530   5.727   4.802  0.7079 -0.8459  0.5459
14347TIP3   OH264531   2.495   5.407  14.454 -0.1024  0.2147 -0.0567
14347TIP3    H164532   2.554   5.348  14.501  0.4515  1.0877  0.3639
14347TIP3    H264533   2.415   5.408  14.506  0.0975  0.2822  0.2517
14348TIP3   OH264534   1.046   0.850  14.142  0.2242 -0.1798  0.4284
14348TIP3    H164535   0.972   0.902  14.111 -0.2166 -0.5224  0.9042
14348TIP3    H264536   1.113   0.861  14.074 -0.8821 -1.2735 -0.8968
14349TIP3   OH264537   4.892   6.711   6.412  0.3549 -0.4041 -0.6113
14349TIP3    H164538   4.913   6.799   6.445 -1.0312  0.3284 -1.5627
14349TIP3    H264539   4.958   6.695   6.344 -0.5032  0.7796 -1.7953
14350TIP3   OH264540   4.680   0.848  17.303 -0.3583  0.1601  0.3016
14350TIP3    H164541   4.774   0.833  17.313  0.1984  2.7461 -0.2023
14350TIP3    H264542   4.672   0.943  17.295 -2.6476 -0.1427 -3.2524
14351TIP3   OH264543   0.790   1.129  11.153  0.2674  0.3042 -0.3390
14351TIP3    H164544   0.822   1.058  11.097  0.0448  1.0009 -1.3850
14351TIP3    H264545   0.702   1.148  11.120  0.5665  1.4958 -0.5251
14352TIP3   OH264546   4.602   0.288   4.954  0.0376 -0.1039 -0.1373
14352TIP3    H164547   4.642   0.326   5.033 -1.0771 -2.1117  1.4897
14352TIP3    H264548   4.664   0.221   4.926 -1.3654 -2.3367  1.6458
14353TIP3   OH264549   1.246   1.536  13.357  0.3125  0.2109  0.2815
14353TIP3    H164550   1.229   1.497  13.271  0.4449 -1.9904  1.2079
14353TIP3    H264551   1.226   1.629  13.344 -2.2042 -0.4544 -1.4583
14354TIP3   OH264552   6.714   2.648   5.635  0.0941 -0.2457  0.2465
14354TIP3    H164553   6.670   2.668   5.553 -1.7171 -0.2452  1.1765
14354TIP3    H264554   6.775   2.577   5.613 -1.8241 -1.6864 -0.7042
14355TIP3   OH264555   3.501   1.074   2.494  0.5888  0.1394 -0.3485
14355TIP3    H164556   3.426   1.015   2.486  0.6864 -0.0016 -0.2277
14355TIP3    H264557   3.566   1.039   2.433  0.7969 -0.1115  0.0101
14356TIP3   OH264558   4.962   1.179   5.928 -0.3479 -0.1185  0.1306
14356TIP3    H164559   4.972   1.093   5.969 -1.5319 -1.3646 -1.9836
14356TIP3    H264560   4.889   1.220   5.975 -1.3355 -1.2925 -0.3155
14357TIP3   OH264561   4.395   2.263   4.801  0.2452  0.1324 -0.1536
14357TIP3    H164562   4.384   2.279   4.707  0.9194  0.7210 -0.1395
14357TIP3    H264563   4.391   2.350   4.841  1.0706  0.0065  0.2367
14358TIP3   OH264564   6.187   3.185  12.797  0.3680 -0.3558 -0.3867
14358TIP3    H164565   6.092   3.187  12.814  0.6742 -0.6545  1.5091
14358TIP3    H264566   6.227   3.196  12.883  2.0751  0.1238 -1.2136
14359TIP3   OH264567   0.450   6.663  12.505  0.7187  0.0976  0.5544
14359TIP3    H164568   0.429   6.753  12.480  0.5546 -0.2048 -0.4560
14359TIP3    H264569   0.393   6.609  12.450  1.2191 -0.6375  0.7399
14360TIP3   OH264570   5.139   3.745  15.443  0.3700  0.1944  0.0903
14360TIP3    H164571   5.231   3.731  15.423  0.1105  0.5201 -1.4617
14360TIP3    H264572   5.098   3.659  15.429  0.2787  0.2807 -0.1671
14361TIP3   OH264573   0.835   3.244  12.174 -0.0940 -0.3374 -0.7262
14361TIP3    H164574   0.894   3.228  12.101 -0.4450  1.2660 -1.3942
14361TIP3    H264575   0.858   3.332  12.205 -0.0712 -0.8990  0.9985
14362TIP3   OH264576   2.535   0.965   2.828 -0.2391 -0.0398  0.3622
14362TIP3    H164577   2.533   0.873   2.856 -1.7043  0.4346  1.9528
14362TIP3    H264578   2.625   0.978   2.796 -0.2117 -2.2108 -0.6580
14363TIP3   OH264579   1.876   1.530  15.353  0.0124  0.1808  0.4054
14363TIP3    H164580   1.815   1.473  15.306  0.5085 -1.2331  1.3912
14363TIP3    H264581   1.820   1.595  15.396 -0.8331 -0.9889  1.1512
14364TIP3   OH264582   1.535   1.208  14.547 -0.7412  0.2117 -0.0380
14364TIP3    H164583   1.564   1.117  14.542 -1.0103  0.2009 -1.9514
14364TIP3    H264584   1.614   1.256  14.573 -0.1471 -0.3691 -0.7207
14365TIP3   OH264585   0.884   1.951   3.461 -0.6887  0.7192  0.3835
14365TIP3    H164586   0.973   1.944   3.426 -0.7687  2.8193 -0.3490
14365TIP3    H264587   0.842   2.017   3.407 -2.2234  0.8936  1.7198
14366TIP3   OH264588   6.595   1.312   1.666 -0.1062  0.3439  0.3586
14366TIP3    H164589   6.676   1.262   1.652  0.5299  1.5033 -0.2258
14366TIP3    H264590   6.546   1.260   1.730  0.3484 -1.2224 -0.4906
14367TIP3   OH264591   5.758   0.722  12.361  0.3418 -0.3199  0.5967
14367TIP3    H164592   5.694   0.657  12.333  0.5089  0.1957 -1.1552
14367TIP3    H264593   5.796   0.686  12.441 -1.8213 -0.8264  1.4755
14368TIP3   OH264594   6.313   4.773   2.838 -0.0480  0.0376  0.6786
14368TIP3    H164595   6.344   4.813   2.919 -1.3318  0.4848  0.9769
14368TIP3    H264596   6.344   4.683   2.842  1.2025  0.4624  0.9339
14369TIP3   OH264597   5.673   0.810  13.843 -0.6248  0.2989  0.6354
14369TIP3    H164598   5.674   0.716  13.829 -1.0489  0.2376  1.0080
14369TIP3    H264599   5.716   0.847  13.766  0.6720 -0.2720  1.0549
14370TIP3   OH264600   5.188   3.166   0.982  0.5223  0.0779 -0.7282
14370TIP3    H164601   5.140   3.087   0.958 -1.7652  1.2980 -0.3609
14370TIP3    H264602   5.269   3.160   0.930  1.8030 -3.8013  1.2782
14371TIP3   OH264603   3.670   1.511   6.170  0.7235  0.5613 -0.0601
14371TIP3    H164604   3.731   1.575   6.206  0.7357  0.2836  0.4121
14371TIP3    H264605   3.695   1.428   6.210  0.0091  0.4501  0.1757
14372TIP3   OH264606   2.521   5.546  14.136 -0.0679 -0.0359  0.5548
14372TIP3    H164607   2.504   5.525  14.228  1.4284  1.2869  1.1694
14372TIP3    H264608   2.495   5.467  14.088 -2.5778 -0.1375  1.8846
14373TIP3   OH264609   0.586   0.322  16.821  0.1004  0.3318  0.4260
14373TIP3    H164610   0.631   0.374  16.753  0.2591  0.2728  0.4851
14373TIP3    H264611   0.604   0.231  16.797 -1.7319  0.2197 -0.7629
14374TIP3   OH264612   4.301   5.761   5.643  0.4985 -0.2716  0.1572
14374TIP3    H164613   4.388   5.795   5.622  0.1805 -0.3441 -1.4210
14374TIP3    H264614   4.314   5.668   5.658  0.4983 -0.6114 -1.6987
14375TIP3   OH264615   5.433   2.917   2.776 -0.4479 -0.2013 -0.7398
14375TIP3    H164616   5.460   2.887   2.689 -0.8505 -0.8694 -0.6394
14375TIP3    H264617   5.347   2.957   2.762 -1.4626 -2.1415 -0.3420
14376TIP3   OH264618   5.752   3.947   4.106  0.3538  0.1150  0.8103
14376TIP3    H164619   5.716   3.871   4.061  1.3915 -0.6771  1.2843
14376TIP3    H264620   5.777   4.007   4.035 -1.7627  0.6695  0.4719
14377TIP3   OH264621   3.065   1.437   0.322  0.3528  0.5287  0.1318
14377TIP3    H164622   2.991   1.434   0.383  0.0184  2.2510 -0.1277
14377TIP3    H264623   3.027   1.415   0.237  0.5469 -0.5275  0.3103
14378TIP3   OH264624   2.679   0.650  11.897 -0.3670 -0.2077 -0.4857
14378TIP3    H164625   2.736   0.718  11.862 -1.9397  1.5968  0.2481
14378TIP3    H264626   2.684   0.579  11.834  0.5565  0.9983 -1.8419
14379TIP3   OH264627   5.538   0.970   0.002  0.1736 -0.5946 -0.2502
14379TIP3    H164628   5.473   0.932  -0.057 -1.0478  1.4945 -0.3601
14379TIP3    H264629   5.563   1.052  -0.041  3.1022 -1.4129 -0.3122
14380TIP3   OH264630   0.640   4.993   5.687 -0.3024  0.3038 -0.1162
14380TIP3    H164631   0.556   4.949   5.697  0.4914 -1.7860 -1.8932
14380TIP3    H264632   0.617   5.079   5.649 -1.6578  0.0758  0.1217
14381TIP3   OH264633   6.512   6.684   1.262  0.2223 -0.4345 -0.2034
14381TIP3    H164634   6.443   6.665   1.326  0.5897  0.2355  0.4038
14381TIP3    H264635   6.465   6.705   1.181 -0.3168  0.7710  0.4075
14382TIP3   OH264636   6.444   1.168   2.611  0.0934  0.3735 -0.1836
14382TIP3    H164637   6.357   1.200   2.634  0.0579 -1.0086  1.9169
14382TIP3    H264638   6.492   1.169   2.694  1.6192 -0.2685 -1.0166
14383TIP3   OH264639   3.331   3.864  14.187 -0.5584 -0.1514 -0.2683
14383TIP3    H164640   3.385   3.913  14.125  0.0654  0.9230  1.0737
14383TIP3    H264641   3.241   3.891  14.166 -0.2559  1.3001  0.1807
14384TIP3   OH264642   3.513   6.299   6.249 -0.2822  0.2821  0.3616
14384TIP3    H164643   3.466   6.226   6.290  0.7899 -1.2249 -0.9225
14384TIP3    H264644   3.468   6.313   6.166 -2.7220  3.6105  2.0296
14385TIP3   OH264645   1.611   3.113   0.621  0.4961  0.2407  0.0949
14385TIP3    H164646   1.626   3.179   0.689  0.7635 -1.4705  1.7572
14385TIP3    H264647   1.518   3.120   0.601  1.0218  3.1265 -1.9895
14386TIP3   OH264648   1.978   1.535  16.132  0.2331 -0.0099  0.2071
14386TIP3    H164649   1.940   1.448  16.141  1.1078 -0.7303 -2.4139
14386TIP3    H264650   2.050   1.536  16.195 -1.2145 -0.2515  1.9626
14387TIP3   OH264651   2.610   0.127   4.508 -0.5536  0.5857  0.8497
14387TIP3    H164652   2.652   0.196   4.457  0.7019  0.6068  1.8595
14387TIP3    H264653   2.666   0.116   4.585 -0.7227 -1.5529  0.7309
14388TIP3   OH264654   3.446   5.800   0.192  0.6806 -0.3044  0.1565
14388TIP3    H164655   3.445   5.798   0.288  0.2796  0.7163  0.1819
14388TIP3    H264656   3.466   5.891   0.170  0.0670 -0.3716 -0.7255
14389TIP3   OH264657   6.431   5.552   3.497 -0.0128  0.3590  0.0427
14389TIP3    H164658   6.492   5.616   3.461  0.7400 -1.0126 -1.2537
14389TIP3    H264659   6.359   5.549   3.435  0.0747 -0.2106 -0.0402
14390TIP3   OH264660   0.709   0.868   1.947  0.1780  0.6458 -0.5438
14390TIP3    H164661   0.684   0.803   2.012 -0.1680  0.9702 -0.3518
14390TIP3    H264662   0.799   0.844   1.923 -0.5963 -1.0940 -1.9378
14391TIP3   OH264663   1.055   2.722  14.476  0.2417  0.2291 -0.5575
14391TIP3    H164664   1.063   2.802  14.425 -0.2317 -0.2512 -1.4244
14391TIP3    H264665   0.968   2.688  14.453  0.8969 -1.1280 -1.1225
14392TIP3   OH264666   3.038   4.382  14.764  1.2545 -0.3705  0.6270
14392TIP3    H164667   3.044   4.343  14.851  0.4933 -0.5955  0.5888
14392TIP3    H264668   2.972   4.329  14.718 -0.2195  1.2412  0.7381
14393TIP3   OH264669   4.459   0.489   4.239  0.2260  0.3074 -0.0058
14393TIP3    H164670   4.387   0.426   4.230  0.1594  0.3464  0.2449
14393TIP3    H264671   4.527   0.456   4.179  0.4422 -0.3643  0.5930
14394TIP3   OH264672   4.901   2.164  17.147  0.0236  0.5707 -0.4302
14394TIP3    H164673   4.863   2.105  17.082  2.0419  0.1397 -1.2772
14394TIP3    H264674   4.945   2.232  17.097  1.3267  0.4254  0.4566
14395TIP3   OH264675   0.483   0.122  14.719  0.5128 -0.1177  0.2424
14395TIP3    H164676   0.392   0.134  14.746  0.2122  1.5219 -1.2559
14395TIP3    H264677   0.527   0.084  14.795 -1.5042 -1.3980  0.8398
14396TIP3   OH264678   5.031   1.426  16.601 -0.1965  0.3202  0.3713
14396TIP3    H164679   5.003   1.338  16.626 -2.7094  0.6285 -1.0427
14396TIP3    H264680   5.080   1.458  16.677 -0.0850 -1.8867  1.3048
14397TIP3   OH264681   4.459   5.884  17.172  0.2526  0.7531  0.2060
14397TIP3    H164682   4.436   5.821  17.104  1.2671  0.8509 -0.2462
14397TIP3    H264683   4.500   5.957  17.125  1.8073  0.4165  0.9756
14398TIP3   OH264684   2.047   5.994   0.084 -0.2570 -0.1551 -0.1347
14398TIP3    H164685   2.052   5.899   0.068  0.8214 -0.0829 -0.3409
14398TIP3    H264686   2.137   6.018   0.108 -0.5681  0.7862  0.1001
14399TIP3   OH264687   1.864   0.922   1.469  0.4448  0.4554  0.0831
14399TIP3    H164688   1.901   0.851   1.521 -1.5439  0.8420  2.1799
14399TIP3    H264689   1.799   0.880   1.413  1.3754  0.2733 -0.8953
14400TIP3   OH264690   3.093   0.067  13.213  0.4738 -0.0815  0.0427
14400TIP3    H164691   3.183   0.099  13.208  1.0078 -1.7073 -1.8067
14400TIP3    H264692   3.088  -0.002  13.147 -1.9142 -0.5993  0.6706
14401TIP3   OH264693   4.896   1.591  13.059 -0.3194  0.1598 -0.3587
14401TIP3    H164694   4.972   1.547  13.097 -1.1688  0.2427  1.5641
14401TIP3    H264695   4.932   1.646  12.990  1.2277 -0.5956 -0.1999
14402TIP3   OH264696   5.842   3.738  12.347  0.8636  0.5587 -0.2175
14402TIP3    H164697   5.835   3.645  12.325  1.4006  0.4288  0.1421
14402TIP3    H264698   5.892   3.740  12.428 -0.3068  1.0874  0.5236
14403TIP3   OH264699   5.883   0.288  16.436  0.2994  0.4318 -0.2704
14403TIP3    H164700   5.879   0.230  16.512 -1.3119 -0.4384 -0.9813
14403TIP3    H264701   5.923   0.368  16.470 -1.9460  0.7459  1.9518
14404TIP3   OH264702   1.036   3.690  17.349  0.8404 -0.4183 -0.2222
14404TIP3    H164703   0.948   3.672  17.315  0.4105 -0.4536  0.8803
14404TIP3    H264704   1.093   3.677  17.273  0.0290 -1.6432 -0.6653
14405TIP3   OH264705   3.413   6.324  12.754 -0.0622 -0.2254  0.0507
14405TIP3    H164706   3.373   6.240  12.779 -1.3894 -0.5630 -2.7831
14405TIP3    H264707   3.463   6.304  12.675  0.2660  1.5156 -0.2185
14406TIP3   OH264708   0.834   0.847  17.029 -0.1512 -0.2121  0.0671
14406TIP3    H164709   0.826   0.824  17.122  2.5284 -1.1283  0.1593
14406TIP3    H264710   0.889   0.777  16.992  0.1216  0.9581 -1.8522
14407TIP3   OH264711   0.979   0.923   4.957  0.2137  0.0657 -0.2017
14407TIP3    H164712   0.979   0.980   4.880  1.6832 -0.4300 -0.5857
14407TIP3    H264713   1.010   0.978   5.028 -1.3542  0.5862  0.1175
14408TIP3   OH264714   4.430   6.267   0.781  0.0300  0.7442  0.1272
14408TIP3    H164715   4.457   6.216   0.705 -1.8022 -1.8228  1.0484
14408TIP3    H264716   4.496   6.246   0.848 -1.6514 -2.1492  1.0767
14409TIP3   OH264717   1.912   3.813   2.697 -0.5454  0.1035 -0.6042
14409TIP3    H164718   1.904   3.789   2.605 -1.1565 -0.3289 -0.4468
14409TIP3    H264719   2.005   3.803   2.717 -0.0819  1.9757 -1.6395
14410TIP3   OH264720   4.678   6.224   2.333 -0.2510 -0.0419 -0.2918
14410TIP3    H164721   4.673   6.317   2.353 -1.6178  0.6390 -3.2042
14410TIP3    H264722   4.715   6.221   2.244  0.6700 -2.3431  0.1038
14411TIP3   OH264723   0.324   0.712   2.759  0.6326 -0.4208  0.1732
14411TIP3    H164724   0.260   0.725   2.689  1.0708  0.1260 -0.1340
14411TIP3    H264725   0.271   0.692   2.836  0.0399  0.6114  0.0599
14412TIP3   OH264726   1.283   5.006   2.483  0.7101  0.2493  0.1199
14412TIP3    H164727   1.232   5.075   2.525 -0.5454  0.7764 -2.1052
14412TIP3    H264728   1.326   4.960   2.555 -5.1857 -2.2359  2.6628
14413TIP3   OH264729   3.830   5.145   3.543  0.1680 -0.0378 -0.3220
14413TIP3    H164730   3.869   5.058   3.534 -1.0945 -0.6400 -0.2215
14413TIP3    H264731   3.813   5.173   3.453 -0.0605 -0.2102 -0.3358
14414TIP3   OH264732   0.527   1.046   3.860 -0.1054 -0.1282 -0.4693
14414TIP3    H164733   0.520   0.970   3.918  2.9201  0.0251  0.2852
14414TIP3    H264734   0.557   1.117   3.916 -1.2936  1.2297 -1.4771
14415TIP3   OH264735   3.547   4.936   2.092  0.3953  0.3758  1.0542
14415TIP3    H164736   3.599   4.998   2.041  1.4302 -0.4072  1.1416
14415TIP3    H264737   3.596   4.925   2.174  1.0942 -1.7748  0.4109
14416TIP3   OH264738   0.069   5.495   5.344 -0.1203 -0.1890  0.7333
14416TIP3    H164739   0.163   5.482   5.352 -0.1937 -0.9127  0.5385
14416TIP3    H264740   0.058   5.542   5.261  0.0834  0.1816  0.9127
14417TIP3   OH264741   6.007   4.152  12.750 -0.2422  0.2945  0.6731
14417TIP3    H164742   5.919   4.126  12.725  0.3075 -0.3977 -0.6409
14417TIP3    H264743   6.038   4.206  12.677  0.7883 -0.3141  0.6453
14418TIP3   OH264744   0.370   2.685   3.184 -0.0671 -0.2538 -0.0413
14418TIP3    H164745   0.320   2.709   3.106 -1.1141 -0.0521  0.6864
14418TIP3    H264746   0.456   2.725   3.170  0.1546 -1.1628 -1.6141
14419TIP3   OH264747   3.621   0.168  10.973 -0.6462  0.2409 -0.4416
14419TIP3    H164748   3.573   0.099  10.926 -0.3174 -1.3084  1.3527
14419TIP3    H264749   3.597   0.249  10.928 -2.9384 -0.7600 -1.1994
14420TIP3   OH264750   4.795   0.250   4.682 -0.3569  0.3099  0.9909
14420TIP3    H164751   4.725   0.285   4.627  1.4258  1.7109 -0.5253
14420TIP3    H264752   4.848   0.327   4.706  1.3503 -0.8132  1.0266
14421TIP3   OH264753   4.440   0.255  15.379  0.1875 -0.4830 -0.2055
14421TIP3    H164754   4.441   0.271  15.285 -2.2751 -0.6188 -0.3141
14421TIP3    H264755   4.347   0.254  15.403  0.7296  2.0364  2.6878
14422TIP3   OH264756   1.932   4.515  16.182  0.1914  0.4288 -0.0321
14422TIP3    H164757   1.870   4.443  16.174  0.4090 -0.0320  1.9232
14422TIP3    H264758   1.882   4.586  16.221  0.7989  0.1220  1.3619
14423TIP3   OH264759   0.416   4.836  17.297  0.6582  0.4090 -0.3868
14423TIP3    H164760   0.462   4.821  17.379 -0.4377  1.5030  0.4696
14423TIP3    H264761   0.341   4.777  17.300  0.7189  0.3182 -0.6772
14424TIP3   OH264762   4.558   2.027  16.101 -0.5999  0.4276 -0.0660
14424TIP3    H164763   4.480   1.975  16.122  0.7791 -1.9945 -0.6378
14424TIP3    H264764   4.596   2.049  16.185 -0.4771 -0.6717  0.1737
14425TIP3   OH264765   0.334   5.201  14.956  0.3796 -0.4586  0.1502
14425TIP3    H164766   0.402   5.195  15.023 -0.9801 -2.6530  1.4591
14425TIP3    H264767   0.321   5.295  14.944  2.6647  0.0131  0.8357
14426TIP3   OH264768   4.383   1.035  13.858 -0.3190  0.0035  0.0320
14426TIP3    H164769   4.322   1.021  13.786  0.2862 -0.3278 -0.4230
14426TIP3    H264770   4.470   1.022  13.819  0.0125 -0.1657  0.8127
14427TIP3   OH264771   3.543   2.436   5.893 -0.7583 -0.5653 -0.0811
14427TIP3    H164772   3.626   2.479   5.916 -0.2247 -1.1164 -0.9490
14427TIP3    H264773   3.549   2.350   5.934 -0.8209 -0.6733 -0.2999
14428TIP3   OH264774   3.189   6.248   4.542  0.1861 -0.2094 -0.1669
14428TIP3    H164775   3.228   6.295   4.615 -0.0235 -1.9229  1.1018
14428TIP3    H264776   3.096   6.239   4.566 -0.6906  2.0999 -2.2333
14429TIP3   OH264777   5.934   2.798  12.172 -0.2821  0.1663  0.4645
14429TIP3    H164778   5.942   2.723  12.231 -1.1638 -0.8153 -0.6245
14429TIP3    H264779   6.023   2.833  12.164  1.0658 -3.3163 -2.2652
14430TIP3   OH264780   2.804   0.981   2.390 -0.0870 -0.5153  0.4643
14430TIP3    H164781   2.815   1.059   2.336 -2.5530  1.8698  3.0627
14430TIP3    H264782   2.876   0.924   2.365  0.8354  1.8070 -2.8287
14431TIP3   OH264783   4.540   4.478  17.014 -0.3385 -0.1480 -0.1511
14431TIP3    H164784   4.473   4.533  16.972  1.1236  1.0719 -0.9849
14431TIP3    H264785   4.597   4.540  17.059 -0.5876 -1.2898  1.8198
14432TIP3   OH264786   2.198   4.811   3.751  0.5608  0.8316  0.0403
14432TIP3    H164787   2.233   4.804   3.662 -0.1787 -0.9928 -0.1444
14432TIP3    H264788   2.153   4.895   3.752  2.2306  1.7957 -0.6636
14433TIP3   OH264789   3.278   2.346   0.532  0.1861  0.0535 -0.5581
14433TIP3    H164790   3.202   2.405   0.524  0.0830  0.0337  0.2016
14433TIP3    H264791   3.247   2.262   0.499 -0.5758 -0.3265  1.0414
14434TIP3   OH264792   5.778   5.217  12.282  0.4051  0.4271  0.6343
14434TIP3    H164793   5.845   5.278  12.252 -0.1412  0.2465 -1.0343
14434TIP3    H264794   5.726   5.268  12.345  0.6188  1.3428  0.0895
14435TIP3   OH264795   3.584   4.302  12.541  0.1623 -0.5727  0.1214
14435TIP3    H164796   3.621   4.385  12.573  3.0708 -1.3214 -0.9269
14435TIP3    H264797   3.560   4.254  12.620 -0.2553  0.7191  0.7924
14436TIP3   OH264798   1.240   0.357   1.673 -0.4354  0.1515  0.1797
14436TIP3    H164799   1.152   0.360   1.634  0.1474  0.8065 -1.1349
14436TIP3    H264800   1.233   0.290   1.741 -1.9580  0.2059  0.1161
14437TIP3   OH264801   4.147   2.869  15.469  0.2302 -0.1988  0.1053
14437TIP3    H164802   4.085   2.799  15.490  1.4730 -1.3042  0.2180
14437TIP3    H264803   4.227   2.845  15.516  0.0574  2.4883  2.0648
14438TIP3   OH264804   2.113   4.951  10.946 -0.1328 -0.8012 -0.1885
14438TIP3    H164805   2.029   4.906  10.955 -2.2775  2.1950 -3.0186
14438TIP3    H264806   2.104   5.031  10.997  0.4060  0.1905 -1.5614
14439TIP3   OH264807   6.514   0.700  14.210 -0.2631  0.3801 -0.0650
14439TIP3    H164808   6.525   0.643  14.286  1.5927 -1.2703 -1.4426
14439TIP3    H264809   6.453   0.653  14.153 -0.4275  0.8421 -0.2771
14440TIP3   OH264810   5.753   6.435   5.625 -0.0992 -0.6231  0.5052
14440TIP3    H164811   5.824   6.377   5.596  1.8122  1.7434  0.0969
14440TIP3    H264812   5.781   6.465   5.712 -1.0603 -0.3165  0.7201
14441TIP3   OH264813   5.210   6.429   0.394 -0.1880  0.2216 -0.0019
14441TIP3    H164814   5.136   6.424   0.334  1.8817 -0.3861 -2.6794
14441TIP3    H264815   5.278   6.476   0.346  1.3278  0.4813  2.2024
14442TIP3   OH264816   4.571   0.474  10.844 -0.0117  0.0067 -0.5303
14442TIP3    H164817   4.585   0.567  10.863 -0.5933  0.2790 -1.3911
14442TIP3    H264818   4.652   0.445  10.803  0.2087  0.1009 -0.1702
14443TIP3   OH264819   3.969   4.974  13.945 -0.9784  0.1225 -0.1140
14443TIP3    H164820   3.996   4.959  13.855 -0.4040 -1.3814  0.2776
14443TIP3    H264821   3.969   5.070  13.955  1.6421  0.2893 -0.9055
14444TIP3   OH264822   4.896   0.429  12.437  0.3214 -0.7182 -0.0878
14444TIP3    H164823   4.801   0.428  12.437  0.2806  0.1292  1.1066
14444TIP3    H264824   4.921   0.394  12.352 -1.0141 -2.7691  0.2927
14445TIP3   OH264825   0.359   5.446   1.202  0.3808  0.2586 -0.3249
14445TIP3    H164826   0.377   5.367   1.253 -1.4667  0.1692  0.2762
14445TIP3    H264827   0.330   5.415   1.117 -0.9264  0.2335  0.1081
14446TIP3   OH264828   4.649   3.052  15.455  0.5123  0.4784  0.2671
14446TIP3    H164829   4.564   3.094  15.442 -0.4313 -1.1272  1.0451
14446TIP3    H264830   4.678   3.082  15.541 -0.3575 -0.7413  1.0079
14447TIP3   OH264831   6.738   1.099  14.687 -0.1660  0.4445  0.2788
14447TIP3    H164832   6.815   1.144  14.722  0.0519  0.3145 -0.0354
14447TIP3    H264833   6.756   1.090  14.593 -1.3626  2.0991 -0.1729
14448TIP3   OH264834   3.651   5.808   2.184 -0.2468  0.5222 -0.4510
14448TIP3    H164835   3.720   5.757   2.227 -0.9062 -0.1127 -0.1060
14448TIP3    H264836   3.643   5.887   2.237  0.1069  0.5303 -0.4047
14449TIP3   OH264837   3.375   0.012  15.418  0.1830  0.0888 -0.3834
14449TIP3    H164838   3.374   0.092  15.364 -0.2208 -0.0319 -0.5583
14449TIP3    H264839   3.283  -0.001  15.441  0.3222 -0.0158  0.1069
14450TIP3   OH264840   1.989   1.508   2.782 -0.5397  0.5231 -0.0028
14450TIP3    H164841   1.960   1.587   2.735 -0.7388 -0.0689 -0.9056
14450TIP3    H264842   1.913   1.482   2.834  0.1042  1.9454  1.7643
14451TIP3   OH264843   2.027   1.464   4.419  0.3688  0.5286 -0.0686
14451TIP3    H164844   2.034   1.512   4.502  0.7233  0.7047 -0.1986
14451TIP3    H264845   1.933   1.460   4.401  0.3842  2.0511 -0.5725
14452TIP3   OH264846   6.617   3.901  15.589  0.0761 -0.3234 -0.4020
14452TIP3    H164847   6.693   3.879  15.535  0.8480  0.9510  0.1148
14452TIP3    H264848   6.653   3.910  15.677 -0.9005 -0.8494  0.0554
14453TIP3   OH264849   2.972   2.546  13.724  0.1884  0.0329  0.3819
14453TIP3    H164850   3.040   2.611  13.743 -0.5189  0.6497  0.8575
14453TIP3    H264851   2.890   2.594  13.731 -0.6019 -1.5100  3.7459
14454TIP3   OH264852   5.060   0.561   0.488  0.8889  0.1947  0.3637
14454TIP3    H164853   5.054   0.624   0.560  0.0009  0.5377  0.0032
14454TIP3    H264854   5.089   0.479   0.529 -0.2197  0.2158  1.2121
14455TIP3   OH264855   4.971   1.456   0.003  0.1202  0.5886  0.1842
14455TIP3    H164856   4.973   1.531  -0.056 -1.2767 -0.0333 -0.6891
14455TIP3    H264857   4.887   1.464   0.048 -0.0209 -0.4358  0.1070
14456TIP3   OH264858   2.744   5.410   3.244 -0.0692  0.8096  0.3046
14456TIP3    H164859   2.822   5.399   3.189 -0.1754 -0.3116  0.3422
14456TIP3    H264860   2.753   5.497   3.282  1.3736  0.5520  0.6172
14457TIP3   OH264861   2.472   2.309  14.530  0.1396 -0.7491 -0.5161
14457TIP3    H164862   2.527   2.281  14.457  1.2596 -0.5420  0.2254
14457TIP3    H264863   2.533   2.323  14.603 -0.8198  0.0647  0.1704
14458TIP3   OH264864   0.946   2.444   5.241 -0.1811  0.3461 -0.1230
14458TIP3    H164865   0.934   2.351   5.256 -1.3385  0.5585  0.4058
14458TIP3    H264866   0.975   2.451   5.150  1.2247 -0.6075  0.2286
14459TIP3   OH264867   3.253   4.956  13.812 -0.5912  0.0457 -0.2902
14459TIP3    H164868   3.260   5.045  13.847 -1.2900  0.2352 -0.6092
14459TIP3    H264869   3.205   4.908  13.879  1.9798 -0.7958  1.0888
14460TIP3   OH264870   5.875   3.338   6.010 -0.0894 -0.3052  0.4224
14460TIP3    H164871   5.880   3.301   5.922 -2.2455 -0.3142  0.2311
14460TIP3    H264872   5.822   3.274   6.059 -0.9245  0.8283  1.0460
14461TIP3   OH264873   5.271   6.679   5.555  0.3748  0.9172  0.1471
14461TIP3    H164874   5.240   6.751   5.609  1.0678  0.4678  1.1829
14461TIP3    H264875   5.326   6.627   5.614  1.9739  0.9484 -1.2281
14462TIP3   OH264876   4.725   5.473   5.430  0.4201 -0.1568  0.8913
14462TIP3    H164877   4.765   5.554   5.399 -0.7346  0.5079  1.0795
14462TIP3    H264878   4.771   5.404   5.383  0.0628  0.7141 -0.8093
14463TIP3   OH264879   3.649   3.286   2.648 -0.3047  0.1241  0.1272
14463TIP3    H164880   3.571   3.332   2.616  1.2630  2.1365 -1.0609
14463TIP3    H264881   3.691   3.252   2.569  0.4556 -0.2207  0.6687
14464TIP3   OH264882   2.869   3.142  12.495 -1.0513 -0.1611 -0.5872
14464TIP3    H164883   2.907   3.156  12.408  0.6525  1.8723  0.3937
14464TIP3    H264884   2.827   3.056  12.489  1.3214 -1.3215 -2.6487
14465TIP3   OH264885   1.156   2.932   3.801 -0.0081 -0.0868  0.2364
14465TIP3    H164886   1.216   3.003   3.824  0.4291  0.9736 -3.4388
14465TIP3    H264887   1.084   2.975   3.755 -1.8934 -1.6988  1.5315
14466TIP3   OH264888   3.301   0.542  14.937 -0.2356 -0.1884  0.6644
14466TIP3    H164889   3.209   0.518  14.946 -0.1716 -0.4918  0.5112
14466TIP3    H264890   3.301   0.638  14.941 -0.4405 -0.2170  1.8405
14467TIP3   OH264891   5.821   0.374  12.149  0.2922 -0.6569 -0.3198
14467TIP3    H164892   5.820   0.388  12.054 -1.9829  1.3397 -0.0867
14467TIP3    H264893   5.795   0.458  12.186 -1.0339 -1.9636  1.9713
14468TIP3   OH264894   1.933   6.752  16.192 -0.3245  0.0698 -0.4532
14468TIP3    H164895   1.877   6.674  16.195 -2.3413  1.4679 -0.5088
14468TIP3    H264896   1.991   6.742  16.268  0.1703 -1.9554 -1.0334
14469TIP3   OH264897   0.225   4.109   2.636 -0.5394  0.1606 -0.0101
14469TIP3    H164898   0.296   4.136   2.694 -0.3551 -0.0397 -0.1437
14469TIP3    H264899   0.211   4.184   2.578  0.2594 -0.1790 -0.6613
14470TIP3   OH264900   3.232   5.131   0.564  0.2156 -0.0664  0.5367
14470TIP3    H164901   3.182   5.160   0.640  1.9075  0.8759  1.3541
14470TIP3    H264902   3.269   5.212   0.527 -1.1554 -0.3995 -1.7653
14471TIP3   OH264903   5.622   4.979  14.042 -0.2532  0.0643 -0.2659
14471TIP3    H164904   5.530   4.984  14.070  0.1290  1.8984  0.8474
14471TIP3    H264905   5.633   5.053  13.983  0.5359 -0.0376 -0.2589
14472TIP3   OH264906   3.275   6.726   0.799 -0.9020  0.1742 -0.2475
14472TIP3    H164907   3.252   6.634   0.812 -0.3655  0.3335  2.7773
14472TIP3    H264908   3.196   6.774   0.825 -0.2565  0.5431  1.1864
14473TIP3   OH264909   0.453   5.534   3.843  0.3508  0.0804  0.1668
14473TIP3    H164910   0.472   5.508   3.933  0.5156 -0.0383  0.0964
14473TIP3    H264911   0.379   5.595   3.851  2.0519  2.1743  0.6435
14474TIP3   OH264912   2.214   5.744  16.996 -0.3531  0.3182  0.3371
14474TIP3    H164913   2.278   5.801  16.954  1.0889  0.0818  2.1107
14474TIP3    H264914   2.218   5.662  16.946 -0.4630  0.8227 -0.5292
14475TIP3   OH264915   5.316   5.749  12.920  0.9160  0.4400 -0.6498
14475TIP3    H164916   5.375   5.817  12.952  1.0000  0.1179 -0.1051
14475TIP3    H264917   5.373   5.689  12.870  0.7807  0.9549 -1.4403
14476TIP3   OH264918   6.552   4.537   0.591  0.3019 -0.3288  0.8335
14476TIP3    H164919   6.537   4.453   0.548  2.0223 -0.2057 -0.1035
14476TIP3    H264920   6.646   4.551   0.584  0.2496  1.0204  2.2462
14477TIP3   OH264921   3.596   3.809  10.818 -0.3686  0.1172 -0.4964
14477TIP3    H164922   3.689   3.785  10.812 -0.1263  1.1203 -1.0450
14477TIP3    H264923   3.589   3.854  10.903 -0.2593  0.3952 -0.6324
14478TIP3   OH264924   5.370   6.271  15.268  0.2422 -0.0728  0.4527
14478TIP3    H164925   5.287   6.311  15.296 -0.9753 -1.2518 -1.2172
14478TIP3    H264926   5.404   6.332  15.203 -0.7470 -0.8497 -0.8465
14479TIP3   OH264927   6.231   4.430  14.994 -0.4430 -0.2270  0.4266
14479TIP3    H164928   6.306   4.482  15.023 -0.6674 -0.6975  1.9540
14479TIP3    H264929   6.169   4.494  14.959  1.0655  0.0840 -1.9162
14480TIP3   OH264930   3.004   4.809  13.913  0.0408 -0.0806 -0.2783
14480TIP3    H164931   2.993   4.836  14.004 -3.5057 -1.6216 -0.0807
14480TIP3    H264932   2.951   4.871  13.863  0.3261 -0.4723 -1.0874
14481TIP3   OH264933   0.442   2.560   1.119 -0.4008 -0.3863  0.5608
14481TIP3    H164934   0.477   2.628   1.177  0.5242  0.8761 -1.3742
14481TIP3    H264935   0.367   2.601   1.077  0.4123 -0.3616 -0.9370
14482TIP3   OH264936   3.944   3.851   0.530  0.0276 -0.1047 -0.1639
14482TIP3    H164937   3.883   3.778   0.533  0.8002 -0.7324  1.1657
14482TIP3    H264938   3.890   3.928   0.547 -0.7688 -0.3470 -1.4307
14483TIP3   OH264939   2.414   6.490  14.538 -0.2982 -0.1874 -0.4232
14483TIP3    H164940   2.405   6.582  14.516  0.2959  0.8050  2.8446
14483TIP3    H264941   2.499   6.464  14.501 -1.4841 -0.2053 -3.3573
14484TIP3   OH264942   5.954   5.924  17.226  0.3060  0.1716 -0.2010
14484TIP3    H164943   5.993   5.890  17.307  0.8412  2.3682  0.5458
14484TIP3    H264944   6.000   5.879  17.156  2.1518  0.5284  0.7129
14485TIP3   OH264945   5.297   1.471   5.786 -0.1611  0.6767 -0.0349
14485TIP3    H164946   5.278   1.545   5.844  2.3889  0.8712  0.6666
14485TIP3    H264947   5.291   1.509   5.698 -2.4981  0.7600  0.0985
14486TIP3   OH264948   4.631   4.175  12.342  0.4166 -0.9356 -0.5735
14486TIP3    H164949   4.625   4.155  12.249  1.5148 -1.1066 -0.6162
14486TIP3    H264950   4.712   4.135  12.371  0.2106 -0.6814  0.4146
14487TIP3   OH264951   3.554   4.466   2.426  0.7467 -0.7064 -0.7942
14487TIP3    H164952   3.595   4.523   2.491  0.4948 -0.3520 -0.9437
14487TIP3    H264953   3.579   4.377   2.453  1.7345 -0.4909 -0.9720
14488TIP3   OH264954   6.263   2.871   0.013  0.0873  0.0644 -0.3492
14488TIP3    H164955   6.330   2.909  -0.044  1.0246  0.9159  1.2414
14488TIP3    H264956   6.185   2.864  -0.042  1.5072 -1.1737 -2.3236
14489TIP3   OH264957   2.617   3.624   2.449 -0.0388  0.7812 -0.9566
14489TIP3    H164958   2.533   3.581   2.433 -0.3006  0.0955  1.8464
14489TIP3    H264959   2.597   3.718   2.441 -1.2528  0.6569  0.2974
14490TIP3   OH264960   4.150   2.273  15.776 -0.0157 -0.2334  0.2170
14490TIP3    H164961   4.245   2.274  15.791  0.2497 -0.8811 -1.2071
14490TIP3    H264962   4.130   2.361  15.746  0.0424  0.0484  0.9833
14491TIP3   OH264963   4.535   5.314   2.488  0.0018 -0.1304  0.0330
14491TIP3    H164964   4.456   5.328   2.436  0.6173 -0.8894 -1.1501
14491TIP3    H264965   4.600   5.371   2.448  0.3840 -0.4179  0.2368
14492TIP3   OH264966   4.913   4.914   0.980  0.1516 -0.0747  0.4095
14492TIP3    H164967   4.832   4.873   1.011 -0.1238  0.4802  0.4316
14492TIP3    H264968   4.948   4.960   1.057 -0.0925  0.6067  0.1205
14493TIP3   OH264969   5.126   1.751  11.798  0.2863 -0.7052 -0.5068
14493TIP3    H164970   5.130   1.842  11.766  0.5151  0.3650  2.2996
14493TIP3    H264971   5.033   1.730  11.798  0.3022 -0.9608 -2.2689
14494TIP3   OH264972   4.790   0.889   0.886 -0.3971  0.2866  0.1698
14494TIP3    H164973   4.731   0.854   0.818  1.1770  1.0302 -1.6770
14494TIP3    H264974   4.840   0.812   0.915 -0.7330  0.0399  0.1040
14495TIP3   OH264975   0.473   1.569   2.748  0.0055  0.0649  0.1276
14495TIP3    H164976   0.458   1.644   2.806  1.5936  0.4789  0.0562
14495TIP3    H264977   0.483   1.495   2.807 -2.0853 -0.2289  0.1774
14496TIP3   OH264978   3.430   5.676  13.708 -0.2711  0.6215  0.0575
14496TIP3    H164979   3.356   5.736  13.718  0.1721  0.9799  1.3666
14496TIP3    H264980   3.472   5.675  13.794  1.6347  0.9216 -0.8136
14497TIP3   OH264981   1.210   4.991   6.220  0.0671  0.6314  0.1201
14497TIP3    H164982   1.178   4.924   6.280 -0.3422  0.6806 -0.0449
14497TIP3    H264983   1.295   5.018   6.257  0.9384 -1.0032 -0.5752
14498TIP3   OH264984   4.926   3.440  12.129  0.1963  0.4983  1.0969
14498TIP3    H164985   4.835   3.462  12.108  0.6590  2.8151  1.2302
14498TIP3    H264986   4.964   3.522  12.160  3.0219  0.2681 -1.2841
14499TIP3   OH264987   3.684   3.876  17.465 -0.0826  0.1809 -0.1864
14499TIP3    H164988   3.609   3.935  17.465 -0.4085 -0.1647 -2.0080
14499TIP3    H264989   3.685   3.839  17.376  1.6716 -0.5488  0.0997
14500TIP3   OH264990   0.945   1.064  13.037  0.5985  0.8381 -0.2379
14500TIP3    H164991   1.033   1.027  13.047  0.7204  0.5967 -1.8728
14500TIP3    H264992   0.898   1.037  13.115  1.5391 -0.3240 -0.0490
14501TIP3   OH264993   1.001   6.411   1.414  0.3785  0.5397 -0.3078
14501TIP3    H164994   1.003   6.316   1.401  1.2079  0.7771 -2.2970
14501TIP3    H264995   1.072   6.428   1.476 -0.9428 -0.2711  1.5029
14502TIP3   OH264996   6.244   6.029   4.484 -0.3873  0.5519 -0.6975
14502TIP3    H164997   6.172   5.971   4.460  0.6538 -0.4491 -1.4812
14502TIP3    H264998   6.209   6.117   4.467 -1.3679  0.0838 -1.2349
14503TIP3   OH264999   3.352   2.253  11.198 -0.7817  0.5838  0.5722
14503TIP3    H165000   3.295   2.188  11.238  0.3713 -0.6529  0.2840
14503TIP3    H265001   3.308   2.279  11.118 -1.3130  0.2591  0.7563
14504TIP3   OH265002   5.522   0.104   5.674  0.0631 -0.3767 -0.0997
14504TIP3    H165003   5.526   0.009   5.664 -0.5846 -0.2566 -1.7185
14504TIP3    H265004   5.588   0.138   5.614 -1.2241  0.2624 -1.1926
14505TIP3   OH265005   0.699   4.893   1.273 -0.2244  0.5654  0.0022
14505TIP3    H165006   0.716   4.958   1.205  0.0967  0.4515 -0.0309
14505TIP3    H265007   0.766   4.909   1.339  0.2966 -0.1655 -0.3322
14506TIP3   OH265008   4.351   4.621  15.883  0.0176 -0.2067 -0.3269
14506TIP3    H165009   4.258   4.638  15.870  0.2103  0.0089 -1.5492
14506TIP3    H265010   4.374   4.670  15.962 -1.2588 -1.6337  0.9827
14507TIP3   OH265011   1.647   6.363  14.860 -0.0903  0.1749  0.0446
14507TIP3    H165012   1.582   6.422  14.821 -1.0629 -0.9454 -0.0765
14507TIP3    H265013   1.634   6.372  14.955  0.4246  0.8662  0.0564
14508TIP3   OH265014   1.763   6.492  12.680 -0.8870 -0.3142 -0.2056
14508TIP3    H165015   1.720   6.446  12.608 -0.8651  0.2735 -0.6036
14508TIP3    H265016   1.757   6.432  12.754 -1.9646 -0.4347 -0.3793
14509TIP3   OH265017   0.506   1.512   0.879 -0.0871  0.1523  0.8658
14509TIP3    H165018   0.575   1.560   0.923 -0.2675  1.0976  0.1425
14509TIP3    H265019   0.526   1.520   0.786  1.0770 -2.9691  0.7319
14510TIP3   OH265020   5.395   4.366  12.562 -0.3224 -0.1076  0.3086
14510TIP3    H165021   5.442   4.428  12.619 -0.3641 -0.4183  0.6858
14510TIP3    H265022   5.314   4.410  12.540 -0.0220  0.2813 -0.0378
14511TIP3   OH265023   4.787   2.167   5.175  0.2531 -0.0535 -0.3044
14511TIP3    H165024   4.869   2.152   5.128  1.3458 -0.6180  1.6666
14511TIP3    H265025   4.760   2.080   5.205  0.6344  0.4920  1.7311
14512TIP3   OH265026   2.846   0.796   0.585  0.4188 -0.0231 -0.5410
14512TIP3    H165027   2.925   0.771   0.633  0.5206  0.8672 -0.2195
14512TIP3    H265028   2.879   0.834   0.504  0.5603  3.4308  0.9661
14513TIP3   OH265029   0.869   0.283  14.366  0.6002  0.4965 -0.0464
14513TIP3    H165030   0.884   0.369  14.326  0.6418  1.2585  1.5292
14513TIP3    H265031   0.848   0.302  14.457  1.5943 -1.2301  0.5976
14514TIP3   OH265032   0.156   6.021  11.421  0.6322  0.1420 -0.2171
14514TIP3    H165033   0.242   5.996  11.453 -1.0180 -3.3645  2.1226
14514TIP3    H265034   0.149   5.979  11.335  1.0654  0.0556 -0.2114
14515TIP3   OH265035   3.880   4.614  13.579  0.7492  0.5057  0.0392
14515TIP3    H165036   3.808   4.657  13.626  0.6412 -0.0813  0.4301
14515TIP3    H265037   3.945   4.597  13.647  0.7516 -0.0140 -0.0909
14516TIP3   OH265038   4.462   5.407  15.469 -0.4475  0.5349 -0.6411
14516TIP3    H165039   4.449   5.417  15.563  2.6122  0.6007 -0.1471
14516TIP3    H265040   4.439   5.316  15.451 -1.3051  0.5900  0.0993
14517TIP3   OH265041   2.930   6.117   2.537 -0.3484 -0.1045  0.0256
14517TIP3    H165042   2.989   6.043   2.552 -1.2337 -1.1183 -1.2108
14517TIP3    H265043   2.983   6.194   2.555  1.5108 -0.9618 -1.4551
14518TIP3   OH265044   3.350   1.903  16.511  0.7746 -0.2116 -0.0829
14518TIP3    H165045   3.336   1.995  16.486 -0.9200 -0.9299 -2.0488
14518TIP3    H265046   3.422   1.874  16.456  0.1843 -0.4967 -0.7218
14519TIP3   OH265047   1.258   0.476   4.793  0.0286 -0.0577 -0.2010
14519TIP3    H165048   1.168   0.456   4.768  0.2680 -1.9436  0.3120
14519TIP3    H265049   1.299   0.391   4.805  1.3632  0.7539  1.4229
14520TIP3   OH265050   6.304   3.821  17.446  0.5177  0.5843  0.4149
14520TIP3    H165051   6.282   3.861  17.362  2.0146  1.2909  0.3332
14520TIP3    H265052   6.273   3.731  17.438 -1.6582  1.2851  0.0825
14521TIP3   OH265053   5.298   4.244   2.744 -0.3515 -0.0050 -0.2211
14521TIP3    H165054   5.325   4.294   2.822  1.7743 -0.8389 -0.3863
14521TIP3    H265055   5.330   4.156   2.760 -0.3411 -0.3133 -1.8278
14522TIP3   OH265056   5.699   1.198   5.894  0.0192  0.2043  0.2117
14522TIP3    H165057   5.675   1.119   5.943  0.9983  0.0564  0.4788
14522TIP3    H265058   5.793   1.209   5.911 -0.4843  2.6267  1.8847
14523TIP3   OH265059   6.403   3.809  16.339 -0.7076  0.4000  0.0182
14523TIP3    H165060   6.455   3.778  16.264  0.4328 -0.0694  0.9634
14523TIP3    H265061   6.427   3.901  16.347  0.0374  0.1815  0.4623
14524TIP3   OH265062   2.560   1.307  11.327 -0.3570  0.1210 -0.3101
14524TIP3    H165063   2.498   1.258  11.381  1.3967 -0.8487  0.9215
14524TIP3    H265064   2.601   1.240  11.271  1.4748  0.2273  0.8135
14525TIP3   OH265065   0.772   3.263  12.749 -0.3737  0.1820  0.0142
14525TIP3    H165066   0.815   3.349  12.751  1.2998 -0.5772 -0.8054
14525TIP3    H265067   0.745   3.253  12.658  0.7736 -0.7351 -0.2546
14526TIP3   OH265068   2.156   3.958   0.300 -0.5271 -0.3060  0.0977
14526TIP3    H165069   2.131   3.870   0.329  0.7443 -0.1185  1.9798
14526TIP3    H265070   2.226   3.942   0.237 -0.7102 -0.6638 -0.0200
14527TIP3   OH265071   1.688   3.063   1.827  0.0249  0.3425 -0.1447
14527TIP3    H165072   1.676   3.075   1.921  1.2207 -0.1637  0.0879
14527TIP3    H265073   1.686   3.152   1.791 -1.3719  0.4785  0.2159
14528TIP3   OH265074   6.638   1.657   4.052 -0.2865 -0.6884 -0.3890
14528TIP3    H165075   6.569   1.706   4.097  1.0437 -0.1933  1.2339
14528TIP3    H265076   6.678   1.720   3.992 -0.6175 -0.6970 -0.6188
14529TIP3   OH265077   4.498   0.244  16.417  0.2266 -0.5278 -0.1661
14529TIP3    H165078   4.512   0.308  16.347 -0.6189  0.2704  0.3573
14529TIP3    H265079   4.549   0.277  16.491  1.9545 -1.9200 -0.6811
14530TIP3   OH265080   2.762   4.129  17.330  0.0621 -0.2842 -0.3667
14530TIP3    H165081   2.849   4.090  17.333  0.0637 -0.2380  0.1608
14530TIP3    H265082   2.713   4.073  17.269  1.0199  0.8258 -2.2750
14531TIP3   OH265083   1.686   4.242   0.408  0.2402  0.5563 -0.4901
14531TIP3    H165084   1.727   4.190   0.339  1.6021  2.4136 -1.1339
14531TIP3    H265085   1.732   4.325   0.407  1.0967  0.3247  3.4053
14532TIP3   OH265086   6.184   3.140  11.964  0.0039 -0.4280  0.0917
14532TIP3    H165087   6.162   3.079  11.894 -0.8793 -0.7092  0.5869
14532TIP3    H265088   6.275   3.163  11.949 -0.1956 -0.4044 -1.2028
14533TIP3   OH265089   6.498   3.324   1.017 -0.4683 -0.0573  0.1058
14533TIP3    H165090   6.445   3.403   1.011 -1.2599 -0.5182  0.8247
14533TIP3    H265091   6.464   3.267   0.947 -0.1200  0.1054 -0.1982
14534TIP3   OH265092   6.174   6.441   4.185 -0.1706  0.2260 -0.2572
14534TIP3    H165093   6.265   6.411   4.186  0.4265  1.9161  0.6656
14534TIP3    H265094   6.122   6.361   4.178  1.3927 -0.7328 -1.4767
14535TIP3   OH265095   2.508   0.587  17.441 -0.4646  0.1051 -0.3010
14535TIP3    H165096   2.498   0.672  17.484 -1.4717  0.2053 -0.7025
14535TIP3    H265097   2.525   0.526  17.513 -1.4600  0.3802  0.1915
14536TIP3   OH265098   2.636   2.312  13.063 -0.3311 -0.3673  0.1934
14536TIP3    H165099   2.687   2.389  13.038 -0.9220 -0.5725 -1.8057
14536TIP3    H265100   2.563   2.310  13.001 -0.0048 -2.8655 -0.2293
14537TIP3   OH265101   1.326   6.203  10.761 -0.4777 -0.4149 -0.3557
14537TIP3    H165102   1.392   6.253  10.712  0.3898  0.7176  1.8699
14537TIP3    H265103   1.356   6.112  10.754  1.8863  0.1628  1.3333
14538TIP3   OH265104   6.550   1.630  14.714  0.3327 -0.5267  0.2608
14538TIP3    H165105   6.457   1.609  14.719  0.5572 -1.6923 -0.0457
14538TIP3    H265106   6.584   1.573  14.644  1.0319  0.8338 -0.5472
14539TIP3   OH265107   3.242   1.081   3.586  0.0233  0.1039  0.5631
14539TIP3    H165108   3.230   1.013   3.653 -0.6258 -2.5103 -2.0128
14539TIP3    H265109   3.174   1.146   3.605  0.4129 -0.0816  2.8887
14540TIP3   OH265110   5.798   5.126   6.108  0.2040  0.6183 -0.4398
14540TIP3    H165111   5.822   5.074   6.184 -0.7625 -0.7173 -1.0118
14540TIP3    H265112   5.725   5.079   6.069 -0.5642  2.3099 -1.1144
14541TIP3   OH265113   5.393   3.475   0.151 -0.1216 -0.0519  0.1919
14541TIP3    H165114   5.411   3.512   0.237 -2.6925  1.2924  0.2608
14541TIP3    H265115   5.308   3.432   0.161  0.5269 -1.7530 -1.1600
14542TIP3   OH265116   2.086   2.572   6.278  0.1444  0.6912  0.1493
14542TIP3    H165117   2.081   2.645   6.216  2.8193  2.4263  1.7887
14542TIP3    H265118   2.048   2.606   6.359  2.5396  0.8206  1.3029
14543TIP3   OH265119   4.774   0.139  16.151  0.0605  0.3783  0.0680
14543TIP3    H165120   4.719   0.216  16.138  1.0195  1.0953  0.1280
14543TIP3    H265121   4.726   0.068  16.108 -2.1446  0.3861  2.2493
14544TIP3   OH265122   2.163   5.556   3.716 -0.0769  0.3442 -0.2057
14544TIP3    H165123   2.132   5.630   3.768 -0.6626 -0.0084 -0.0459
14544TIP3    H265124   2.258   5.567   3.714 -0.0824  0.6224  0.5471
14545TIP3   OH265125   2.534   3.414  16.575 -0.1982  0.2560  0.0375
14545TIP3    H165126   2.603   3.353  16.551 -0.1909  1.1330 -2.4403
14545TIP3    H265127   2.550   3.492  16.522 -2.2550  1.0556  0.4538
14546TIP3   OH265128   2.226   1.700   0.097 -0.1751 -0.2793 -0.2706
14546TIP3    H165129   2.218   1.712   0.192  0.2470  0.9070 -0.3734
14546TIP3    H265130   2.314   1.729   0.076 -0.6205  0.4823 -1.1792
14547TIP3   OH265131   4.477   1.384  16.308  0.4433  0.4389  0.4220
14547TIP3    H165132   4.422   1.462  16.303  0.7516  0.6071 -0.5671
14547TIP3    H265133   4.433   1.320  16.252  1.1881  0.5462 -0.3029
14548TIP3   OH265134   6.503   1.646   2.688 -0.0498  0.3695 -0.5695
14548TIP3    H165135   6.495   1.663   2.782  1.9483  1.0805 -0.4771
14548TIP3    H265136   6.476   1.727   2.646  2.0242  1.1885 -0.4373
14549TIP3   OH265137   2.087   4.997  16.635  0.4465 -0.2502  0.1296
14549TIP3    H165138   2.116   5.043  16.556 -2.0127  0.4183 -0.4566
14549TIP3    H265139   2.057   4.912  16.603 -0.8376  0.1331  0.2562
14550TIP3   OH265140   5.526   4.488  10.706  0.2937 -0.1347  0.6101
14550TIP3    H165141   5.436   4.468  10.733 -0.2140  1.3323  0.1315
14550TIP3    H265142   5.564   4.403  10.684 -1.4847 -0.6639 -0.6625
14551TIP3   OH265143   5.254   2.167  14.071 -0.5588 -0.0910 -0.0270
14551TIP3    H165144   5.189   2.100  14.095  0.2296 -1.7599 -2.2275
14551TIP3    H265145   5.319   2.119  14.019  0.2506  2.3373 -1.3798
14552TIP3   OH265146   3.090   4.062   5.678 -0.2652  0.1713  0.2446
14552TIP3    H165147   3.079   4.037   5.587  0.9091 -0.8385  0.3547
14552TIP3    H265148   3.001   4.063   5.714 -0.5408 -3.2048  0.0161
14553TIP3   OH265149   6.441   2.826   0.505  0.0361 -0.1012  0.2640
14553TIP3    H165150   6.398   2.810   0.421  0.2990  1.0371 -0.1047
14553TIP3    H265151   6.530   2.790   0.494 -0.0419 -0.2727  0.1863
14554TIP3   OH265152   2.216   3.406   1.022  0.1789 -0.3239 -0.0732
14554TIP3    H165153   2.231   3.342   0.952 -2.9980  0.5231 -1.7406
14554TIP3    H265154   2.167   3.358   1.088 -0.4129 -0.1436 -0.3735
14555TIP3   OH265155   3.010   1.991   0.659  0.1706  0.1694  0.1778
14555TIP3    H165156   2.955   2.015   0.734  0.3340 -1.8614  1.0166
14555TIP3    H265157   3.094   2.033   0.676  0.1357 -0.0922  1.0097
14556TIP3   OH265158   4.470   6.266   6.560 -0.0586  0.0981 -0.4151
14556TIP3    H165159   4.447   6.335   6.622  1.2497  0.7648 -0.6218
14556TIP3    H265160   4.497   6.193   6.615  0.5975  0.5080 -0.1729
14557TIP3   OH265161   3.304   2.057   2.260  0.4743  0.0019  0.1228
14557TIP3    H165162   3.261   2.092   2.338  1.8754  2.3467 -0.0837
14557TIP3    H265163   3.317   1.964   2.279 -0.0071  0.3337  2.2962
14558TIP3   OH265164   0.561   6.352  12.156 -0.4693 -0.6482  0.3679
14558TIP3    H165165   0.537   6.265  12.190  1.1246 -0.5801  1.7632
14558TIP3    H265166   0.654   6.346  12.137  0.0092  1.1778  1.8988
14559TIP3   OH265167   1.301   2.805   2.985  0.4118  0.3197 -0.0884
14559TIP3    H165168   1.258   2.888   2.964  0.2398  1.0034  2.6117
14559TIP3    H265169   1.371   2.829   3.046  1.0724 -1.3933 -0.1307
14560TIP3   OH265170   1.720   4.526   0.299 -0.4582 -0.4778  0.5979
14560TIP3    H165171   1.629   4.552   0.286 -0.0292  0.5936 -0.6115
14560TIP3    H265172   1.770   4.591   0.249  1.1029  0.1937  2.8667
14561TIP3   OH265173   4.809   1.340   1.662 -0.5172 -0.5554 -0.2350
14561TIP3    H165174   4.799   1.258   1.613 -1.3388  1.6182 -4.1038
14561TIP3    H265175   4.720   1.362   1.689 -0.1600 -1.3685  1.7283
14562TIP3   OH265176   2.153   0.057   6.191 -0.1223  0.5559 -0.2487
14562TIP3    H165177   2.182   0.147   6.208  1.7756 -0.3097  1.5276
14562TIP3    H265178   2.165   0.012   6.274  1.2281 -1.9055 -1.6786
14563TIP3   OH265179   6.227   1.636  15.641  0.3638  0.1041 -0.3792
14563TIP3    H165180   6.263   1.724  15.651 -1.0092  0.7391 -0.8258
14563TIP3    H265181   6.205   1.608  15.730  2.6278 -0.6310  0.0125
14564TIP3   OH265182   1.636   4.555   0.591  0.3946  0.3015 -0.5112
14564TIP3    H165183   1.699   4.604   0.645  1.6271  0.0078 -1.6375
14564TIP3    H265184   1.658   4.580   0.501 -0.7646 -0.2284 -0.9501
14565TIP3   OH265185   4.302   5.956  14.428 -0.2841  0.0765  0.0686
14565TIP3    H165186   4.216   5.997  14.437 -0.5959 -0.1377 -1.5958
14565TIP3    H265187   4.364   6.029  14.434 -0.5913  0.2872  0.8346
14566TIP3   OH265188   6.759   6.389   4.026 -0.9280 -0.9970  0.3627
14566TIP3    H165189   6.672   6.423   4.004 -1.0614 -0.9055  0.9972
14566TIP3    H265190   6.819   6.457   3.995 -1.0953 -0.9526  0.1304
14567TIP3   OH265191   1.392   0.371   6.353  1.1614  0.0380 -0.7766
14567TIP3    H165192   1.372   0.464   6.364  0.0630 -0.2341 -0.3945
14567TIP3    H265193   1.373   0.354   6.261 -1.4085 -0.4151 -0.2477
14568TIP3   OH265194   4.227   2.243  15.428 -0.7129  0.3688  0.9458
14568TIP3    H165195   4.311   2.265  15.388 -1.3782 -0.7355 -1.2271
14568TIP3    H265196   4.237   2.151  15.454 -1.5895 -0.1216 -0.3837
14569TIP3   OH265197   5.746   1.444   1.568 -0.2579  0.5979 -0.0971
14569TIP3    H165198   5.721   1.362   1.525  0.0021  0.4144  0.0980
14569TIP3    H265199   5.668   1.499   1.563 -0.3501  0.4354 -0.4662
14570TIP3   OH265200   3.736   2.669   4.697 -0.2597 -0.3491  0.1579
14570TIP3    H165201   3.686   2.683   4.777 -1.5262  1.6770 -0.9135
14570TIP3    H265202   3.718   2.579   4.673 -0.7464 -0.6511  1.5395
14571TIP3   OH265203   4.137   3.809  16.176  0.2704  0.0695  0.4165
14571TIP3    H165204   4.202   3.765  16.232  1.8820  1.2302 -0.4776
14571TIP3    H265205   4.181   3.820  16.092 -0.9692  1.2488 -0.1068
14572TIP3   OH265206   6.204   4.903  13.075  0.5031  0.2442 -0.1948
14572TIP3    H165207   6.283   4.849  13.084 -0.2508 -1.0768 -1.2895
14572TIP3    H265208   6.194   4.944  13.161  0.5452 -2.1361  1.0143
14573TIP3   OH265209   4.690   5.086  12.883 -0.3294 -0.3605 -0.4130
14573TIP3    H165210   4.778   5.108  12.853  0.6677  1.1423  3.1728
14573TIP3    H265211   4.701   5.008  12.937 -1.7182 -1.7117 -1.9366
14574TIP3   OH265212   6.755   0.701   0.533  0.5167  0.0964  0.0908
14574TIP3    H165213   6.685   0.762   0.511  1.1139  0.6020 -0.4533
14574TIP3    H265214   6.819   0.710   0.462  0.5797 -1.2390 -0.0609
14575TIP3   OH265215   4.327   3.239  11.842  0.4208 -0.4936  0.1902
14575TIP3    H165216   4.296   3.292  11.768  2.3131 -1.2053 -1.1963
14575TIP3    H265217   4.386   3.175  11.803  1.1835 -1.1687  2.2908
14576TIP3   OH265218   4.841   6.561  13.979  0.1128  0.5885 -0.2079
14576TIP3    H165219   4.760   6.538  13.932  0.6047  0.1488 -0.8630
14576TIP3    H265220   4.876   6.477  14.009  0.4323  0.7569 -0.1060
14577TIP3   OH265221   0.942   5.305   1.445  0.3564 -0.4225 -0.2310
14577TIP3    H165222   0.986   5.225   1.475 -0.8688 -0.8366  0.5927
14577TIP3    H265223   0.944   5.363   1.521 -1.0157 -0.6987  0.0481
14578TIP3   OH265224   0.196   6.358  14.671  0.1478 -0.4276 -0.3290
14578TIP3    H165225   0.144   6.427  14.629 -0.3986 -1.1496 -0.8681
14578TIP3    H265226   0.270   6.405  14.711 -2.0450  0.9409  2.4594
14579TIP3   OH265227   2.559   3.881   0.727 -0.1577  0.3872 -0.1416
14579TIP3    H165228   2.623   3.820   0.691  1.1915  0.7299  1.5078
14579TIP3    H265229   2.532   3.841   0.810 -3.1977 -0.4124 -1.3825
14580TIP3   OH265230   5.205   5.025  12.674 -0.2870 -0.0208  0.6527
14580TIP3    H165231   5.287   4.976  12.686 -0.4656 -0.2612  0.8905
14580TIP3    H265232   5.138   4.957  12.667 -0.2963  0.1071 -0.9760
14581TIP3   OH265233   0.118   4.588   2.522  0.2889 -0.9425 -0.5007
14581TIP3    H165234   0.212   4.579   2.506  0.5421  0.7403 -0.1618
14581TIP3    H265235   0.102   4.537   2.601  1.7152  1.7436  1.6977
14582TIP3   OH265236   3.290   2.109  17.242  0.1427  0.9884 -0.1683
14582TIP3    H165237   3.233   2.148  17.175  1.9217 -1.4379 -3.3301
14582TIP3    H265238   3.230   2.084  17.312 -2.0495  2.3901 -1.4158
14583TIP3   OH265239   0.238   6.639   4.237  0.1626  0.0922  0.0986
14583TIP3    H165240   0.188   6.612   4.160  0.0531 -2.2650  0.9197
14583TIP3    H265241   0.317   6.585   4.235 -0.1057 -0.4467  1.9135
14584TIP3   OH265242   3.520   0.864  14.942  0.4121 -0.3845  0.1923
14584TIP3    H165243   3.482   0.877  15.029 -0.5408  0.6384 -0.3572
14584TIP3    H265244   3.608   0.832  14.959 -0.4891 -2.3618  1.5215
14585TIP3   OH265245   6.193   1.694   0.974 -0.2348 -0.8661 -0.3861
14585TIP3    H165246   6.107   1.682   0.933 -0.1307 -2.5033 -0.1699
14585TIP3    H265247   6.179   1.671   1.066  0.5196 -1.5013 -0.4229
14586TIP3   OH265248   6.133   5.569  11.896  0.5627 -0.5170  0.3535
14586TIP3    H165249   6.046   5.532  11.911  0.5636 -0.6815 -0.0360
14586TIP3    H265250   6.167   5.588  11.984  0.5566 -1.4184  0.5598
14587TIP3   OH265251   2.564   0.084  12.368  0.1210  0.0400  0.3644
14587TIP3    H165252   2.488   0.043  12.326 -0.1515  0.7620  0.1317
14587TIP3    H265253   2.541   0.177  12.373  1.0355  0.2849  0.2021
14588TIP3   OH265254   0.712   1.917  14.449  0.0782  0.2640  0.1243
14588TIP3    H165255   0.664   1.995  14.477 -2.6123 -1.2961  0.2075
14588TIP3    H265256   0.664   1.844  14.487  1.2953 -1.5551 -1.6122
14589TIP3   OH265257   5.846   6.161   2.850 -0.1374  0.1814 -0.8284
14589TIP3    H165258   5.935   6.197   2.848 -0.1557  0.2742 -0.1151
14589TIP3    H265259   5.857   6.070   2.821  0.6811 -0.7698  2.1253
14590TIP3   OH265260   1.488   3.248  14.948  0.0552  0.6275  0.1588
14590TIP3    H165261   1.516   3.339  14.934  2.1784 -0.0058  0.0202
14590TIP3    H265262   1.406   3.241  14.899 -0.1686  2.4550  0.1781
14591TIP3   OH265263   4.309   4.495  10.467  0.2304  0.3494  0.0420
14591TIP3    H165264   4.396   4.455  10.460  0.1586  0.2311 -0.1701
14591TIP3    H265265   4.325   4.580  10.508  0.1994 -0.6608  2.3465
14592TIP3   OH265266   2.532   5.520  15.243 -0.0999  0.6625 -0.2355
14592TIP3    H165267   2.502   5.603  15.205 -0.3843  0.4094 -0.5769
14592TIP3    H265268   2.473   5.505  15.317  0.7555  1.3922  0.6021
14593TIP3   OH265269   3.280   5.749   5.265  0.0548  0.1528  0.1628
14593TIP3    H165270   3.262   5.669   5.215 -1.7724  0.1087  0.8197
14593TIP3    H265271   3.307   5.813   5.199 -0.5861 -0.3993 -0.6529
14594TIP3   OH265272   6.429   1.899  14.730  0.5487 -0.2310  0.1110
14594TIP3    H165273   6.468   1.842  14.663  1.3907  0.3031  0.1306
14594TIP3    H265274   6.403   1.839  14.800 -1.8670 -1.0013 -1.3468
14595TIP3   OH265275   6.576   0.286   6.472 -0.4587  0.4597  0.1899
14595TIP3    H165276   6.593   0.202   6.428  0.7983  0.0118  1.4471
14595TIP3    H265277   6.591   0.352   6.404 -1.3891 -0.3226 -0.7974
14596TIP3   OH265278   4.141   5.862  16.685 -0.1390  0.7638 -0.2677
14596TIP3    H165279   4.233   5.838  16.699 -0.3556  0.0038 -0.1519
14596TIP3    H265280   4.136   5.880  16.591 -0.4765 -1.9762 -0.8612
14597TIP3   OH265281   0.489   4.498  12.979  0.1071  0.1007 -0.9444
14597TIP3    H165282   0.401   4.532  12.964  0.1632  0.7378  0.1148
14597TIP3    H265283   0.547   4.563  12.939  0.2644  1.8843  1.9042
14598TIP3   OH265284   4.113   1.374   1.386 -0.2018 -0.0572 -0.1653
14598TIP3    H165285   4.149   1.441   1.443 -0.5151  0.2313 -0.3015
14598TIP3    H265286   4.100   1.418   1.302  0.1553 -0.4498 -0.4282
14599TIP3   OH265287   1.664   1.382  14.985 -0.1099  0.0758  0.1929
14599TIP3    H165288   1.599   1.334  14.934  2.0157  0.4179 -3.1222
14599TIP3    H265289   1.718   1.314  15.026 -1.1348 -0.2153  1.1036
14600TIP3   OH265290   5.491   6.220   2.571  0.9434 -0.0711  0.3636
14600TIP3    H165291   5.496   6.141   2.517 -0.1023  0.6800 -0.8926
14600TIP3    H265292   5.540   6.286   2.521  0.3552  0.5133  0.5461
14601TIP3   OH265293   0.950   1.588   2.817 -0.1976  0.0009  0.1368
14601TIP3    H165294   0.894   1.661   2.792  1.1555  0.6010 -1.2815
14601TIP3    H265295   1.028   1.629   2.855 -0.7110 -0.8200  2.2395
14602TIP3   OH265296   2.042   0.237   3.550  0.0618 -0.3807 -0.2115
14602TIP3    H165297   2.086   0.281   3.623 -0.7539 -1.9676  1.3129
14602TIP3    H265298   2.114   0.204   3.496  0.6803  0.9187 -0.2365
14603TIP3   OH265299   1.305   3.999   2.104  0.0840  0.0729 -0.0563
14603TIP3    H165300   1.311   4.041   2.017  0.4917 -1.3651 -0.7580
14603TIP3    H265301   1.288   4.071   2.164 -1.0199  1.0172 -1.4281
14604TIP3   OH265302   2.052   2.906   2.693 -0.1795 -0.4758 -0.2773
14604TIP3    H165303   2.095   2.921   2.608  1.1240  1.4860  0.6497
14604TIP3    H265304   1.960   2.928   2.678 -0.0946 -0.7886 -1.3375
14605TIP3   OH265305   4.273   4.596  16.943 -0.0115 -0.0163 -0.4683
14605TIP3    H165306   4.262   4.546  16.862  0.5492 -1.0538  0.0876
14605TIP3    H265307   4.240   4.539  17.012  2.0706 -0.2937  0.3702
14606TIP3   OH265308   4.606   6.183  11.491  0.0011 -0.0246 -0.2397
14606TIP3    H165309   4.599   6.271  11.453  0.6293 -0.2580 -0.9278
14606TIP3    H265310   4.570   6.125  11.423 -2.7172 -0.1412  1.1406
14607TIP3   OH265311   4.227   3.451  14.859 -0.1618  0.2775 -0.4623
14607TIP3    H165312   4.293   3.422  14.796  0.7626 -1.6441  1.2847
14607TIP3    H265313   4.159   3.383  14.856  0.2949 -0.2948  1.1439
14608TIP3   OH265314   6.171   0.988   5.304 -0.1122  0.0475 -0.4618
14608TIP3    H165315   6.113   0.928   5.350  0.0206 -1.4862 -2.1698
14608TIP3    H265316   6.244   1.003   5.365 -0.8120 -0.4321  0.5162
14609TIP3   OH265317   3.586   0.511  13.774 -0.4054  0.1900 -0.8845
14609TIP3    H165318   3.599   0.456  13.697 -1.2256  0.0312 -0.9273
14609TIP3    H265319   3.492   0.530  13.773 -1.0930 -2.3664  1.7673
14610TIP3   OH265320   0.197   6.162  12.965  0.3131  0.6624 -0.2633
14610TIP3    H165321   0.223   6.152  12.873 -0.1671 -1.3312 -0.2385
14610TIP3    H265322   0.105   6.134  12.967  0.4434  0.2584  0.8761
14611TIP3   OH265323   6.491   5.212  13.712  0.3342 -0.1516  0.0889
14611TIP3    H165324   6.449   5.220  13.798  0.0030  0.8644 -0.1432
14611TIP3    H265325   6.523   5.122  13.709 -2.2802 -1.1997  0.1047
14612TIP3   OH265326   5.297   5.364  11.240 -1.1112  0.1007  0.9255
14612TIP3    H165327   5.229   5.359  11.173 -1.4817 -2.1933  1.3854
14612TIP3    H265328   5.347   5.442  11.218 -0.2981 -1.3069 -2.9776
14613TIP3   OH265329   1.801   4.040  15.744 -0.1286 -0.0287 -0.6827
14613TIP3    H165330   1.875   4.095  15.718  0.0124  0.1422  0.0466
14613TIP3    H265331   1.730   4.101  15.763 -0.3494 -0.1724 -1.0452
14614TIP3   OH265332   2.749   5.503  15.886 -0.1626  0.2206  0.3020
14614TIP3    H165333   2.761   5.418  15.930  0.1288 -0.4309 -0.9839
14614TIP3    H265334   2.663   5.496  15.843 -0.1663  0.6045  0.2444
14615TIP3   OH265335   0.396   6.697   5.304 -0.0536  0.2698  0.2755
14615TIP3    H165336   0.322   6.735   5.352 -0.3588  1.1085 -0.8222
14615TIP3    H265337   0.389   6.603   5.320 -1.8317  0.2414 -0.4434
14616TIP3   OH265338   2.811   3.515  10.695 -0.0467 -0.2868  0.1919
14616TIP3    H165339   2.889   3.461  10.681 -0.3789 -1.1515  1.4906
14616TIP3    H265340   2.822   3.548  10.784  0.1339  1.8128 -0.5604
14617TIP3   OH265341   1.310   4.794   3.475 -0.1893  0.0107  0.1394
14617TIP3    H165342   1.344   4.836   3.554 -0.3445  0.7397 -0.1697
14617TIP3    H265343   1.279   4.708   3.505  1.2288 -0.3791  0.5545
14618TIP3   OH265344   4.535   0.900   5.600 -0.0636  0.3510  0.1726
14618TIP3    H165345   4.534   0.986   5.642  1.8392  1.4196 -1.7536
14618TIP3    H265346   4.461   0.901   5.540  0.2392  0.8640 -0.1997
14619TIP3   OH265347   2.295   4.371  15.229 -0.2195 -0.2808 -0.5864
14619TIP3    H165348   2.225   4.342  15.170 -2.7154  1.1723  1.4650
14619TIP3    H265349   2.271   4.334  15.314  2.2661 -0.7860 -0.0321
14620TIP3   OH265350   5.678   6.436   0.811 -0.3733  0.2102 -0.5655
14620TIP3    H165351   5.736   6.389   0.751 -0.6015  1.0441 -1.4716
14620TIP3    H265352   5.590   6.415   0.781 -0.5656 -0.9462  0.7278
14621TIP3   OH265353   1.011   1.129   3.884 -1.0698  0.5046  0.0071
14621TIP3    H165354   1.039   1.054   3.833  0.4014  0.2199  1.1494
14621TIP3    H265355   0.976   1.092   3.965 -1.2472  1.0178  0.1721
14622TIP3   OH265356   1.950   3.026  11.313  0.0252  0.2999  0.2191
14622TIP3    H165357   1.855   3.022  11.324 -0.2260 -0.5170 -1.8185
14622TIP3    H265358   1.968   3.117  11.290 -0.2865  0.3799  0.2896
14623TIP3   OH265359   6.213   4.944   1.656  0.7236 -0.0964  0.5287
14623TIP3    H165360   6.179   4.882   1.592 -0.6169  0.5762  0.5335
14623TIP3    H265361   6.307   4.933   1.654  0.7077 -0.1859 -1.4791
14624TIP3   OH265362   5.943   2.319  14.432 -0.1625  0.3881 -0.3449
14624TIP3    H165363   5.849   2.335  14.421 -0.1234  1.5283  0.7572
14624TIP3    H265364   5.950   2.269  14.513  0.1908  0.1834 -0.4950
14625TIP3   OH265365   5.101   3.313   5.328  0.1097  0.0602 -0.0814
14625TIP3    H165366   5.103   3.386   5.266 -1.8525 -0.4331 -0.8175
14625TIP3    H265367   5.191   3.279   5.327  0.2069  0.1767 -2.5688
14626TIP3   OH265368   3.640   0.973  11.176 -0.8032  0.4630 -0.0855
14626TIP3    H165369   3.735   0.975  11.186 -0.7090  3.2619 -0.6002
14626TIP3    H265370   3.614   0.887  11.208  1.9831 -0.8116 -0.9406
14627TIP3   OH265371   6.297   1.313  15.269  0.5003  0.4293 -0.8645
14627TIP3    H165372   6.387   1.303  15.301 -0.3610 -2.7999  1.0220
14627TIP3    H265373   6.261   1.384  15.322  1.5273  0.8422 -0.6857
14628TIP3   OH265374   6.002   1.366  11.234  0.2486 -0.1338 -0.2655
14628TIP3    H165375   6.066   1.397  11.169  0.6317 -0.6564 -0.1448
14628TIP3    H265376   5.925   1.422  11.221  0.4854  0.0561 -0.8681
14629TIP3   OH265377   3.306   5.692  12.767  0.1062 -0.0174  0.2916
14629TIP3    H165378   3.235   5.629  12.775 -1.5342  1.6137 -0.5913
14629TIP3    H265379   3.374   5.660  12.826 -1.6182 -1.2975  1.6741
14630TIP3   OH265380   5.964   2.246   5.761 -0.3952  0.1681  0.0037
14630TIP3    H165381   5.919   2.189   5.699  0.4503  0.8026 -1.2483
14630TIP3    H265382   5.997   2.318   5.707  2.9254 -0.7081  0.6291
14631TIP3   OH265383   5.037   0.207   1.625  0.1847 -0.2698 -0.0239
14631TIP3    H165384   5.068   0.297   1.615 -1.3950  0.6408  2.4198
14631TIP3    H265385   4.974   0.195   1.553 -1.0757  1.3151  0.7699
14632TIP3   OH265386   4.757   0.041  13.532 -0.2824 -0.1780  0.2584
14632TIP3    H165387   4.760   0.136  13.540 -0.4455 -0.1489  0.0008
14632TIP3    H265388   4.752   0.025  13.437 -2.7831 -0.3389  0.3377
14633TIP3   OH265389   3.077   6.375  14.108  0.7045 -0.3265  0.0476
14633TIP3    H165390   3.164   6.413  14.122  1.4259 -2.2258  1.0669
14633TIP3    H265391   3.049   6.345  14.194 -0.5251 -0.6788 -0.4484
14634TIP3   OH265392   2.913   0.751   1.210  0.0975 -0.2967 -0.1741
14634TIP3    H165393   2.992   0.706   1.239  0.0216 -0.9718 -0.9951
14634TIP3    H265394   2.842   0.710   1.259  0.0424 -1.0047 -0.8311
14635TIP3   OH265395   4.775   4.403  12.180 -0.4453 -0.0067  0.1571
14635TIP3    H165396   4.858   4.439  12.151  0.0197 -0.9251  0.3053
14635TIP3    H265397   4.763   4.437  12.269 -0.8751  1.1648 -0.3259
14636TIP3   OH265398   3.163   0.620   5.997  0.0052  0.0249 -0.3811
14636TIP3    H165399   3.130   0.540   6.037 -0.0312 -0.4339 -1.3181
14636TIP3    H265400   3.255   0.601   5.978 -0.0206  0.1833 -0.6669
14637TIP3   OH265401   1.436   1.975  12.141 -0.0640  0.1509  0.0112
14637TIP3    H165402   1.346   1.957  12.170  0.1373 -2.0759 -0.6120
14637TIP3    H265403   1.426   2.015  12.055 -0.4744 -0.3000 -0.1577
14638TIP3   OH265404   0.148   6.003   2.695 -0.6780 -0.7610 -0.4190
14638TIP3    H165405   0.152   6.074   2.632  2.1421  0.1462  0.6039
14638TIP3    H265406   0.137   5.924   2.642 -3.3266  0.3053 -1.6054
14639TIP3   OH265407   4.701   1.860   0.016  0.1386  0.3077  0.1992
14639TIP3    H165408   4.616   1.868   0.061 -0.8755 -1.1092 -1.3409
14639TIP3    H265409   4.706   1.937  -0.040  0.4763  1.0408  1.2092
14640TIP3   OH265410   6.647   1.933   2.258 -0.7128 -0.2526 -0.4359
14640TIP3    H165411   6.696   1.851   2.258 -1.5515 -0.7799  0.1121
14640TIP3    H265412   6.700   1.993   2.310 -0.3581 -0.6256 -0.3647
14641TIP3   OH265413   0.313   2.359   2.402  0.3380  0.2906  0.3492
14641TIP3    H165414   0.237   2.372   2.346  1.0454 -0.6488 -0.8693
14641TIP3    H265415   0.324   2.443   2.447 -1.7500  0.2714  1.0172
14642TIP3   OH265416   0.802   2.951   4.875  0.5678  0.5798  0.2202
14642TIP3    H165417   0.711   2.972   4.852  0.4551 -0.1233  0.0179
14642TIP3    H265418   0.815   2.862   4.843  1.7058  1.1068 -0.8492
14643TIP3   OH265419   2.259   2.744  14.349  0.0776  0.3025 -0.4686
14643TIP3    H165420   2.181   2.770  14.299 -0.0251  1.8122  0.4134
14643TIP3    H265421   2.233   2.663  14.392 -0.8103  0.4765 -0.6410
14644TIP3   OH265422   2.616   3.997  17.122  0.1622 -0.7845 -0.1602
14644TIP3    H165423   2.659   3.931  17.067 -0.4275 -0.0261 -1.5798
14644TIP3    H265424   2.591   4.066  17.062 -3.8400 -1.5124  0.3755
14645TIP3   OH265425   4.322   5.590  15.988  0.4272 -0.6051 -0.0024
14645TIP3    H165426   4.340   5.497  16.005 -1.3339 -1.2091 -1.0809
14645TIP3    H265427   4.282   5.622  16.069  0.2352 -1.0414  0.0813
14646TIP3   OH265428   4.051   5.136   2.096 -0.0806  0.0224  0.1026
14646TIP3    H165429   3.992   5.083   2.043 -1.1987  0.3409  0.9729
14646TIP3    H265430   4.000   5.214   2.118  0.4304  0.0137  1.4109
14647TIP3   OH265431   1.837   6.627   0.377  0.1685 -0.0258  0.4208
14647TIP3    H165432   1.777   6.575   0.430  0.2429 -0.9660 -0.3728
14647TIP3    H265433   1.788   6.705   0.354  0.1598  0.4313  1.9074
14648TIP3   OH265434   6.402   4.123   0.972  0.2765 -0.2567 -0.0724
14648TIP3    H165435   6.311   4.122   0.945  0.1470 -1.5267  0.3025
14648TIP3    H265436   6.446   4.182   0.911 -0.2262 -2.0152 -2.2493
14649TIP3   OH265437   5.269   4.648  15.986  0.4251  0.1428 -0.0314
14649TIP3    H165438   5.208   4.605  15.925  0.9555 -0.5547 -0.0907
14649TIP3    H265439   5.287   4.582  16.052 -0.3970  1.0097  1.0883
14650TIP3   OH265440   3.764   4.594  12.168  1.0720  0.0223 -0.0942
14650TIP3    H165441   3.700   4.532  12.202  0.2432  1.5904  1.4032
14650TIP3    H265442   3.714   4.649  12.108  1.7012 -0.4572 -1.0873
14651TIP3   OH265443   5.859   1.639  13.229 -0.1228  0.4200  0.3900
14651TIP3    H165444   5.867   1.544  13.223 -1.5235  0.2661  0.6933
14651TIP3    H265445   5.904   1.672  13.152 -0.7053 -0.5548 -0.3867
14652TIP3   OH265446   3.659   6.041   0.235  0.6516 -0.4682  0.3458
14652TIP3    H165447   3.581   6.087   0.264  1.2797 -0.5871  2.3429
14652TIP3    H265448   3.672   6.070   0.144  0.5170  2.5835  1.2204
14653TIP3   OH265449   0.265   5.552   6.632  0.2113 -0.5208 -0.2707
14653TIP3    H165450   0.175   5.553   6.600  0.1644 -0.1619 -0.1337
14653TIP3    H265451   0.271   5.471   6.684 -0.5457  0.2980  1.1486
14654TIP3   OH265452   5.952   6.061   0.006 -0.6821  0.7256  0.5167
14654TIP3    H165453   5.904   6.136   0.042 -0.0677  1.3775  0.0097
14654TIP3    H265454   6.042   6.073   0.036 -0.6204  0.0672  0.6069
14655TIP3   OH265455   3.658   5.098  16.163  0.6035  0.6133  0.2699
14655TIP3    H165456   3.712   5.145  16.099 -3.1367  1.2043 -2.8612
14655TIP3    H265457   3.637   5.016  16.118 -1.2528  0.5489  1.2006
14656TIP3   OH265458   2.827   6.303   1.669  0.0028  0.0474  0.3839
14656TIP3    H165459   2.792   6.392   1.670 -0.3997 -0.1079  0.3802
14656TIP3    H265460   2.828   6.275   1.760  1.4829  0.5670  0.5539
14657TIP3   OH265461   2.642   1.088   4.463  0.0987  0.6778  0.2173
14657TIP3    H165462   2.663   1.169   4.510  0.9418  0.1627  0.7639
14657TIP3    H265463   2.549   1.095   4.444 -0.2579  0.9551  1.9029
14658TIP3   OH265464   1.706   0.430  17.336 -0.0756 -0.0565  0.2224
14658TIP3    H165465   1.668   0.481  17.408 -0.7241 -0.0517 -0.1125
14658TIP3    H265466   1.643   0.360  17.320  1.5336 -1.9343  1.6990
14659TIP3   OH265467   3.327   1.115   1.804 -0.1474 -0.3512 -0.2278
14659TIP3    H165468   3.253   1.133   1.861  0.5435  0.1620  0.5269
14659TIP3    H265469   3.380   1.195   1.808  0.8072 -0.9799 -0.2038
14660TIP3   OH265470   2.772   3.424  16.951  0.1736  0.2778 -0.2100
14660TIP3    H165471   2.815   3.454  16.871  1.1582 -2.3506 -0.7753
14660TIP3    H265472   2.830   3.354  16.984 -1.5969 -0.5706  1.2865
14661TIP3   OH265473   3.850   3.998   3.429 -0.6687 -0.3562  0.4407
14661TIP3    H165474   3.766   4.034   3.402 -0.1458  0.6096  0.0210
14661TIP3    H265475   3.915   4.047   3.378  0.1104 -1.7261  0.0347
14662TIP3   OH265476   6.430   1.702   1.161  0.0551  0.3872 -0.6612
14662TIP3    H165477   6.430   1.642   1.235 -0.3925  1.3054  0.1130
14662TIP3    H265478   6.519   1.699   1.127  0.4775  0.5075  0.3908
14663TIP3   OH265479   6.024   6.295  14.579  0.7410  0.1221 -0.1060
14663TIP3    H165480   5.979   6.364  14.531  0.8760 -0.7306 -1.5001
14663TIP3    H265481   6.012   6.216  14.526  0.5910 -0.9429  1.4384
14664TIP3   OH265482   1.913   1.694   1.101  0.4435 -0.1302  0.1002
14664TIP3    H165483   1.860   1.756   1.051  0.5648 -0.4688 -0.4613
14664TIP3    H265484   1.981   1.748   1.142  0.2014  0.1860  0.0850
14665TIP3   OH265485   6.732   5.651   3.764 -0.0568 -1.0009 -0.1968
14665TIP3    H165486   6.645   5.614   3.752 -1.1292  0.4400  2.4064
14665TIP3    H265487   6.760   5.618   3.850 -0.3462  2.6043  1.4513
14666TIP3   OH265488   2.623   3.418   4.186 -0.7961  0.1787  0.0514
14666TIP3    H165489   2.632   3.510   4.162 -0.1607 -0.1388 -0.9961
14666TIP3    H265490   2.617   3.418   4.282  2.0370  1.1105  0.3135
14667TIP3   OH265491   0.045   6.646   3.553  0.4349 -0.4374  0.3554
14667TIP3    H165492   0.006   6.692   3.479  0.3520  1.9215  1.7788
14667TIP3    H265493   0.042   6.554   3.528 -1.5510  0.0890 -1.6683
14668TIP3   OH265494   3.701   3.085   2.092  0.1776 -0.2220 -0.5459
14668TIP3    H165495   3.665   3.149   2.154  1.6375  1.1044 -0.9936
14668TIP3    H265496   3.652   3.100   2.011 -0.2501 -0.4646 -0.3364
14669TIP3   OH265497   2.574   5.884  15.265  0.2615 -0.0429 -0.1075
14669TIP3    H165498   2.543   5.865  15.176  1.1795 -0.1312 -0.4183
14669TIP3    H265499   2.517   5.833  15.322  0.5461 -1.0830 -0.7337
14670TIP3   OH265500   5.071   2.149   5.772  0.0345 -0.4905  0.0629
14670TIP3    H165501   5.084   2.163   5.679 -0.3521  0.8143  0.1846
14670TIP3    H265502   5.159   2.135   5.807  0.4161  1.0674 -0.1994
14671TIP3   OH265503   6.277   6.651   2.140 -0.7312  0.6796  0.0285
14671TIP3    H165504   6.183   6.663   2.126 -0.6471  0.9505 -0.3217
14671TIP3    H265505   6.318   6.725   2.094 -0.3725  0.8547  0.6225
14672TIP3   OH265506   1.477   5.268  11.381  0.0967 -0.4089 -0.1642
14672TIP3    H165507   1.382   5.274  11.372  0.2299 -0.7896 -2.3418
14672TIP3    H265508   1.508   5.358  11.368  0.0565 -0.2774  0.5877
14673TIP3   OH265509   2.608   2.522   2.608  0.1380  0.0244 -0.0814
14673TIP3    H165510   2.551   2.587   2.650  0.3556  0.3042 -0.2205
14673TIP3    H265511   2.669   2.573   2.556 -0.0003 -0.3158 -0.5841
14674TIP3   OH265512   5.879   2.652   6.269 -0.0021  0.1098  0.5774
14674TIP3    H165513   5.974   2.644   6.283  0.1092  0.8253  0.2791
14674TIP3    H265514   5.856   2.734   6.312 -0.5543 -0.2255  0.9311
14675TIP3   OH265515   3.976   2.619  11.424 -0.0787  0.4603  0.0235
14675TIP3    H165516   3.920   2.554  11.381 -0.3072  1.2729 -0.9567
14675TIP3    H265517   4.024   2.569  11.490  1.1012 -1.1099 -1.8909
14676TIP3   OH265518   5.860   2.874  12.648 -0.4544  0.0645  0.1416
14676TIP3    H165519   5.903   2.813  12.708  0.0832  1.0605  0.7957
14676TIP3    H265520   5.931   2.931  12.618 -0.8451  0.0142 -0.9141
14677TIP3   OH265521   2.154   0.854   1.294  0.4299  0.7403 -0.4322
14677TIP3    H165522   2.232   0.806   1.267 -0.5499 -1.5625  0.5735
14677TIP3    H265523   2.170   0.876   1.386  0.6677  2.0033 -0.7512
14678TIP3   OH265524   3.460   2.061  11.986  0.1137 -0.0231  0.0695
14678TIP3    H165525   3.398   1.995  11.954  0.1826  0.6439 -1.5253
14678TIP3    H265526   3.406   2.138  12.005  0.3556  0.3321 -0.6584
14679TIP3   OH265527   4.805   0.164  15.169 -0.1597  0.7971  0.3829
14679TIP3    H165528   4.871   0.105  15.134  0.7559  1.4893  0.9061
14679TIP3    H265529   4.767   0.116  15.243 -0.1311  0.4632  0.1820
14680TIP3   OH265530   5.945   1.079  12.605 -0.1564 -0.2314  0.0658
14680TIP3    H165531   5.890   1.120  12.539 -1.8336 -0.3242  1.3321
14680TIP3    H265532   6.033   1.079  12.567 -1.0620 -0.3572 -2.1563
14681TIP3   OH265533   3.783   1.705  13.385 -0.3550 -0.4681  0.1491
14681TIP3    H165534   3.774   1.778  13.324  0.7560 -0.7176 -0.3392
14681TIP3    H265535   3.824   1.636  13.334 -0.8711 -1.2415  0.7600
14682TIP3   OH265536   0.636   4.230   3.871  0.6236 -0.3858  0.3758
14682TIP3    H165537   0.646   4.158   3.934  1.2699  0.2226  0.9897
14682TIP3    H265538   0.668   4.193   3.788 -1.7890 -1.7368 -0.0577
14683TIP3   OH265539   5.185   0.608  10.989  0.0186  0.1676  0.2676
14683TIP3    H165540   5.119   0.540  11.004  0.4616 -0.4258 -0.3972
14683TIP3    H265541   5.154   0.655  10.911 -1.2125  1.9142  1.7276
14684TIP3   OH265542   2.364   2.012   1.194 -0.3939 -0.1853  0.2422
14684TIP3    H165543   2.290   2.059   1.158 -1.0978  0.2166  2.1095
14684TIP3    H265544   2.326   1.947   1.253  0.6729 -1.3018 -0.2370
14685TIP3   OH265545   5.862   2.507  14.045 -0.1981 -0.3835 -0.2691
14685TIP3    H165546   5.808   2.428  14.046 -0.5612 -0.1596 -1.2038
14685TIP3    H265547   5.865   2.533  13.953 -0.8563  1.1960  0.1230
14686TIP3   OH265548   2.657   4.706  15.929  0.1693 -0.3085  0.0678
14686TIP3    H165549   2.751   4.711  15.944 -0.1019 -0.2888  1.9653
14686TIP3    H265550   2.645   4.626  15.878  1.4521  1.2311 -2.9112
14687TIP3   OH265551   2.509   0.543  14.464  0.5824 -0.4547 -0.0052
14687TIP3    H165552   2.445   0.607  14.496 -1.7531 -1.4740 -2.3306
14687TIP3    H265553   2.546   0.505  14.544 -1.9726 -0.0436  1.4830
14688TIP3   OH265554   3.425   0.243   5.611  0.5829 -0.5349 -0.2737
14688TIP3    H165555   3.395   0.244   5.702  2.5474 -3.1330  0.4860
14688TIP3    H265556   3.346   0.262   5.561 -1.4430 -2.7189  1.8087
14689TIP3   OH265557   4.467   3.688  15.258  0.7504  0.0188  0.6340
14689TIP3    H165558   4.441   3.607  15.302 -0.9638 -0.8842 -1.8601
14689TIP3    H265559   4.557   3.703  15.287  0.6435 -2.0000  2.2320
14690TIP3   OH265560   3.882   2.154   3.303 -0.1836 -0.2878 -0.4607
14690TIP3    H165561   3.908   2.152   3.211 -1.2968 -0.4043 -0.7893
14690TIP3    H265562   3.835   2.071   3.316  1.8028 -1.2826  0.7909
14691TIP3   OH265563   6.674   5.186   1.155  0.5169 -0.0028  0.0894
14691TIP3    H165564   6.670   5.090   1.160  1.7551 -0.0478  0.5720
14691TIP3    H265565   6.692   5.204   1.063 -0.6280 -0.1687 -0.1902
14692TIP3   OH265566   4.927   4.043   0.293 -0.3379  0.0196 -0.5888
14692TIP3    H165567   4.961   4.130   0.272 -1.1797  0.0287 -2.0495
14692TIP3    H265568   4.833   4.051   0.282 -0.6570 -0.5327  1.4054
14693TIP3   OH265569   1.587   1.959   0.410 -0.1158  0.0784  0.2155
14693TIP3    H165570   1.676   1.972   0.444 -0.8125 -0.8354  2.5844
14693TIP3    H265571   1.591   1.875   0.363  0.5578  0.7203 -0.9232
14694TIP3   OH265572   3.620   5.477  16.398 -0.0435 -0.4340  0.2035
14694TIP3    H165573   3.709   5.501  16.372  0.0643  0.1834  1.1164
14694TIP3    H265574   3.628   5.389  16.433  0.3818 -0.0395  1.1276
14695TIP3   OH265575   5.320   2.603  11.550 -0.1639 -0.4262 -0.5569
14695TIP3    H165576   5.269   2.582  11.628  0.2989 -1.0635 -0.4229
14695TIP3    H265577   5.257   2.643  11.490 -0.9284 -1.6273 -0.5715
14696TIP3   OH265578   6.381   0.441  12.878  0.7120 -0.9449 -0.1604
14696TIP3    H165579   6.333   0.523  12.869  1.4869 -0.2217  1.8797
14696TIP3    H265580   6.354   0.389  12.802 -3.2829 -0.5980  0.8290
14697TIP3   OH265581   3.993   6.236   0.126  0.3439  0.3474 -1.0330
14697TIP3    H165582   3.905   6.268   0.144  0.6337  1.3830 -1.4205
14697TIP3    H265583   4.016   6.274   0.042  1.5204  0.8534 -0.5030
14698TIP3   OH265584   6.653   5.890   2.988  0.3146  0.0724  0.4378
14698TIP3    H165585   6.741   5.917   2.960  0.1867 -0.1008 -0.1336
14698TIP3    H265586   6.658   5.889   3.084  0.9362  0.0656  0.4087
14699TIP3   OH265587   3.148   0.898   4.269 -0.3644  0.0675 -0.3563
14699TIP3    H165588   3.239   0.926   4.277 -0.0462 -0.8417 -0.6327
14699TIP3    H265589   3.102   0.949   4.335  1.0351 -2.2938  2.7589
14700TIP3   OH265590   2.579   3.048   1.973 -0.5925  0.2056  0.0782
14700TIP3    H165591   2.560   3.095   1.892 -0.9066  1.1096  0.6588
14700TIP3    H265592   2.522   2.972   1.971 -1.1306  0.6135 -0.2082
14701TIP3   OH265593   2.035   5.188   3.088 -0.3873  0.5805 -0.9845
14701TIP3    H165594   1.947   5.162   3.118  0.1845 -1.2904 -0.8134
14701TIP3    H265595   2.088   5.185   3.167  0.0078  0.8870 -1.2384
14702TIP3   OH265596   3.616   0.437  12.192  0.3165 -0.3865  0.3678
14702TIP3    H165597   3.592   0.515  12.141  0.3615  0.3731  1.4855
14702TIP3    H265598   3.700   0.410  12.156  0.8161  0.7186  0.6674
14703TIP3   OH265599   3.896   4.502  16.935 -0.4534 -0.1271  0.4084
14703TIP3    H165600   3.989   4.498  16.913 -0.2747  1.4357  0.7077
14703TIP3    H265601   3.852   4.460  16.862  0.4569 -0.2705 -0.0685
14704TIP3   OH265602   3.205   1.548  13.706 -0.2739 -0.0456  0.3863
14704TIP3    H165603   3.113   1.572  13.717 -0.0771  0.6334  0.5617
14704TIP3    H265604   3.232   1.515  13.792 -0.1800  0.3522  0.5110
14705TIP3   OH265605   3.269   1.484  15.154 -0.4354  0.1530 -0.5411
14705TIP3    H165606   3.224   1.400  15.158  1.0589 -0.7557 -2.0630
14705TIP3    H265607   3.205   1.543  15.112 -1.1606 -0.4173 -0.2603
14706TIP3   OH265608   5.528   6.199   1.124  0.0494  0.1590  0.2449
14706TIP3    H165609   5.591   6.271   1.133 -0.6683  0.7081  1.0095
14706TIP3    H265610   5.577   6.121   1.150  0.4175  0.5789  0.8337
14707TIP3   OH265611   1.356   3.349   3.360  0.3331  0.0909  0.3166
14707TIP3    H165612   1.391   3.434   3.386 -1.4458  0.7668  0.6486
14707TIP3    H265613   1.424   3.286   3.384  1.4111  1.3425  0.6495
14708TIP3   OH265614   2.183   0.919  14.076 -0.2049  0.0784 -0.4722
14708TIP3    H165615   2.130   0.947  14.151  0.8159  0.8395 -0.0175
14708TIP3    H265616   2.196   0.999  14.024 -1.3215 -0.5262 -1.7680
14709TIP3   OH265617   4.364   0.724   6.618 -0.4636  0.0708 -0.0044
14709TIP3    H165618   4.276   0.703   6.587 -0.6061 -1.8850  1.5691
14709TIP3    H265619   4.422   0.676   6.558 -0.7097 -2.8790  1.9238
14710TIP3   OH265620   2.638   0.316  12.980 -0.4404 -0.2054  0.0831
14710TIP3    H165621   2.640   0.385  13.046  0.0119  0.1583 -0.2963
14710TIP3    H265622   2.730   0.291  12.969 -0.7198 -1.8480  1.2106
14711TIP3   OH265623   6.512   2.836  17.051  0.5082 -0.1672  0.0209
14711TIP3    H165624   6.438   2.780  17.027  1.4915 -1.4298 -0.1380
14711TIP3    H265625   6.554   2.858  16.967 -0.7072  2.0950 -0.0888
14712TIP3   OH265626   2.581   5.982   3.270  0.4903  0.2894 -0.3224
14712TIP3    H165627   2.619   5.932   3.342 -1.2479  0.4956  0.8045
14712TIP3    H265628   2.499   6.017   3.305 -1.0261 -0.5496 -2.7336
14713TIP3   OH265629   0.251   5.203  12.470  0.3604  0.6937  0.6029
14713TIP3    H165630   0.196   5.244  12.537  0.8065  2.3995 -0.0272
14713TIP3    H265631   0.189   5.161  12.410 -0.0393 -3.3450  3.4072
14714TIP3   OH265632   2.874   1.407   0.724  0.2387 -0.1023 -0.3009
14714TIP3    H165633   2.854   1.397   0.630  1.5086  1.5025 -0.7850
14714TIP3    H265634   2.946   1.470   0.726  0.3112 -0.2094  1.7706
14715TIP3   OH265635   1.526   6.555   0.098 -0.3788 -0.3264  0.4226
14715TIP3    H165636   1.592   6.499   0.058 -0.6249  0.2070 -0.7649
14715TIP3    H265637   1.481   6.499   0.161  0.8059 -0.8556  0.8342
14716TIP3   OH265638   5.523   1.638  16.662  0.3059  0.1732 -0.0846
14716TIP3    H165639   5.456   1.652  16.729 -0.1096 -1.3667 -0.1285
14716TIP3    H265640   5.602   1.616  16.711  0.3246  0.2678 -0.0727
14717TIP3   OH265641   6.011   2.742   3.513 -0.1542  0.5200  0.2823
14717TIP3    H165642   6.097   2.708   3.489 -0.3994  0.7517 -0.9689
14717TIP3    H265643   5.950   2.695   3.456 -0.7953  0.8050  0.7240
14718TIP3   OH265644   0.567   5.379  13.047  0.0786  0.4875 -0.1338
14718TIP3    H165645   0.608   5.296  13.069  2.7142  1.5775 -0.6399
14718TIP3    H265646   0.615   5.411  12.971 -0.9334  2.4247 -0.0185
14719TIP3   OH265647   4.585   1.576   1.652  0.3778  0.3227  0.0111
14719TIP3    H165648   4.511   1.636   1.651 -0.9465 -1.2287 -1.8296
14719TIP3    H265649   4.549   1.495   1.687  2.6205  0.9782  4.5711
14720TIP3   OH265650   3.825   5.294   5.769 -0.0696  0.4464  0.0173
14720TIP3    H165651   3.880   5.349   5.825 -0.9716 -0.8660  2.3203
14720TIP3    H265652   3.857   5.205   5.783 -1.2966 -0.0773 -0.3588
14721TIP3   OH265653   2.807   3.747  16.277 -0.0094 -0.8637  0.0830
14721TIP3    H165654   2.818   3.652  16.281  1.0397 -0.7278  0.5580
14721TIP3    H265655   2.881   3.778  16.225 -0.1688 -0.2686  0.1999
14722TIP3   OH265656   5.253   0.125  14.949  0.1296  1.4192  0.8839
14722TIP3    H165657   5.218   0.195  15.005 -1.1443  2.1113 -0.7082
14722TIP3    H265658   5.179   0.098  14.894  0.5027 -1.3754  1.5645
14723TIP3   OH265659   0.736   5.124  16.247 -0.2595 -0.0430 -0.0664
14723TIP3    H165660   0.657   5.137  16.299 -0.5464 -0.9770 -0.2452
14723TIP3    H265661   0.807   5.156  16.303 -0.7831  1.0589 -0.0219
14724TIP3   OH265662   2.926   1.964  12.087  0.0579  0.1347 -0.3654
14724TIP3    H165663   2.905   2.037  12.028 -1.2835 -0.1224 -0.2277
14724TIP3    H265664   3.018   1.977  12.109 -0.8249  3.6084  2.1395
14725TIP3   OH265665   1.452   3.705  11.310 -0.1624  0.7338  0.4847
14725TIP3    H165666   1.466   3.749  11.394 -1.6095 -0.2722  1.3017
14725TIP3    H265667   1.537   3.666  11.289 -0.6478 -2.5560  3.6666
14726TIP3   OH265668   6.283   2.111   1.180 -0.1886 -0.2125 -0.5073
14726TIP3    H165669   6.278   2.206   1.187  0.6265 -0.2544  1.5652
14726TIP3    H265670   6.230   2.089   1.104  0.1767  1.9416 -1.4538
14727TIP3   OH265671   6.767   3.005   4.635  0.3149  0.0286  0.1050
14727TIP3    H165672   6.806   2.933   4.685 -1.3598 -1.3908 -0.5595
14727TIP3    H265673   6.835   3.029   4.571  0.5464 -1.6665 -0.3287
14728TIP3   OH265674   1.944   3.817   3.070 -0.2506 -0.3280 -0.3295
14728TIP3    H165675   2.009   3.887   3.061  1.2545 -1.7119 -0.7811
14728TIP3    H265676   1.925   3.814   3.164  2.8846 -1.9629  0.3997
14729TIP3   OH265677   0.296   0.663   3.472 -0.4320  0.1070 -0.1712
14729TIP3    H165678   0.310   0.701   3.559 -1.6850  0.4319 -0.0891
14729TIP3    H265679   0.299   0.569   3.486  0.7494  0.1518 -0.0296
14730TIP3   OH265680   4.186   3.714   6.202  0.1671  0.2653 -0.7756
14730TIP3    H165681   4.267   3.745   6.241  0.0317  1.6594 -1.5171
14730TIP3    H265682   4.120   3.726   6.271  0.0438  2.1026 -1.1615
14731TIP3   OH265683   2.967   0.707  13.373 -0.9237 -0.3930  0.6568
14731TIP3    H165684   2.992   0.617  13.351 -0.6558 -0.4749  1.2710
14731TIP3    H265685   3.011   0.724  13.457  0.4735  0.9148 -0.2912
14732TIP3   OH265686   4.927   0.769  12.263  0.2037 -0.2699 -0.4048
14732TIP3    H165687   4.974   0.841  12.220 -0.2373 -0.1967 -0.7674
14732TIP3    H265688   4.939   0.694  12.205  2.6580 -1.1562  1.0922
14733TIP3   OH265689   5.019   5.683  16.052 -0.3521  0.6495  0.5319
14733TIP3    H165690   4.928   5.655  16.040  0.5353 -2.4202  0.0927
14733TIP3    H265691   5.069   5.627  15.993  2.0182  0.9713  2.1141
14734TIP3   OH265692   0.205   6.099  14.734 -0.5026  0.4796 -0.8420
14734TIP3    H165693   0.212   6.184  14.690 -0.8717  0.4276 -1.0049
14734TIP3    H265694   0.230   6.118  14.825  1.9457  0.2490 -1.3977
14735TIP3   OH265695   0.788   6.201   1.656 -0.1224 -0.5065  0.5475
14735TIP3    H165696   0.780   6.284   1.702 -1.6638 -0.8596  0.9537
14735TIP3    H265697   0.737   6.213   1.576  2.3049  0.0140 -1.0456
14736TIP3   OH265698   6.091   4.034   5.024 -0.4861 -0.3750 -0.6561
14736TIP3    H165699   6.074   4.002   5.113  0.1913  0.1638 -0.3222
14736TIP3    H265700   6.014   4.085   5.002  0.0440  0.8809  0.2920
14737TIP3   OH265701   6.039   4.841   3.291  0.2468 -0.1457  0.2423
14737TIP3    H165702   5.952   4.810   3.315  0.1070 -1.7061 -1.9772
14737TIP3    H265703   6.082   4.764   3.252  2.9727  0.3077  2.0483
14738TIP3   OH265704   5.481   0.645  14.598  0.0480 -0.0785  0.2205
14738TIP3    H165705   5.561   0.677  14.557  0.0268  2.3063  1.8726
14738TIP3    H265706   5.511   0.580  14.662  0.4530 -0.5904 -0.4708
14739TIP3   OH265707   4.943   5.771   4.413  0.4983  0.0042 -0.6417
14739TIP3    H165708   5.034   5.790   4.389  0.8679  0.1302  0.7528
14739TIP3    H265709   4.892   5.840   4.372  1.1124  0.3163 -0.8927
14740TIP3   OH265710   3.379   0.110  12.907 -0.5055 -0.0473  0.2232
14740TIP3    H165711   3.369   0.027  12.861 -0.9960  0.6231 -0.9201
14740TIP3    H265712   3.376   0.087  13.000  0.9879 -1.4905 -0.0388
14741TIP3   OH265713   0.140   1.982  12.006  0.0652  0.2818  0.1170
14741TIP3    H165714   0.132   2.047  11.936  0.4277  0.1591 -0.0412
14741TIP3    H265715   0.139   1.898  11.962 -1.8613  0.0908  0.4373
14742TIP3   OH265716   3.836   2.844   2.720  0.1347  0.3651  0.0932
14742TIP3    H165717   3.835   2.788   2.798  1.1263  0.9547  0.5529
14742TIP3    H265718   3.833   2.933   2.755  0.3919  0.6333 -0.5608
14743TIP3   OH265719   2.845   1.364   5.074 -0.0173  0.5070  0.5929
14743TIP3    H165720   2.823   1.328   5.161 -0.4963  0.5196  0.4784
14743TIP3    H265721   2.932   1.330   5.056  0.3712  1.0609  1.3821
14744TIP3   OH265722   4.916   1.105   1.560 -0.6300 -0.5022  0.4330
14744TIP3    H165723   4.913   1.106   1.464 -1.5562 -2.3369  0.3997
14744TIP3    H265724   4.881   1.019   1.584 -1.9168  0.5060  2.4737
14745TIP3   OH265725   4.187   3.567  11.047 -0.2114  0.4004  0.2607
14745TIP3    H165726   4.132   3.637  11.084  1.9772  0.3526  4.0556
14745TIP3    H265727   4.264   3.613  11.014 -0.3391  0.0281 -0.5843
14746TIP3   OH265728   4.740   6.369  16.713 -0.0911  0.2588 -0.2381
14746TIP3    H165729   4.810   6.306  16.698  0.0454  0.6932 -1.6279
14746TIP3    H265730   4.775   6.428  16.779  0.7825  0.3373 -0.7529
14747TIP3   OH265731   4.003   4.333   4.177  0.5957 -0.1654  0.8503
14747TIP3    H165732   4.096   4.350   4.168  0.9763 -2.5181 -0.5388
14747TIP3    H265733   3.965   4.361   4.093  0.9315 -3.6218 -0.6421
14748TIP3   OH265734   2.853   3.224   4.463  0.0882 -0.0483  0.5880
14748TIP3    H165735   2.852   3.140   4.508 -0.2166  0.1851  1.0249
14748TIP3    H265736   2.810   3.207   4.379  0.4290 -0.4263  0.4871
14749TIP3   OH265737   1.380   0.388  11.175 -0.2984  0.2781  0.2639
14749TIP3    H165738   1.400   0.429  11.091  1.9560 -1.1265  0.0373
14749TIP3    H265739   1.344   0.459  11.229 -0.2140  1.5915 -1.3349
14750TIP3   OH265740   5.388   3.362  15.107  0.1103  0.2736 -0.5887
14750TIP3    H165741   5.392   3.417  15.185  2.8418  1.6084 -1.5359
14750TIP3    H265742   5.298   3.373  15.075 -0.1157  2.3927  0.5453
14751TIP3   OH265743   1.308   3.218   2.125  0.4187 -0.0625  1.0017
14751TIP3    H165744   1.281   3.218   2.217 -0.5457 -1.4464  0.7542
14751TIP3    H265745   1.341   3.130   2.109 -1.4596 -0.5797 -0.4851
14752TIP3   OH265746   3.460   5.239   4.094  0.5502  0.1461  0.0821
14752TIP3    H165747   3.537   5.289   4.121 -0.3516  0.8295  1.4660
14752TIP3    H265748   3.485   5.147   4.108  0.9596  0.3787  0.9152
14753TIP3   OH265749   5.678   5.217   2.245  0.0940  0.3084  0.0751
14753TIP3    H165750   5.736   5.209   2.170 -1.2937 -1.5173 -0.9003
14753TIP3    H265751   5.734   5.199   2.321  0.9572 -0.7350 -0.7752
14754TIP3   OH265752   1.096   1.691  16.472  0.3897 -0.7836  0.3241
14754TIP3    H165753   1.134   1.680  16.559  2.7645 -0.9194 -0.6459
14754TIP3    H265754   1.100   1.604  16.433 -2.1538 -1.0910  0.5563
14755TIP3   OH265755   2.662   6.168   6.362  0.2479 -0.5984 -0.2564
14755TIP3    H165756   2.754   6.189   6.347  0.2513 -0.7294 -0.4126
14755TIP3    H265757   2.662   6.076   6.389  0.0772 -0.8692 -1.1506
14756TIP3   OH265758   2.941   0.181  12.237 -0.4769 -0.3613 -0.2829
14756TIP3    H165759   3.011   0.171  12.172  0.2836 -0.0359  0.4813
14756TIP3    H265760   2.980   0.230  12.308 -1.5732  0.0818  0.0382
14757TIP3   OH265761   5.761   2.706  16.303 -0.5862 -0.4131 -0.4362
14757TIP3    H165762   5.683   2.736  16.255 -0.6584  0.2125  0.0552
14757TIP3    H265763   5.831   2.762  16.270 -0.3871 -0.8240 -0.7147
14758TIP3   OH265764   0.203   1.025  17.402  0.0620 -0.9603 -0.3094
14758TIP3    H165765   0.223   1.118  17.409 -3.6555 -0.1080  0.7069
14758TIP3    H265766   0.282   0.987  17.362  1.0820  2.8262 -2.3400
14759TIP3   OH265767   2.673   1.345  11.582 -0.0288  0.1929  0.0995
14759TIP3    H165768   2.619   1.387  11.514  2.8056  2.9981 -0.6409
14759TIP3    H265769   2.748   1.309  11.534  0.3876 -0.7998  1.4321
14760TIP3   OH265770   2.287   6.226   0.545 -0.0678 -0.3241 -0.6497
14760TIP3    H165771   2.304   6.141   0.504 -0.7151 -1.4839  1.3062
14760TIP3    H265772   2.200   6.216   0.584  0.2425  0.8869  0.4238
14761TIP3   OH265773   2.940   0.254   0.536 -0.6957  0.0219 -0.1885
14761TIP3    H165774   3.014   0.277   0.592 -1.3553  0.5842  0.4744
14761TIP3    H265775   2.862   0.278   0.588 -1.3165  0.9888 -1.5088
14762TIP3   OH265776   3.254   2.058  14.216 -0.7402 -0.5605 -0.2322
14762TIP3    H165777   3.331   2.006  14.193 -0.3837  0.4787 -1.4944
14762TIP3    H265778   3.248   2.051  14.311 -0.1877 -2.1673 -0.2693
14763TIP3   OH265779   3.400   1.707   2.857 -0.1136 -0.5162  0.2936
14763TIP3    H165780   3.351   1.771   2.805  0.0687 -1.2095 -0.7708
14763TIP3    H265781   3.452   1.659   2.792 -0.7285 -2.1816  0.9961
14764TIP3   OH265782   0.235   5.119   6.057 -0.2382 -0.5002 -0.1234
14764TIP3    H165783   0.243   5.048   6.120 -1.3711 -1.3751 -0.9164
14764TIP3    H265784   0.227   5.198   6.110 -2.0316 -1.3059  0.9003
14765TIP3   OH265785   1.487   3.497   6.578 -0.6284  0.2102 -0.2311
14765TIP3    H165786   1.568   3.480   6.628  0.0420  0.5114 -1.1929
14765TIP3    H265787   1.481   3.592   6.574  0.3737  0.2454 -2.3188
14766TIP3   OH265788   3.393   5.489  11.973  0.1956  0.0145 -0.2102
14766TIP3    H165789   3.465   5.438  12.011 -0.8070 -1.4455 -0.2140
14766TIP3    H265790   3.365   5.547  12.044 -0.9168 -1.8969  0.9768
14767TIP3   OH265791   4.514   3.842   6.287 -0.0095  0.5070  0.2133
14767TIP3    H165792   4.495   3.767   6.343  1.8790 -0.8863 -0.9025
14767TIP3    H265793   4.607   3.834   6.266 -0.2783  1.8789 -1.7911
14768TIP3   OH265794   4.227   3.336   0.211  0.1026  0.2312  0.3019
14768TIP3    H165795   4.239   3.247   0.176 -0.1098  0.8224 -1.3671
14768TIP3    H265796   4.206   3.389   0.134 -1.6766  1.3841  1.4958
14769TIP3   OH265797   3.766   4.133   0.398 -0.2558  0.1819 -0.2907
14769TIP3    H165798   3.728   4.168   0.479  1.1570 -0.6997  0.7816
14769TIP3    H265799   3.855   4.167   0.396  0.6011 -1.9042 -0.0911
14770TIP3   OH265800   3.832   0.342  12.044 -0.5308  0.4483 -0.3996
14770TIP3    H165801   3.797   0.368  11.959 -1.0896  1.5493  0.1294
14770TIP3    H265802   3.906   0.402  12.059  0.2037 -0.4059 -0.5412
14771TIP3   OH265803   2.036   2.419  14.216 -0.1604  0.3098  0.6554
14771TIP3    H165804   1.971   2.351  14.235  2.4009 -1.3036  5.3026
14771TIP3    H265805   2.007   2.495  14.267 -0.5926  1.1613 -0.8063
14772TIP3   OH265806   3.509   6.216   4.240  0.2610 -0.1488 -0.3383
14772TIP3    H165807   3.427   6.174   4.265  0.0253 -1.1609 -2.5555
14772TIP3    H265808   3.483   6.281   4.174  1.2792 -1.0295 -1.6463
14773TIP3   OH265809   1.195   4.719   6.597 -0.3513 -0.1430 -0.0748
14773TIP3    H165810   1.154   4.634   6.582 -1.6594  0.5209 -0.4169
14773TIP3    H265811   1.140   4.782   6.550 -0.5088  1.1289  1.6787
14774TIP3   OH265812   1.435   2.711  13.762 -0.2295 -0.4313 -0.0514
14774TIP3    H165813   1.449   2.674  13.675  1.0824  1.4552 -0.7294
14774TIP3    H265814   1.344   2.740  13.761 -0.3703 -0.8728 -0.6194
14775TIP3   OH265815   0.375   1.974  11.588 -0.1937  0.9134 -0.0732
14775TIP3    H165816   0.467   1.997  11.574 -0.6656  3.3023  0.4202
14775TIP3    H265817   0.341   1.956  11.500  0.9168 -0.9740 -0.1828
14776TIP3   OH265818   3.497   0.678   4.906  0.5415  0.0023 -0.5351
14776TIP3    H165819   3.539   0.762   4.889 -1.0009  1.2787  1.4992
14776TIP3    H265820   3.407   0.690   4.877 -0.0375 -0.4638  0.9975
14777TIP3   OH265821   2.423   5.421  11.656  0.1439 -0.5428 -0.5675
14777TIP3    H165822   2.437   5.489  11.590 -0.9301 -0.5927 -0.8660
14777TIP3    H265823   2.457   5.341  11.615  0.6228 -0.3470 -0.5556
14778TIP3   OH265824   4.401   6.650  14.203 -0.0053  0.2238  0.3580
14778TIP3    H165825   4.437   6.713  14.141 -0.0605 -0.1818 -0.0876
14778TIP3    H265826   4.319   6.621  14.163  0.0814 -0.2294  0.5016
14779TIP3   OH265827   2.689   3.684  15.135 -0.1999  0.0238 -0.4810
14779TIP3    H165828   2.642   3.603  15.155  1.0418 -0.7094 -0.4136
14779TIP3    H265829   2.779   3.655  15.117  0.1063  1.3209 -1.1123
14780TIP3   OH265830   2.199   3.537   2.648  0.1009 -0.2021 -0.2047
14780TIP3    H165831   2.173   3.603   2.584  0.6220 -0.0725 -0.2847
14780TIP3    H265832   2.286   3.509   2.620 -0.1937 -1.0767 -0.2938
14781TIP3   OH265833   5.866   5.080   4.818  0.0210 -0.3283 -0.1752
14781TIP3    H165834   5.836   5.162   4.857 -0.6021 -1.2592  1.4274
14781TIP3    H265835   5.850   5.090   4.724  1.0527  1.8067 -0.1794
14782TIP3   OH265836   5.383   6.424  14.204 -0.3304 -0.0984  0.3488
14782TIP3    H165837   5.361   6.332  14.186 -2.3897  0.5380 -0.7226
14782TIP3    H265838   5.352   6.472  14.127 -0.4980  1.6373  1.4437
14783TIP3   OH265839   1.626   3.957  14.904  0.4439  0.1666 -0.1604
14783TIP3    H165840   1.534   3.929  14.901  0.1422  1.1545 -0.6532
14783TIP3    H265841   1.664   3.920  14.824  0.4583 -0.1917  0.0120
14784TIP3   OH265842   1.410   4.046  11.145 -0.2469  0.7087 -0.4395
14784TIP3    H165843   1.340   4.005  11.094 -0.2881 -0.0389  0.1947
14784TIP3    H265844   1.466   4.088  11.080 -1.1724  1.1394 -0.9636
14785TIP3   OH265845   0.171   1.708   0.754  0.1905 -0.3318 -0.1431
14785TIP3    H165846   0.129   1.734   0.673 -1.2760 -0.6758  0.4865
14785TIP3    H265847   0.209   1.789   0.788 -1.2089  0.2995 -0.0195
14786TIP3   OH265848   2.555   2.284   1.595 -0.1308 -0.2796 -0.2397
14786TIP3    H165849   2.523   2.251   1.511  0.8023  1.2269 -1.2328
14786TIP3    H265850   2.546   2.210   1.655  0.8051 -1.9720 -2.0634
14787TIP3   OH265851   1.572   5.699  10.944  0.4111  0.2184  0.6475
14787TIP3    H165852   1.644   5.637  10.954  0.7870  0.3367 -0.9734
14787TIP3    H265853   1.570   5.718  10.850 -1.0933  0.9946  0.8041
14788TIP3   OH265854   3.422   3.790  11.189  0.3019 -0.1264 -0.3714
14788TIP3    H165855   3.508   3.831  11.175 -0.6203  2.7938  1.5416
14788TIP3    H265856   3.383   3.840  11.261 -2.3277 -2.4833  0.0140
14789TIP3   OH265857   6.716   3.872   6.665  0.0659  0.6463  1.0093
14789TIP3    H165858   6.745   3.785   6.694  0.6453 -0.3430 -2.1499
14789TIP3    H265859   6.788   3.905   6.610 -1.4148  1.7030 -0.4035
14790TIP3   OH265860   5.917   4.955  12.688  0.1137 -0.1233  0.3685
14790TIP3    H165861   5.875   4.907  12.760  0.9492  0.7806  1.5133
14790TIP3    H265862   6.008   4.964  12.717  0.4881  0.1675 -0.8710
14791TIP3   OH265863   6.340   4.161   2.605  0.2006  0.1722 -0.0669
14791TIP3    H165864   6.282   4.219   2.655 -0.6967 -1.9959  1.5679
14791TIP3    H265865   6.300   4.157   2.518 -0.8529  0.4609  0.3795
14792TIP3   OH265866   3.640   0.116  12.628 -0.0268  0.1483  0.7328
14792TIP3    H165867   3.574   0.108  12.559  0.8249 -0.7849 -0.0135
14792TIP3    H265868   3.698   0.040  12.615  0.7627  0.5259  1.8290
14793TIP3   OH265869   1.429   0.575  12.297  0.3417  0.5411  0.2910
14793TIP3    H165870   1.347   0.600  12.255  0.3770 -1.9324 -1.4400
14793TIP3    H265871   1.409   0.496  12.347  1.7488 -0.4391 -0.6181
14794TIP3   OH265872   2.653   2.294   2.462  0.0407 -0.2090 -0.0849
14794TIP3    H165873   2.711   2.350   2.410  0.9558 -0.5400  0.5366
14794TIP3    H265874   2.620   2.352   2.531  0.5361 -0.2818  0.2213
14795TIP3   OH265875   1.657   0.563  14.806 -0.4226 -0.5607 -0.0832
14795TIP3    H165876   1.598   0.626  14.847 -0.8114 -0.3482 -0.9545
14795TIP3    H265877   1.630   0.560  14.715  1.1570 -0.1869 -0.6009
14796TIP3   OH265878   3.030   5.158  17.300  0.1391 -0.7612  0.2243
14796TIP3    H165879   2.957   5.192  17.351  1.4565  0.0971  1.6001
14796TIP3    H265880   3.085   5.234  17.283  0.2756 -1.2227 -1.6020
14797TIP3   OH265881   6.035   6.639  15.773 -0.6258 -0.2033 -0.4159
14797TIP3    H165882   6.007   6.678  15.690 -0.3383  0.5108 -0.1840
14797TIP3    H265883   6.102   6.698  15.807 -0.2060 -0.8790 -0.0261
14798TIP3   OH265884   6.550   1.718   4.904 -0.2375 -0.5240  0.0035
14798TIP3    H165885   6.479   1.722   4.841 -0.0231 -1.3719 -0.3069
14798TIP3    H265886   6.629   1.713   4.851 -0.0067 -0.5229  0.3412
14799TIP3   OH265887   2.689   6.507  11.392  0.0930  0.0785 -0.5480
14799TIP3    H165888   2.772   6.459  11.382 -0.6348 -0.8387 -2.8528
14799TIP3    H265889   2.636   6.450  11.448 -0.4337 -1.4978 -2.5145
14800TIP3   OH265890   4.633   4.611  15.809 -0.1652 -0.6143  0.2245
14800TIP3    H165891   4.546   4.631  15.845  0.1200  0.4313  0.3832
14800TIP3    H265892   4.692   4.621  15.884  0.2663  0.2005 -0.2077
14801TIP3   OH265893   6.221   1.951  16.687 -0.5586  0.5896 -0.6543
14801TIP3    H165894   6.217   1.871  16.635 -0.8548  1.3960 -1.9273
14801TIP3    H265895   6.138   1.952  16.735  0.9305 -1.6542  2.2374
14802TIP3   OH265896   2.116   5.043  13.064  0.3245  0.1376 -0.0934
14802TIP3    H165897   2.204   5.078  13.055  0.7113 -0.8307 -0.2020
14802TIP3    H265898   2.058   5.117  13.044  1.1125  0.3027 -1.9793
14803TIP3   OH265899   6.302   2.104  11.379 -0.0867 -0.1411  0.1111
14803TIP3    H165900   6.283   2.014  11.353 -0.2696  0.1026 -0.6334
14803TIP3    H265901   6.237   2.157  11.332  0.9898  0.5136 -0.6962
14804TIP3   OH265902   4.853   6.672  16.343  0.2165 -0.2825 -0.3579
14804TIP3    H165903   4.801   6.665  16.423  0.9676  0.3246  0.2019
14804TIP3    H265904   4.935   6.713  16.371  0.6591 -0.4409 -1.3672
14805TIP3   OH265905   3.709   2.542   3.587 -0.1124  0.0274  0.2948
14805TIP3    H165906   3.641   2.590   3.539 -0.4066 -2.7108 -2.3265
14805TIP3    H265907   3.703   2.452   3.554  2.1710 -1.2581  2.9263
14806TIP3   OH265908   5.573   4.412  15.261  0.0524 -0.3661 -0.4367
14806TIP3    H165909   5.496   4.429  15.207 -0.3403 -1.2576 -0.1670
14806TIP3    H265910   5.548   4.339  15.317  1.1032 -0.6947 -0.3664
14807TIP3   OH265911   5.138   3.846  10.674 -0.3875 -0.2099  0.2320
14807TIP3    H165912   5.045   3.824  10.677  0.1472 -2.9180 -0.6939
14807TIP3    H265913   5.167   3.841  10.765 -0.6418 -2.0714  0.2493
14808TIP3   OH265914   3.313   6.185  10.637 -0.0322 -0.4631 -0.0432
14808TIP3    H165915   3.232   6.171  10.686  0.4497  0.2985  1.0106
14808TIP3    H265916   3.325   6.104  10.587 -1.4783 -0.5514 -0.2980
14809TIP3   OH265917   1.995   5.449   5.711  0.1940 -0.1048 -0.3170
14809TIP3    H165918   2.063   5.443   5.644 -0.1333  0.2794 -0.6857
14809TIP3    H265919   1.988   5.543   5.729 -0.0714 -0.1669 -0.1021
14810TIP3   OH265920   5.214   0.771  16.272 -0.0732  1.0317  0.0672
14810TIP3    H165921   5.209   0.799  16.181 -1.6705  0.5387 -0.0421
14810TIP3    H265922   5.302   0.793  16.300  0.1659  1.9797 -1.3416
14811TIP3   OH265923   0.340   5.192   0.573  0.2454  0.3188 -0.0687
14811TIP3    H165924   0.386   5.151   0.647  0.5312 -0.6944 -0.7722
14811TIP3    H265925   0.410   5.213   0.511 -0.0336  0.7743 -0.2339
14812TIP3   OH265926   4.983   5.086  13.558  0.0612  0.2447 -0.0812
14812TIP3    H165927   5.025   5.045  13.482  0.2666 -0.6104  0.4735
14812TIP3    H265928   4.916   5.143  13.521 -0.6947 -1.1062 -0.8950
14813TIP3   OH265929   2.130   5.881   1.227 -0.2689 -0.0836 -0.2085
14813TIP3    H165930   2.135   5.847   1.137  0.7019 -1.1582  0.2141
14813TIP3    H265931   2.088   5.811   1.277  0.3322 -0.0196  0.4007
14814TIP3   OH265932   2.514   2.065   3.492  0.0205  0.3441 -0.0551
14814TIP3    H165933   2.598   2.100   3.463  0.2751 -0.2370 -0.0178
14814TIP3    H265934   2.495   1.994   3.431  0.7542 -1.1571  1.3877
14815TIP3   OH265935   5.739   3.441  12.317  0.1754 -0.5022 -0.0083
14815TIP3    H165936   5.650   3.457  12.348 -0.9799 -3.2349 -1.5906
14815TIP3    H265937   5.736   3.354  12.277  3.3553 -0.3074 -0.9771
14816TIP3   OH265938   5.183   1.217  14.080  0.2659  0.1475  0.2570
14816TIP3    H165939   5.192   1.287  14.015  3.1086 -0.5787 -0.2839
14816TIP3    H265940   5.185   1.136  14.028  1.1375 -0.3992  1.1072
14817TIP3   OH265941   5.103   6.106  14.780  0.1121 -0.3670 -0.2643
14817TIP3    H165942   5.155   6.057  14.717 -0.0252 -0.5317 -0.2503
14817TIP3    H265943   5.037   6.151  14.727 -0.3400 -0.9308 -0.1890
14818TIP3   OH265944   5.695   5.820   0.501  0.0994 -0.3256 -0.3552
14818TIP3    H165945   5.726   5.815   0.591 -0.3693 -3.6734 -0.2564
14818TIP3    H265946   5.698   5.730   0.469 -4.9326 -0.2598 -1.8795
14819TIP3   OH265947   5.772   1.766  15.016 -0.4884  0.0674 -0.3480
14819TIP3    H165948   5.715   1.802  14.948 -0.0304  1.7448  0.1118
14819TIP3    H265949   5.854   1.814  15.007 -0.3473  0.1827  1.2568
14820TIP3   OH265950   2.640   3.461  15.740 -0.5357  0.0237 -0.4036
14820TIP3    H165951   2.559   3.460  15.791 -0.6136 -0.1009 -0.5292
14820TIP3    H265952   2.618   3.509  15.660 -0.6260 -0.4442 -0.6655
14821TIP3   OH265953   3.539   6.199   0.516 -0.3318 -0.1674  0.3639
14821TIP3    H165954   3.476   6.241   0.576 -0.8765  0.6685 -0.7417
14821TIP3    H265955   3.611   6.261   0.510 -0.7739  0.2738 -0.6581
14822TIP3   OH265956   5.716   2.555  17.261 -0.0264 -0.0821  0.5130
14822TIP3    H165957   5.643   2.498  17.287  0.2929 -1.3187 -1.1036
14822TIP3    H265958   5.711   2.629  17.321 -2.0469 -0.5736  1.0402
14823TIP3   OH265959   1.570   1.353  12.739  0.5894 -0.2716  0.2943
14823TIP3    H165960   1.586   1.446  12.724 -1.0879 -0.0462 -0.3393
14823TIP3    H265961   1.656   1.312  12.733  1.1300  1.0063 -1.1943
14824TIP3   OH265962   0.320   2.510   2.929  0.1943 -0.0382 -0.4818
14824TIP3    H165963   0.305   2.604   2.926  1.3598  0.2426  1.0514
14824TIP3    H265964   0.415   2.501   2.939  0.0838 -1.3719 -0.3584
14825TIP3   OH265965   1.587   4.788  16.619 -0.1087 -0.5019 -0.1266
14825TIP3    H165966   1.660   4.826  16.670 -2.2491  0.9984  2.0429
14825TIP3    H265967   1.591   4.695  16.637  2.4664 -0.8181 -1.7736
14826TIP3   OH265968   6.087   6.477  13.206 -0.0663  0.5513 -0.0583
14826TIP3    H165969   6.134   6.402  13.169  1.8165  0.7934  1.6802
14826TIP3    H265970   6.156   6.536  13.235 -1.5089  2.3409 -0.0927
14827TIP3   OH265971   0.161   3.550  14.277 -0.1993 -0.6890  0.0651
14827TIP3    H165972   0.122   3.484  14.220  0.8281  0.3237 -1.8876
14827TIP3    H265973   0.250   3.519  14.293 -0.2243 -0.5639  0.4608
14828TIP3   OH265974   4.378   0.411   1.844 -0.1805 -0.8459 -0.1655
14828TIP3    H165975   4.454   0.415   1.786 -2.2350  4.3651 -3.1851
14828TIP3    H265976   4.310   0.369   1.792 -0.8802 -0.0920  0.1076
14829TIP3   OH265977   5.784   4.109  13.123  0.3036 -0.5121  0.4145
14829TIP3    H165978   5.800   4.042  13.057 -1.1171  0.4867 -1.0064
14829TIP3    H265979   5.872   4.134  13.153  1.1339  0.0847 -2.2448
14830TIP3   OH265980   5.074   6.309  16.207  0.2658  0.6323  0.1380
14830TIP3    H165981   5.136   6.380  16.223 -0.3612  1.0719  0.7059
14830TIP3    H265982   4.991   6.354  16.188 -0.7405  0.1146  2.8435
14831TIP3   OH265983   3.650   0.863   1.437  0.8419 -0.3061  0.0715
14831TIP3    H165984   3.558   0.855   1.460  0.6696  0.5840 -0.2691
14831TIP3    H265985   3.667   0.957   1.438  0.6693 -0.0634 -3.9650
14832TIP3   OH265986   2.826   5.407  13.572  0.1802  0.0296  0.0048
14832TIP3    H165987   2.898   5.354  13.607  1.3132  1.0302 -0.6957
14832TIP3    H265988   2.818   5.379  13.481  1.4292  1.6246 -0.6518
14833TIP3   OH265989   0.934   5.505  13.513  0.0283  0.4710  0.4126
14833TIP3    H165990   0.862   5.568  13.508  0.9221  1.6632  1.7558
14833TIP3    H265991   1.013   5.557  13.495  0.8372 -0.1319  2.0557
14834TIP3   OH265992   5.439   5.392   0.794 -0.2438  0.2154 -0.4363
14834TIP3    H165993   5.465   5.309   0.754 -0.7144 -0.1603  0.0238
14834TIP3    H265994   5.409   5.368   0.882  2.4976  1.1937  0.8970
14835TIP3   OH265995   3.546   2.719   1.266  0.2546 -0.5817  0.9445
14835TIP3    H165996   3.472   2.681   1.314 -0.1039 -1.8729 -0.5310
14835TIP3    H265997   3.510   2.797   1.225  0.1444 -0.3284  1.5206
14836TIP3   OH265998   1.916   6.070   1.194  0.4134  0.4258  0.1678
14836TIP3    H165999   1.986   6.024   1.241 -0.1066 -1.5342 -0.8719
14836TIP3    H266000   1.956   6.097   1.111  0.6996  1.8998  0.7444
14837TIP3   OH266001   3.792   4.470   2.737 -0.7434  0.0313  0.1110
14837TIP3    H166002   3.773   4.562   2.716  0.6282  0.3498  0.1428
14837TIP3    H266003   3.800   4.427   2.652 -0.5249  0.1397  0.0753
14838TIP3   OH266004   0.236   1.020  15.159 -0.2353  0.3923 -0.5593
14838TIP3    H166005   0.240   0.925  15.158 -3.5458  0.0755 -3.5087
14838TIP3    H266006   0.155   1.041  15.206  0.0562  1.7238 -0.5882
14839TIP3   OH266007   0.083   1.062   3.038 -0.1468  0.1567 -0.0003
14839TIP3    H166008   0.011   1.025   2.987 -0.9793  1.4527  0.1839
14839TIP3    H266009   0.069   1.030   3.127 -0.3271  0.1951 -0.0166
14840TIP3   OH266010   1.354   4.154   5.241 -0.2723  0.1201  0.7824
14840TIP3    H166011   1.410   4.140   5.317 -0.8139 -1.2778  0.9576
14840TIP3    H266012   1.413   4.153   5.166  0.0788 -0.0421  1.0600
14841TIP3   OH266013   2.700   1.858   2.871  0.3139 -0.0838 -0.3759
14841TIP3    H166014   2.753   1.910   2.931  1.8343 -1.3309 -0.5634
14841TIP3    H266015   2.614   1.853   2.912  0.5515  1.3573  0.3262
14842TIP3   OH266016   6.148   0.442  15.178 -0.1045 -0.0201 -0.6082
14842TIP3    H166017   6.215   0.373  15.180  1.7292  1.6052  2.1057
14842TIP3    H266018   6.181   0.506  15.116  0.5644  0.4492  0.2067
14843TIP3   OH266019   5.414   1.954   3.657 -0.5430  0.3163  0.0788
14843TIP3    H166020   5.402   1.869   3.616  1.1299 -0.2783  0.7222
14843TIP3    H266021   5.463   1.935   3.737 -1.0605  1.7815  0.7826
14844TIP3   OH266022   5.685   1.837  11.118 -0.0918  0.0212  0.0048
14844TIP3    H166023   5.742   1.839  11.041  0.5262 -0.2494  0.4470
14844TIP3    H266024   5.616   1.901  11.098  1.1337  1.4137  0.0370
14845TIP3   OH266025   2.174   5.148  15.514 -0.1528  0.0824 -0.2575
14845TIP3    H166026   2.200   5.168  15.425 -0.6593  0.6880 -0.2794
14845TIP3    H266027   2.082   5.174  15.519 -0.0990  0.1761  0.4708
14846TIP3   OH266028   0.309   3.635   4.784  0.1128  0.0662 -0.2702
14846TIP3    H166029   0.232   3.579   4.777  0.7683 -0.6707 -2.2550
14846TIP3    H266030   0.353   3.626   4.699  1.3839  1.9346  0.1286
14847TIP3   OH266031   6.775   1.578  17.287  0.7497 -0.0142 -0.3797
14847TIP3    H166032   6.714   1.626  17.231  0.6822 -0.1526 -0.4252
14847TIP3    H266033   6.859   1.584  17.241  0.9383  0.8237  0.0667
14848TIP3   OH266034   1.755   4.456  17.127  0.5677  0.1614 -0.0186
14848TIP3    H166035   1.797   4.542  17.128  0.6335  0.1318  0.8695
14848TIP3    H266036   1.796   4.408  17.199 -0.6847 -0.0134  0.6123
14849TIP3   OH266037   1.212   5.358  12.006 -0.8019  0.2161  0.1948
14849TIP3    H166038   1.187   5.345  12.098  1.3125 -1.2513  0.6339
14849TIP3    H266039   1.233   5.271  11.974  0.5276  0.9450 -1.0351
14850TIP3   OH266040   0.041   3.324   3.629  0.1565  0.5359 -0.1600
14850TIP3    H166041   0.109   3.277   3.676 -1.0197  0.1352  1.1817
14850TIP3    H266042   0.089   3.386   3.573  1.6132  0.0781  0.5483
14851TIP3   OH266043   2.200   4.543   0.350 -0.0897 -0.2599 -0.1691
14851TIP3    H166044   2.190   4.455   0.387 -0.3083 -0.3775 -0.5092
14851TIP3    H266045   2.292   4.565   0.366 -0.6028  0.5083  2.2543
14852TIP3   OH266046   5.788   1.623  15.251  0.0624 -0.1836  0.0873
14852TIP3    H166047   5.843   1.550  15.223 -2.6016 -1.7186 -1.6318
14852TIP3    H266048   5.777   1.676  15.172  0.3810  1.0360  0.8327
14853TIP3   OH266049   0.651   5.029   0.606  0.5502 -0.0756 -0.3381
14853TIP3    H166050   0.735   5.070   0.627 -0.5901  0.8783  3.1439
14853TIP3    H266051   0.648   4.951   0.660  0.3864 -1.8864 -2.7955
14854TIP3   OH266052   0.903   0.705  11.070  0.1164 -0.0168 -0.1008
14854TIP3    H166053   0.973   0.641  11.084 -0.8972 -1.1155  0.0663
14854TIP3    H266054   0.839   0.659  11.017 -1.4750  0.2105  1.5144
14855TIP3   OH266055   0.723   3.965   3.396  0.0460  0.1175  0.2381
14855TIP3    H166056   0.668   3.957   3.317 -0.0097  2.5976 -0.0747
14855TIP3    H266057   0.809   3.990   3.362  0.3380  0.0204  0.9051
14856TIP3   OH266058   0.576   4.986   2.572 -0.7920 -0.0559  0.1231
14856TIP3    H166059   0.497   4.976   2.520 -0.0605 -3.3649 -0.5602
14856TIP3    H266060   0.647   4.960   2.513  0.5199  0.1120  1.5621
14857TIP3   OH266061   3.383   4.164  16.211 -0.1446 -0.2772  0.0703
14857TIP3    H166062   3.325   4.210  16.271 -0.2870  0.4783 -0.6245
14857TIP3    H266063   3.455   4.225  16.196 -0.8292  0.1921 -1.6517
14858TIP3   OH266064   2.681   2.330   3.423  0.0179  0.5915 -0.3781
14858TIP3    H166065   2.597   2.338   3.378  0.4158  0.1189 -1.2294
14858TIP3    H266066   2.716   2.419   3.424 -1.0667  1.0464  1.1711
14859TIP3   OH266067   1.614   2.587   5.861 -0.2375 -0.0907 -0.0993
14859TIP3    H166068   1.522   2.564   5.845 -1.4075  3.0176  1.4142
14859TIP3    H266069   1.642   2.629   5.780 -0.3100 -0.5662 -0.3747
14860TIP3   OH266070   6.554   2.091   4.159 -0.1286  0.0033 -0.1868
14860TIP3    H166071   6.571   2.178   4.123 -2.4554  0.1612 -1.1052
14860TIP3    H266072   6.564   2.102   4.253 -3.8489  2.3509  0.1654
14861TIP3   OH266073   4.285   6.146  13.241  0.3784  0.1849  0.1403
14861TIP3    H166074   4.350   6.120  13.306 -0.1368 -0.6460  0.3462
14861TIP3    H266075   4.225   6.072  13.237 -0.6280  0.9807  0.0540
14862TIP3   OH266076   1.725   4.081  15.125 -0.3490 -0.1199  0.1679
14862TIP3    H166077   1.690   4.062  15.212  0.4880 -0.6046  0.4065
14862TIP3    H266078   1.666   4.034  15.065 -1.2835  0.7025  0.4131
14863TIP3   OH266079   4.216   6.297   4.481 -0.1718 -0.9207 -0.6794
14863TIP3    H166080   4.158   6.304   4.405 -0.0428  0.6628 -0.6671
14863TIP3    H266081   4.274   6.224   4.460 -0.4892 -0.8565 -1.8657
14864TIP3   OH266082   6.117   5.966  12.956 -0.4574  0.2752  0.1315
14864TIP3    H166083   6.138   5.964  12.863 -0.8672 -0.2692  0.0494
14864TIP3    H266084   6.121   5.875  12.984 -0.7969  0.3838  0.5458
14865TIP3   OH266085   3.744   5.059  13.566 -0.1123 -0.4991 -0.1307
14865TIP3    H166086   3.814   5.108  13.607 -1.0829  1.0533 -0.2473
14865TIP3    H266087   3.749   5.082  13.473  0.0798 -1.4720 -0.3716
14866TIP3   OH266088   5.089   5.850   5.852 -0.3710  0.3343 -0.2453
14866TIP3    H166089   5.128   5.828   5.937  0.7268  0.9071 -0.5792
14866TIP3    H266090   5.119   5.781   5.793 -0.1027  0.6144 -0.4395
14867TIP3   OH266091   5.365   5.767   5.327 -0.0482 -0.1282  0.1591
14867TIP3    H166092   5.379   5.827   5.400 -4.3981 -0.1565  1.2691
14867TIP3    H266093   5.362   5.680   5.367  0.8528 -0.5259 -0.6066
14868TIP3   OH266094   6.536   6.678   4.812  0.5467 -0.2725  0.1190
14868TIP3    H166095   6.532   6.766   4.775 -0.1036 -0.4819 -0.3326
14868TIP3    H266096   6.598   6.631   4.755  1.1863 -0.0099  0.5890
14869TIP3   OH266097   4.272   4.938   3.516  0.3665 -0.2294  0.0528
14869TIP3    H166098   4.288   5.000   3.586  1.1145  0.7307 -0.9339
14869TIP3    H266099   4.355   4.934   3.468 -0.0468 -1.0622 -0.6325
14870TIP3   OH266100   1.427   1.191   5.767  0.7429  0.4068 -0.1915
14870TIP3    H166101   1.342   1.176   5.724  1.2971 -0.6906 -0.9722
14870TIP3    H266102   1.461   1.103   5.782  1.4051  0.8243  0.8340
14871TIP3   OH266103   0.453   5.753   4.907 -0.1518  0.9874  0.0471
14871TIP3    H166104   0.467   5.751   5.002 -0.0053  0.7877  0.0217
14871TIP3    H266105   0.404   5.672   4.889  0.9435  0.3691 -0.2260
14872TIP3   OH266106   6.461   0.471  14.738 -0.4228  0.3660  0.1177
14872TIP3    H166107   6.541   0.438  14.696  0.0382  1.0465  0.4457
14872TIP3    H266108   6.390   0.427  14.691  0.1538 -0.9787  0.4302
14873TIP3   OH266109   5.167   0.702   2.143 -0.9578 -0.3487 -0.0730
14873TIP3    H166110   5.244   0.728   2.194 -0.0054 -0.1463 -1.5578
14873TIP3    H266111   5.093   0.714   2.203 -0.1185  1.8609  0.6114
14874TIP3   OH266112   2.269   3.928   3.461 -0.2598 -0.2707 -0.1619
14874TIP3    H166113   2.208   3.856   3.476 -0.9193  0.5726  1.5229
14874TIP3    H266114   2.302   3.950   3.548  0.0696  1.3235 -0.6597
14875TIP3   OH266115   3.148   4.980   4.182  0.0200  0.1300 -0.8910
14875TIP3    H166116   3.191   5.003   4.100  1.5242  0.8605  0.0591
14875TIP3    H266117   3.125   5.064   4.221 -1.2820 -0.2332 -0.8538
14876TIP3   OH266118   4.968   2.152  11.095 -0.6983 -0.2735  0.0442
14876TIP3    H166119   4.970   2.114  11.007 -0.4570  0.0846 -0.1062
14876TIP3    H266120   4.879   2.185  11.105 -0.1231  1.6647 -0.9198
14877TIP3   OH266121   2.558   5.149  12.195  0.1450  0.1235  0.1453
14877TIP3    H166122   2.563   5.056  12.170  0.4955 -0.5099  2.3264
14877TIP3    H266123   2.571   5.148  12.290  0.6007  2.4758  0.1458
14878TIP3   OH266124   3.945   1.996  12.636  0.0446 -0.5552 -0.4269
14878TIP3    H166125   3.902   1.913  12.657 -1.6757  0.2314 -0.6649
14878TIP3    H266126   4.000   2.014  12.712 -0.5133 -1.3039  0.1689
14879TIP3   OH266127   0.700   4.102  14.086  0.1828  0.3192 -0.1170
14879TIP3    H166128   0.754   4.181  14.079  1.9338 -0.6062  1.7696
14879TIP3    H266129   0.735   4.044  14.018 -0.3717  0.7430 -0.7767
14880TIP3   OH266130   1.633   1.793  12.931 -0.5163 -0.3768  0.3394
14880TIP3    H166131   1.577   1.810  12.855 -0.5521 -1.0381  0.2174
14880TIP3    H266132   1.599   1.712  12.969  0.0375 -0.5090  0.5670
14881TIP3   OH266133   5.389   2.602   3.252  0.1133 -0.1630  0.4128
14881TIP3    H166134   5.320   2.536   3.248  0.2506 -0.2727 -0.3949
14881TIP3    H266135   5.371   2.652   3.332 -1.3176  0.2788 -0.1622
14882TIP3   OH266136   1.200   3.787  15.930  0.4621  0.2344 -0.2772
14882TIP3    H166137   1.171   3.861  15.877 -2.8212 -0.1351  0.7534
14882TIP3    H266138   1.245   3.729  15.868 -1.9741  0.4526 -2.4211
14883TIP3   OH266139   3.032   4.189   3.560  0.0340 -0.1557 -0.5019
14883TIP3    H166140   3.071   4.204   3.646  0.4783  1.6942 -0.9872
14883TIP3    H266141   2.963   4.125   3.576  0.1591  0.0991  1.2212
14884TIP3   OH266142   6.043   3.804   2.128  0.0087  0.0940 -0.0112
14884TIP3    H166143   6.031   3.898   2.139  2.0637  0.2575  1.4586
14884TIP3    H266144   6.049   3.770   2.218  1.1606 -1.1394 -0.5178
14885TIP3   OH266145   6.625   2.148   0.530 -0.3151  0.0724  0.0808
14885TIP3    H166146   6.616   2.233   0.573  1.9189 -0.4326  1.7181
14885TIP3    H266147   6.692   2.163   0.463  0.2185 -0.4126  0.4990
14886TIP3   OH266148   0.244   1.932  11.337  0.2043  0.0862 -0.1875
14886TIP3    H166149   0.245   1.837  11.320 -0.5115  0.1405 -0.5761
14886TIP3    H266150   0.163   1.962  11.296 -0.5905  0.5542  1.6184
14887TIP3   OH266151   1.949   2.009   5.009  0.1976  0.1745 -0.8422
14887TIP3    H166152   1.908   2.063   4.942 -0.1448 -1.2097 -1.7876
14887TIP3    H266153   1.991   2.072   5.068  0.6422  1.4253 -2.4309
14888TIP3   OH266154   1.693   4.227   1.502  0.5199 -0.0461  0.0156
14888TIP3    H166155   1.657   4.178   1.576  1.0676 -0.4495  0.0148
14888TIP3    H266156   1.747   4.164   1.456 -1.0194 -0.2548 -1.6243
14889TIP3   OH266157   2.351   0.865   4.304 -0.1357 -0.0148  0.3381
14889TIP3    H166158   2.372   0.940   4.359  0.0882 -0.3277  0.6884
14889TIP3    H266159   2.291   0.899   4.238 -1.0251  0.2160  1.2302
14890TIP3   OH266160   3.783   3.717  12.697  0.1594  0.3959  0.2042
14890TIP3    H166161   3.865   3.754  12.730 -0.8436  1.2572  1.8539
14890TIP3    H266162   3.754   3.658  12.767 -0.3156 -0.4025 -0.6482
14891TIP3   OH266163   0.815   6.212  16.215  0.2540  0.2358 -0.1203
14891TIP3    H166164   0.750   6.217  16.285  0.6512  3.1731  0.1318
14891TIP3    H266165   0.779   6.265  16.144  0.7869 -1.0458 -1.4042
14892TIP3   OH266166   2.842   5.424   0.230 -0.1004  0.0637  0.0889
14892TIP3    H166167   2.863   5.503   0.180  0.8240 -1.3304 -1.8867
14892TIP3    H266168   2.749   5.432   0.249 -0.0156  1.6342 -0.0105
14893TIP3   OH266169   5.876   0.727  10.865  0.2693  0.6662  0.5328
14893TIP3    H166170   5.823   0.652  10.836  1.1692 -0.1733  0.9973
14893TIP3    H266171   5.856   0.736  10.958  1.9121 -0.5275  1.0467
14894TIP3   OH266172   0.248   3.185   0.975 -0.1919 -0.3796 -0.1007
14894TIP3    H166173   0.311   3.175   0.904  1.2762  0.0370  1.0885
14894TIP3    H266174   0.183   3.117   0.960  0.9061 -1.2538 -1.0129
14895TIP3   OH266175   4.443   6.128   4.444  0.5461  0.3502  0.3906
14895TIP3    H166176   4.536   6.146   4.429  0.5666 -0.5661 -0.7533
14895TIP3    H266177   4.442   6.046   4.494  0.3544  0.0254 -0.1333
14896TIP3   OH266178   0.409   3.713   3.957 -0.2450 -0.5154  0.1177
14896TIP3    H166179   0.349   3.653   3.914  1.6748 -0.5385 -2.7779
14896TIP3    H266180   0.357   3.792   3.972 -1.5903 -1.3137 -0.1536
14897TIP3   OH266181   4.152   1.875   2.124 -0.3551 -0.2846  0.5171
14897TIP3    H166182   4.210   1.802   2.144  0.5831 -0.4377 -2.3254
14897TIP3    H266183   4.183   1.946   2.180  1.4476 -0.8955  0.3798
14898TIP3   OH266184   5.660   5.553   4.894 -0.2671  0.3934 -0.5177
14898TIP3    H166185   5.738   5.582   4.941 -1.4166  1.5218  0.7712
14898TIP3    H266186   5.594   5.621   4.911 -1.2768 -0.0397 -2.3382
14899TIP3   OH266187   4.899   1.934   4.022  0.2485 -0.1287  0.7031
14899TIP3    H166188   4.921   1.873   3.951  0.8307  0.2152  0.5798
14899TIP3    H266189   4.932   2.018   3.991  0.1936  0.0867  1.2357
14900TIP3   OH266190   6.429   4.591   3.729 -0.0748 -0.4635 -0.2663
14900TIP3    H166191   6.501   4.654   3.734 -1.1888  0.9677 -1.3868
14900TIP3    H266192   6.370   4.616   3.800 -0.4315 -0.3566 -0.5962
14901TIP3   OH266193   0.095   4.202  14.890 -0.0073 -0.2609 -0.3690
14901TIP3    H166194   0.074   4.290  14.861  1.9962 -0.2810 -2.1491
14901TIP3    H266195   0.176   4.211  14.941 -0.5351 -0.9248  0.6323
14902TIP3   OH266196   1.519   4.273   4.948  0.2162  0.1910  0.1016
14902TIP3    H166197   1.464   4.347   4.924  1.1149  0.3068 -1.8742
14902TIP3    H266198   1.584   4.309   5.008  0.9277  1.1867 -1.1924
14903TIP3   OH266199   4.996   3.217  13.752  0.0363  0.2385  0.0312
14903TIP3    H166200   4.953   3.279  13.694 -1.9025 -1.5094 -0.5262
14903TIP3    H266201   5.033   3.151  13.693 -1.6104 -1.3499  0.6813
14904TIP3   OH266202   4.011   0.581   5.811  0.1081 -0.1954 -0.0792
14904TIP3    H166203   4.052   0.503   5.774  0.9118  1.0658 -2.0184
14904TIP3    H266204   3.917   0.560   5.813  0.1183 -0.6380 -2.1542
14905TIP3   OH266205   3.153   3.623   5.693 -0.0177 -0.1963 -0.6833
14905TIP3    H166206   3.221   3.646   5.757  0.3078 -1.4416 -0.5549
14905TIP3    H266207   3.138   3.529   5.707  0.6705 -0.7129 -2.9746
14906TIP3   OH266208   5.441   3.055   6.371 -0.2693 -0.2351  0.4789
14906TIP3    H166209   5.528   3.038   6.336 -0.0656  0.3852  0.6728
14906TIP3    H266210   5.456   3.077   6.463 -0.5215  0.8251  0.2867
14907TIP3   OH266211   1.208   4.746   5.089 -0.1788 -0.0294  0.0938
14907TIP3    H166212   1.184   4.838   5.101  0.7958  0.3693 -0.8805
14907TIP3    H266213   1.202   4.708   5.177 -2.6495  0.4325  0.1932
14908TIP3   OH266214   3.600   6.096  15.151  0.0223 -0.9744 -0.3459
14908TIP3    H166215   3.633   6.132  15.068  2.5784  0.4380  1.1632
14908TIP3    H266216   3.678   6.069  15.199 -1.4411 -2.5583  1.3186
14909TIP3   OH266217   5.083   3.425   3.577 -0.3445  0.3861  0.4593
14909TIP3    H166218   5.149   3.390   3.517 -0.5660  1.9821 -0.7784
14909TIP3    H266219   5.033   3.347   3.604  1.6320 -0.7668  0.9788
14910TIP3   OH266220   5.597   6.374  12.753 -0.1742 -0.5057 -0.1470
14910TIP3    H166221   5.683   6.379  12.713  0.3872 -0.6183  1.0131
14910TIP3    H266222   5.547   6.445  12.713  0.1838 -0.9455 -1.4218
14911TIP3   OH266223   5.078   2.720   4.752  0.1616  0.1270  0.2248
14911TIP3    H166224   5.125   2.649   4.796  1.5617  1.5514  1.1283
14911TIP3    H266225   5.039   2.679   4.675  0.3210 -1.7659  1.1150
14912TIP3   OH266226   4.619   6.451  13.325  0.2045 -0.5588  0.3373
14912TIP3    H166227   4.668   6.532  13.309 -1.2416  0.5118  1.1063
14912TIP3    H266228   4.535   6.480  13.359 -0.5372 -2.3900  0.1911
14913TIP3   OH266229   3.994   1.401   1.120  0.3264 -0.1410  0.4659
14913TIP3    H166230   3.950   1.474   1.163 -0.3604 -0.5087  0.4128
14913TIP3    H266231   3.929   1.331   1.121  1.6594 -1.4447  2.3389
14914TIP3   OH266232   6.332   3.158   0.242  0.2644  0.1310  0.6065
14914TIP3    H166233   6.245   3.124   0.222  0.6513 -1.3263  1.2587
14914TIP3    H266234   6.356   3.209   0.165 -0.7818 -0.2296  0.0180
14915TIP3   OH266235   5.051   3.393   1.028  0.2617  0.0988 -0.0606
14915TIP3    H166236   5.082   3.306   1.005 -1.5568 -0.8181  0.7723
14915TIP3    H266237   5.105   3.419   1.103  0.9839 -0.1800 -0.4696
14916TIP3   OH266238   5.044   3.885   3.796 -0.5987  0.5646 -0.1817
14916TIP3    H166239   4.997   3.820   3.744 -1.1985  0.9015 -0.0705
14916TIP3    H266240   4.992   3.965   3.788  0.3642  1.1698 -0.6870
14917TIP3   OH266241   1.597   2.508   1.993 -0.2159  0.5869 -0.6135
14917TIP3    H166242   1.524   2.508   1.931 -0.1111 -2.6169 -0.8826
14917TIP3    H266243   1.675   2.516   1.937 -0.2401  1.8252 -0.4993
14918TIP3   OH266244   1.875   5.718  16.752  0.1803  0.1288  0.1263
14918TIP3    H166245   1.858   5.727  16.659  0.1423 -0.7720  0.0387
14918TIP3    H266246   1.915   5.631  16.761  1.3593  0.7203  0.7867
14919TIP3   OH266247   3.592   2.136  13.199 -0.7454 -0.2688  0.1550
14919TIP3    H166248   3.598   2.228  13.224  0.6913 -0.4054  0.3977
14919TIP3    H266249   3.507   2.128  13.156 -0.6849  1.2683 -0.2953
14920TIP3   OH266250   1.389   6.473  12.941  0.1802 -0.4383 -0.1745
14920TIP3    H166251   1.445   6.491  13.017 -1.1939 -0.3116  0.8327
14920TIP3    H266252   1.371   6.559  12.904  0.3669 -0.4487 -0.2889
14921TIP3   OH266253   0.991   1.276   0.155 -0.4862  0.0922  0.3157
14921TIP3    H166254   1.076   1.316   0.138 -0.7069  0.4077 -0.0654
14921TIP3    H266255   0.999   1.187   0.122 -0.3604  0.1742  0.1235
14922TIP3   OH266256   1.462   5.664  15.665  0.5952  0.1300 -0.3904
14922TIP3    H166257   1.398   5.694  15.599  0.8064 -1.1687 -1.2109
14922TIP3    H266258   1.463   5.735  15.730  0.5651  1.5733 -1.8937
14923TIP3   OH266259   0.921   5.502  12.963  0.5944  0.1615  0.3034
14923TIP3    H166260   0.916   5.598  12.963  1.4249  0.2163  0.4772
14923TIP3    H266261   0.836   5.473  12.930 -0.8301  0.8820  3.0020
14924TIP3   OH266262   0.750   2.944   6.393 -0.0888 -0.2604  0.0210
14924TIP3    H166263   0.741   3.030   6.435 -0.8064  0.1011 -0.8564
14924TIP3    H266264   0.715   2.883   6.458  1.4238 -0.0373  1.1039
14925TIP3   OH266265   6.021   6.327   5.556 -0.0160  0.2385 -0.1257
14925TIP3    H166266   6.053   6.321   5.466 -0.2372  1.7040 -0.3338
14925TIP3    H266267   6.097   6.306   5.610  1.0896  2.6055 -0.6275
14926TIP3   OH266268   1.275   1.192   3.987 -0.1577 -0.2269  0.0964
14926TIP3    H166269   1.299   1.255   3.920  0.2344 -1.8274 -1.3424
14926TIP3    H266270   1.181   1.179   3.974 -0.4077  0.6210  0.9290
14927TIP3   OH266271   4.572   5.682  15.688  0.1398 -0.4933  0.0330
14927TIP3    H166272   4.554   5.748  15.620 -1.0974  0.0999  0.8991
14927TIP3    H266273   4.511   5.610  15.668 -1.1752  0.2426  1.2447
14928TIP3   OH266274   5.578   0.598  17.430  0.4340 -0.3322  0.5504
14928TIP3    H166275   5.611   0.620  17.343 -0.9873  0.7328  0.2369
14928TIP3    H266276   5.543   0.509  17.420 -1.2136  0.3829 -0.4578
14929TIP3   OH266277   5.855   0.257  11.722 -0.5073 -0.1513  0.5483
14929TIP3    H166278   5.862   0.346  11.757 -1.4666  0.1147  0.1116
14929TIP3    H266279   5.763   0.249  11.697 -0.4423 -1.3031  0.6521
14930TIP3   OH266280   6.001   6.353   3.407 -0.0286 -0.2617 -0.0197
14930TIP3    H166281   6.072   6.392   3.356  1.4149 -1.2515  1.1769
14930TIP3    H266282   5.947   6.307   3.341  0.0818  0.9706 -1.0088
14931TIP3   OH266283   3.063   0.393   5.766  0.1431  0.6407  0.2209
14931TIP3    H166284   3.090   0.392   5.858 -1.8944  1.0233  0.8864
14931TIP3    H266285   3.065   0.486   5.741  0.5145  0.5577 -0.0551
14932TIP3   OH266286   6.556   0.099  11.790 -0.1751 -0.5633  0.2180
14932TIP3    H166287   6.484   0.122  11.731 -0.6356 -0.6880  0.7244
14932TIP3    H266288   6.616   0.048  11.735 -0.0663  0.2248 -0.4221
14933TIP3   OH266289   1.113   2.877  12.522  0.4800  0.0278 -0.3116
14933TIP3    H166290   1.095   2.961  12.565  1.5482  0.1521 -0.0817
14933TIP3    H266291   1.083   2.890  12.432  1.8896  1.1525 -0.6537
14934TIP3   OH266292   1.556   3.042   6.761 -0.3014 -0.4975  0.0146
14934TIP3    H166293   1.591   3.099   6.693  0.6277 -1.9881 -0.7931
14934TIP3    H266294   1.471   3.014   6.727 -0.3707 -0.2937  0.0185
14935TIP3   OH266295   5.967   0.543  17.310 -0.2729 -0.9482  0.1801
14935TIP3    H166296   5.909   0.472  17.284 -0.6890 -0.7489  0.5601
14935TIP3    H266297   5.933   0.573  17.394 -1.3628  1.0807 -0.9140
14936TIP3   OH266298   2.724   1.413   4.110 -0.3042 -0.6061  0.0848
14936TIP3    H166299   2.730   1.508   4.122 -2.1857 -0.5590  0.9484
14936TIP3    H266300   2.651   1.386   4.165 -0.1606 -2.4898 -0.5753
14937TIP3   OH266301   3.743   1.096  12.937 -0.4329 -0.4627  0.3270
14937TIP3    H166302   3.738   1.032  13.008  0.4552  1.6247  2.3926
14937TIP3    H266303   3.831   1.086  12.901 -1.6977 -3.4170 -2.5867
14938TIP3   OH266304   3.899   1.982  14.214 -0.7581  0.1298 -0.1959
14938TIP3    H166305   3.822   2.032  14.186 -0.8278 -0.1336 -0.4845
14938TIP3    H266306   3.890   1.898  14.170 -0.8495 -0.2852  0.5960
14939TIP3   OH266307   4.348   6.001   3.485 -0.4575  0.0163 -0.5314
14939TIP3    H166308   4.296   5.998   3.405  0.5464 -0.2369 -1.1814
14939TIP3    H266309   4.330   5.918   3.529  1.9848 -1.6583 -2.4395
14940TIP3   OH266310   6.014   0.782  12.220  0.3147  0.8620  0.1223
14940TIP3    H166311   5.950   0.772  12.290 -0.4159  2.8449 -0.1795
14940TIP3    H266312   6.098   0.761  12.261 -0.1588  1.4323  1.4572
14941TIP3   OH266313   1.735   0.953  13.322 -0.1115  0.0473 -0.5290
14941TIP3    H166314   1.810   0.931  13.378 -1.0913  0.3902  0.9863
14941TIP3    H266315   1.703   0.868  13.291  2.0719 -0.0173 -2.8824
14942TIP3   OH266316   5.270   5.186  14.656 -0.7621 -0.2427  0.6306
14942TIP3    H166317   5.345   5.240  14.682 -1.2028  1.4373 -1.3488
14942TIP3    H266318   5.226   5.165  14.739 -0.3321  2.1039  1.5184
14943TIP3   OH266319   1.630   5.260   2.125 -0.0374  0.3043 -0.4746
14943TIP3    H166320   1.648   5.215   2.207 -0.0177  0.1805 -0.5466
14943TIP3    H266321   1.683   5.340   2.129  0.5213 -0.0508 -0.6787
14944TIP3   OH266322   3.033   3.486  13.045  0.3945  0.3428 -0.0830
14944TIP3    H166323   3.101   3.554  13.046 -0.2847  1.0353  0.4813
14944TIP3    H266324   3.073   3.412  13.090  0.5880  0.9449  0.7690
14945TIP3   OH266325   3.325   5.471   4.577 -0.3177  0.4380  0.4475
14945TIP3    H166326   3.409   5.486   4.620  0.5468  0.7805 -1.2909
14945TIP3    H266327   3.345   5.469   4.484 -2.1296 -0.2962  0.0309
14946TIP3   OH266328   3.567   6.721  13.177 -0.6579 -0.0694  0.1660
14946TIP3    H166329   3.634   6.709  13.244 -0.8701 -0.8167  0.2593
14946TIP3    H266330   3.579   6.810  13.146  0.3621 -0.1935  0.1913
14947TIP3   OH266331   1.535   3.411  16.244  0.5473  0.0032  0.4616
14947TIP3    H166332   1.500   3.497  16.222  0.4257 -0.0604  0.4033
14947TIP3    H266333   1.512   3.398  16.336  2.2825  0.8697  1.0634
14948TIP3   OH266334   0.437   1.873   2.398 -0.1280 -0.0532  0.0059
14948TIP3    H166335   0.388   1.845   2.476 -0.1143 -0.4796 -0.1375
14948TIP3    H266336   0.439   1.968   2.405 -2.3043  0.1228 -0.7622
14949TIP3   OH266337   3.183   1.567   5.092 -0.5265 -0.4488  0.2274
14949TIP3    H166338   3.275   1.562   5.119  0.2766 -1.7237 -2.3838
14949TIP3    H266339   3.181   1.636   5.026 -1.3755 -0.6629  0.0187
14950TIP3   OH266340   3.920   3.260  13.827  0.6947 -0.1889 -0.6939
14950TIP3    H166341   3.972   3.294  13.754 -1.0063 -0.6960 -2.2147
14950TIP3    H266342   3.852   3.325  13.840  0.6723 -0.3647  0.1206
14951TIP3   OH266343   6.002   3.752  13.678 -0.0547 -0.3551 -0.5213
14951TIP3    H166344   6.047   3.800  13.749 -0.6541 -1.4450  0.6365
14951TIP3    H266345   5.910   3.773  13.691 -0.2920 -1.5244 -0.2010
14952TIP3   OH266346   4.748   4.065  14.195 -0.1263 -0.5397  0.7096
14952TIP3    H166347   4.717   3.999  14.256  2.6476 -2.5826  0.1063
14952TIP3    H266348   4.798   4.016  14.130 -1.3654  1.7448 -2.2004
14953TIP3   OH266349   5.446   5.247   1.348  0.8018 -0.7104  0.6349
14953TIP3    H166350   5.418   5.209   1.432 -0.6891 -0.5666  0.2263
14953TIP3    H266351   5.398   5.329   1.341  1.5063 -0.3368 -0.0140
14954TIP3   OH266352   6.178   6.339  12.845 -0.0802 -0.4942  0.0528
14954TIP3    H166353   6.234   6.282  12.793 -0.7460 -0.8290 -0.3046
14954TIP3    H266354   6.237   6.406  12.880  1.1129 -2.4606  2.0673
14955TIP3   OH266355   4.226   3.989  14.897 -0.3037  0.0294  0.0249
14955TIP3    H166356   4.233   4.009  14.990  0.7649  0.0205 -0.0352
14955TIP3    H266357   4.201   3.897  14.894 -0.8774  0.1734  0.2998
14956TIP3   OH266358   4.038   1.987   6.183 -0.2730  0.1743  0.5985
14956TIP3    H166359   4.071   2.001   6.094  0.2813 -1.1779  0.5831
14956TIP3    H266360   4.113   2.004   6.239 -0.2730 -0.2474  0.7274
14957TIP3   OH266361   5.941   4.183  16.558  0.1802  0.1660  0.3678
14957TIP3    H166362   5.952   4.220  16.471 -0.6328 -0.7570 -0.1453
14957TIP3    H266363   5.846   4.184  16.574  0.0820 -1.8020  0.2390
14958TIP3   OH266364   2.880   5.035  14.908 -0.4134 -0.0972 -0.0398
14958TIP3    H166365   2.954   4.979  14.934  0.3968  0.6491 -0.6708
14958TIP3    H266366   2.808   5.007  14.964  0.1154 -1.4174  0.0208
14959TIP3   OH266367   6.078   3.820  17.109  0.1637 -0.8005 -0.5548
14959TIP3    H166368   6.095   3.790  17.020  1.1902  0.7375 -0.9129
14959TIP3    H266369   6.156   3.870  17.133 -2.0706  3.1305 -0.7127
14960TIP3   OH266370   4.938   3.041   2.509 -0.3436 -0.3265  0.2830
14960TIP3    H166371   4.929   2.957   2.554  1.1140 -0.7374 -0.1334
14960TIP3    H266372   4.849   3.073   2.500 -0.9720 -2.0477  0.0323
14961TIP3   OH266373   2.598   0.639  16.874 -0.0162 -0.6667 -0.2848
14961TIP3    H166374   2.518   0.628  16.822  0.4317  1.0213 -1.4554
14961TIP3    H266375   2.668   0.643  16.808  0.6276  1.1029  0.4397
14962TIP3   OH266376   6.480   5.963  13.218 -0.1631 -0.5544  0.1549
14962TIP3    H166377   6.464   5.970  13.312  1.0313  1.1314  0.2766
14962TIP3    H266378   6.531   5.882  13.209  1.3211  0.1944  1.2513
14963TIP3   OH266379   0.856   6.063  14.051 -0.1961 -0.1889  0.0277
14963TIP3    H166380   0.919   6.010  14.101  0.0668  0.3108  0.2362
14963TIP3    H266381   0.809   5.999  13.998 -1.0224 -0.8345  1.4703
14964TIP3   OH266382   2.999   5.889  16.973  0.1960  0.7766 -0.3284
14964TIP3    H166383   3.065   5.866  16.908 -0.3406  0.3797 -0.7421
14964TIP3    H266384   2.969   5.976  16.947 -2.3382 -0.6208 -2.6161
14965TIP3   OH266385   0.056   0.959  11.864  0.0356  0.1535  0.2307
14965TIP3    H166386   0.121   0.988  11.800 -1.1657  1.1374 -0.5844
14965TIP3    H266387   0.062   1.023  11.935  0.2241 -0.0056  0.3638
14966TIP3   OH266388   4.548   1.037   2.077 -0.5674 -0.1246 -0.4877
14966TIP3    H166389   4.629   1.030   2.027  0.1216  0.0147  0.5745
14966TIP3    H266390   4.481   1.056   2.012  0.3154  0.1235 -1.3439
14967TIP3   OH266391   2.807   2.984  14.609 -0.1249 -0.1656  0.1407
14967TIP3    H166392   2.818   3.056  14.547  0.1431 -1.5808 -1.5169
14967TIP3    H266393   2.714   2.982  14.628 -0.4321 -0.5244 -1.2786
14968TIP3   OH266394   0.091   5.710  13.483  0.2145  0.2448  0.3713
14968TIP3    H166395   0.170   5.658  13.499  0.8306  0.3208 -1.9514
14968TIP3    H266396   0.022   5.646  13.466  0.0305  0.1812  1.3474
14969TIP3   OH266397   1.146   2.718  16.980  0.4957  0.3356 -0.4299
14969TIP3    H166398   1.239   2.714  16.957  0.6512  1.0180  0.0295
14969TIP3    H266399   1.145   2.766  17.063 -0.2059 -0.3821 -0.0243
14970TIP3   OH266400   1.280   0.725   5.127 -0.1473  0.2644  0.0620
14970TIP3    H166401   1.265   0.758   5.039  0.6411 -1.0933 -0.6196
14970TIP3    H266402   1.296   0.631   5.115  0.6869  0.1782  1.5636
14971TIP3   OH266403   4.001   5.337  12.644 -0.4288 -0.1930 -0.7416
14971TIP3    H166404   4.086   5.378  12.663  0.2054 -2.0842  0.8571
14971TIP3    H266405   3.937   5.403  12.669  0.5700  0.6130 -0.2245
14972TIP3   OH266406   6.078   1.473   0.309 -0.2196 -0.3460 -0.1637
14972TIP3    H166407   6.117   1.546   0.358 -1.9426  0.1249  0.6188
14972TIP3    H266408   5.986   1.472   0.338 -0.0891 -3.3628  0.4871
14973TIP3   OH266409   0.012   0.623   5.519 -0.3413  0.2674 -0.1548
14973TIP3    H166410   0.084   0.573   5.480 -0.0451  0.7131 -0.1916
14973TIP3    H266411  -0.066   0.592   5.474 -0.3947 -1.3462  0.9533
14974TIP3   OH266412   5.024   1.220  11.621 -0.1762  0.2802  0.3519
14974TIP3    H166413   5.017   1.216  11.525 -1.6232  1.1847  0.3867
14974TIP3    H266414   5.118   1.231  11.638  0.2000 -0.7811 -0.9146
14975TIP3   OH266415   2.986   1.644   3.847  0.5913  0.4339 -0.1034
14975TIP3    H166416   2.960   1.645   3.755  0.7238 -0.3087 -0.1563
14975TIP3    H266417   3.052   1.712   3.854  0.7353  0.3513 -0.6102
14976TIP3   OH266418   4.861   1.297   3.734  0.5636 -0.1328  0.6079
14976TIP3    H166419   4.788   1.236   3.738  2.2742 -2.2855  0.7302
14976TIP3    H266420   4.867   1.334   3.822  0.4975 -1.0606  1.0127
14977TIP3   OH266421   1.299   1.597  14.288 -0.1308  0.1912 -0.0076
14977TIP3    H166422   1.258   1.519  14.250  0.6288  0.0639 -0.5805
14977TIP3    H266423   1.320   1.652  14.213 -1.4839  1.3836  0.4358
14978TIP3   OH266424   1.549   0.683   3.304 -0.1754  0.7316  0.2388
14978TIP3    H166425   1.547   0.587   3.313  2.9471  0.6542  1.4654
14978TIP3    H266426   1.630   0.701   3.257 -1.5436  2.7846 -1.5274
14979TIP3   OH266427   6.441   5.050  15.226 -0.3917  0.2026 -0.0599
14979TIP3    H166428   6.534   5.038  15.245 -0.2696 -1.2412 -1.3313
14979TIP3    H266429   6.411   5.116  15.289  1.4666  0.6403  0.4101
14980TIP3   OH266430   0.118   0.139   1.816  0.8925 -0.1969  0.4561
14980TIP3    H166431   0.199   0.169   1.856  0.0596 -0.5973  2.5813
14980TIP3    H266432   0.054   0.206   1.839  0.0863 -1.1336  1.0257
14981TIP3   OH266433   5.128   6.381   0.997 -0.0134 -0.0286 -0.2847
14981TIP3    H166434   5.148   6.321   1.069  0.5933 -3.4939 -3.0856
14981TIP3    H266435   5.213   6.402   0.959 -0.3619  1.4765 -0.2968
14982TIP3   OH266436   1.732   2.151   1.975 -0.2660 -0.1377 -0.1408
14982TIP3    H166437   1.757   2.182   1.888 -0.4360  0.2338 -0.0604
14982TIP3    H266438   1.638   2.133   1.967 -0.4096  0.4894  0.1363
14983TIP3   OH266439   2.835   4.064  14.314 -0.4574  0.3357 -0.0453
14983TIP3    H166440   2.789   4.078  14.396 -2.0653  0.5577 -0.9439
14983TIP3    H266441   2.807   3.977  14.284  1.8579 -0.7409  0.6939
14984TIP3   OH266442   1.412   0.937  12.848 -0.2920 -0.5077  0.0821
14984TIP3    H166443   1.332   0.942  12.796 -1.7857 -4.3914  1.6754
14984TIP3    H266444   1.459   0.861  12.813  1.5514  0.2845  0.7295
14985TIP3   OH266445   6.223   1.714   6.679  0.3911 -0.0004  0.1306
14985TIP3    H166446   6.142   1.665   6.663 -1.2632  2.3769  0.6643
14985TIP3    H266447   6.210   1.753   6.765  1.5524  1.4568 -0.3218
14986TIP3   OH266448   6.143   0.320   5.425 -0.1150 -0.7538 -0.2836
14986TIP3    H166449   6.219   0.376   5.410  0.5309 -1.9822 -1.9803
14986TIP3    H266450   6.176   0.248   5.478  0.0182 -1.4144 -1.2221
14987TIP3   OH266451   0.156   3.649   0.006  0.7629  0.2244  0.8251
14987TIP3    H166452   0.158   3.745   0.006  0.5496  0.2296  0.0274
14987TIP3    H266453   0.234   3.623  -0.043 -0.3181  0.0231 -0.8277
14988TIP3   OH266454   3.071   2.477   4.960  0.1236 -0.2295 -0.2782
14988TIP3    H166455   3.155   2.513   4.932  0.5003 -0.5952  0.3492
14988TIP3    H266456   3.094   2.416   5.031 -0.4203 -2.0954 -1.6232
14989TIP3   OH266457   4.908   1.616  15.746 -0.1689  0.1832  0.2531
14989TIP3    H166458   4.962   1.610  15.667  0.8241 -0.7635  0.9661
14989TIP3    H266459   4.837   1.553  15.732 -0.4008  0.5351 -0.1729
14990TIP3   OH266460   4.423   2.789   3.356 -0.5401  0.2533  0.0382
14990TIP3    H166461   4.517   2.807   3.357 -0.3800 -0.3686  2.1786
14990TIP3    H266462   4.416   2.700   3.324 -0.5539  0.8218 -1.5979
14991TIP3   OH266463   2.980   6.173   5.607 -0.5111 -0.5027  0.4581
14991TIP3    H166464   3.016   6.245   5.659  2.3016  0.4843 -2.5154
14991TIP3    H266465   2.907   6.212   5.559  2.0080  1.1377 -2.4179
14992TIP3   OH266466   0.544   0.884   2.754  0.7577  0.1055 -0.1074
14992TIP3    H166467   0.517   0.942   2.825  2.1156 -0.9125  1.3170
14992TIP3    H266468   0.475   0.818   2.750  0.9095 -0.1108  0.6320
14993TIP3   OH266469   4.060   4.850   5.178 -0.1415 -0.4420  0.0805
14993TIP3    H166470   4.018   4.781   5.228 -0.6082  0.2233  0.6340
14993TIP3    H266471   4.115   4.896   5.242 -0.2957  0.0629 -0.1419
14994TIP3   OH266472   1.772   6.075   0.180  0.4368 -0.4105  0.3855
14994TIP3    H166473   1.689   6.060   0.134  1.2037  0.9469 -1.5478
14994TIP3    H266474   1.837   6.026   0.130  1.2657  0.9823  0.0446
14995TIP3   OH266475   1.641   5.102  13.321 -0.3257  0.3750 -0.4846
14995TIP3    H166476   1.691   5.030  13.283 -1.7658 -0.9984  0.0988
14995TIP3    H266477   1.562   5.061  13.356 -0.8364  2.1329  0.5892
14996TIP3   OH266478   3.262   6.674  12.306  0.2827 -0.3825 -0.0316
14996TIP3    H166479   3.224   6.677  12.218 -0.3993 -2.0118  0.1795
14996TIP3    H266480   3.209   6.611  12.353  0.8164  0.2580  1.4939
14997TIP3   OH266481   6.109   5.748  14.473  0.0833 -0.5915 -0.0733
14997TIP3    H166482   6.134   5.665  14.432  0.8181  1.1513 -3.5777
14997TIP3    H266483   6.024   5.769  14.435  0.9314  1.2647 -1.1212
14998TIP3   OH266484   2.576   0.723   0.585  0.5709  0.7504  0.1887
14998TIP3    H166485   2.537   0.777   0.655  0.6000 -0.0943  0.8712
14998TIP3    H266486   2.670   0.739   0.594  0.8533 -1.4316  2.1892
14999TIP3   OH266487   2.299   2.619  12.836 -0.2441 -0.4123 -0.3583
14999TIP3    H166488   2.217   2.648  12.798  0.5704  0.4172 -1.5482
14999TIP3    H266489   2.330   2.694  12.887 -1.8191 -1.8306  2.9548
15000TIP3   OH266490   5.347   6.229  11.625  0.3833 -0.3533 -0.0745
15000TIP3    H166491   5.396   6.148  11.638 -0.3056 -0.9889 -1.3099
15000TIP3    H266492   5.266   6.216  11.674  0.1906 -0.4999 -0.4273
15001TIP3   OH266493   3.766   5.934  15.583  0.0832  0.6870 -0.2399
15001TIP3    H166494   3.678   5.958  15.611 -0.1348 -0.0384 -0.2702
15001TIP3    H266495   3.819   5.937  15.663 -0.0410  0.8111 -0.1619
15002TIP3   OH266496   3.807   3.161   2.464  0.2672  0.4817  0.4326
15002TIP3    H166497   3.780   3.075   2.430  0.3123  0.8126 -0.4599
15002TIP3    H266498   3.902   3.162   2.452  0.1439  1.0778 -0.5696
15003TIP3   OH266499   5.377   3.430  12.829  0.0065 -0.3638 -0.3924
15003TIP3    H166500   5.450   3.464  12.777 -0.3768  0.7250 -0.2399
15003TIP3    H266501   5.384   3.476  12.912  0.0823 -1.4359  0.2085
15004TIP3   OH266502   0.476   2.252   1.265  0.1161  0.0523 -0.1102
15004TIP3    H166503   0.433   2.236   1.349 -0.5320  1.2174 -0.1987
15004TIP3    H266504   0.535   2.326   1.281 -1.1097  1.2810 -0.9979
15005TIP3   OH266505   4.039   1.217  12.087 -0.5933 -0.5251  0.0235
15005TIP3    H166506   4.018   1.262  12.169 -1.6458 -2.5517  0.9620
15005TIP3    H266507   3.995   1.268  12.019  0.9989  1.6881  0.5396
15006TIP3   OH266508   2.864   1.410  16.751  0.2948  0.3635  0.2324
15006TIP3    H166509   2.834   1.469  16.821 -0.7863  0.4286 -0.2564
15006TIP3    H266510   2.947   1.376  16.782 -0.3076  0.1524  1.7068
15007TIP3   OH266511   3.531   0.374  17.454  0.4015  0.1970  0.0189
15007TIP3    H166512   3.479   0.355  17.376  2.7852 -0.9160 -1.4096
15007TIP3    H266513   3.601   0.432  17.423 -0.6364  2.8669  2.1678
15008TIP3   OH266514   5.993   6.084   5.902  1.0627  0.1832  0.1812
15008TIP3    H166515   5.978   5.994   5.929  0.5009  0.6735  1.5930
15008TIP3    H266516   5.909   6.113   5.865  1.7605 -0.4123 -2.0366
15009TIP3   OH266517   0.049   1.359   5.014  0.3076 -0.1252  0.0910
15009TIP3    H166518   0.135   1.319   4.999  0.9865  2.0410 -2.7292
15009TIP3    H266519   0.068   1.452   5.028 -1.5160  0.1782  0.8081
15010TIP3   OH266520   6.476   2.862  14.024 -0.5913 -0.1657  0.0996
15010TIP3    H166521   6.387   2.873  14.057 -1.2521  2.9115 -2.2766
15010TIP3    H266522   6.466   2.817  13.940 -0.0881  1.1973 -0.7224
15011TIP3   OH266523   2.092   0.100   3.253 -0.0295 -0.0651  0.6270
15011TIP3    H166524   2.135   0.169   3.304  0.5473  1.4297 -1.7160
15011TIP3    H266525   2.123   0.018   3.291  2.0691  0.9802  1.2887
15012TIP3   OH266526   4.183   0.762  12.738  0.3774  0.4770  0.0336
15012TIP3    H166527   4.275   0.789  12.730  1.2201 -2.4919 -1.5491
15012TIP3    H266528   4.143   0.789  12.655  0.3999 -0.1461 -0.1860
15013TIP3   OH266529   5.735   1.443  17.203 -0.2390  0.3123  0.0419
15013TIP3    H166530   5.672   1.505  17.238 -0.0419  0.5613 -0.0358
15013TIP3    H266531   5.690   1.400  17.131 -0.5793 -0.0623  0.4684
15014TIP3   OH266532   0.791   4.597   3.059 -0.4676  0.7211 -0.3228
15014TIP3    H166533   0.885   4.616   3.064 -0.3342  0.2061 -0.7929
15014TIP3    H266534   0.755   4.635   3.139  0.3189 -0.0711  0.4454
15015TIP3   OH266535   3.427   2.971   4.658  0.5662 -0.0637 -0.4233
15015TIP3    H166536   3.407   3.006   4.571  1.8084 -0.7906 -1.0272
15015TIP3    H266537   3.512   3.009   4.680 -1.4744  3.5197  2.3767
15016TIP3   OH266538   1.240   5.257   0.903  0.5344 -0.6164 -0.2799
15016TIP3    H166539   1.241   5.352   0.911  3.4289 -0.3605 -2.2015
15016TIP3    H266540   1.316   5.228   0.954  0.3638 -1.7944 -0.6697
15017TIP3   OH266541   1.815   6.527   1.605 -0.3280 -0.2883 -0.1207
15017TIP3    H166542   1.905   6.504   1.580 -0.7824  0.1634 -2.4149
15017TIP3    H266543   1.770   6.443   1.612 -0.2132 -0.4530 -1.1237
15018TIP3   OH266544   6.648   5.611  16.591  0.1616 -0.1032 -0.6998
15018TIP3    H166545   6.721   5.674  16.592  0.2575 -0.2177 -0.5151
15018TIP3    H266546   6.653   5.570  16.505  1.7423 -1.7799  0.1242
15019TIP3   OH266547   0.066   6.426   5.395 -0.3968  0.0904 -0.3549
15019TIP3    H166548  -0.022   6.463   5.405 -0.5610 -0.1622 -0.8141
15019TIP3    H266549   0.053   6.332   5.407 -0.2616  0.0083 -0.8423
15020TIP3   OH266550   1.231   0.156  16.515  0.1322 -0.5482  0.7565
15020TIP3    H166551   1.174   0.191  16.583  1.4135 -1.8938  2.6390
15020TIP3    H266552   1.293   0.226  16.496 -1.8554  0.8483 -1.1526
15021TIP3   OH266553   5.607   2.736  13.301 -0.7463  0.5839  0.5770
15021TIP3    H166554   5.671   2.807  13.307 -0.0568  0.0590 -0.3341
15021TIP3    H266555   5.573   2.728  13.390 -0.2251  1.4937  0.8803
15022TIP3   OH266556   2.391   1.139  12.316 -0.2871 -0.0894 -0.3101
15022TIP3    H166557   2.356   1.156  12.229 -0.0857 -0.8535 -0.5415
15022TIP3    H266558   2.377   1.221  12.364  1.0646  0.9172 -1.5330
15023TIP3   OH266559   3.613   1.854   2.326  0.4871  0.2011  0.6827
15023TIP3    H166560   3.708   1.853   2.338  0.6244  0.9066 -0.1916
15023TIP3    H266561   3.586   1.940   2.358  0.2843  0.3782  0.0606
15024TIP3   OH266562   0.853   2.161   6.141  0.4107  0.1736  0.2369
15024TIP3    H166563   0.929   2.104   6.151 -0.0410 -0.5535 -0.3742
15024TIP3    H266564   0.787   2.124   6.199  0.5622  0.9097  0.9048
15025TIP3   OH266565   1.096   0.704  13.763 -0.8343 -0.0152  0.1481
15025TIP3    H166566   1.124   0.778  13.817 -1.7990  0.7787 -0.4111
15025TIP3    H266567   1.020   0.668  13.808 -0.5574 -0.4866  0.2517
15026TIP3   OH266568   4.291   1.701   3.714 -0.2093 -0.0543  0.5078
15026TIP3    H166569   4.253   1.774   3.762  1.1442  0.3169  1.0292
15026TIP3    H266570   4.362   1.670   3.768 -0.3482 -1.3574 -0.0178
15027TIP3   OH266571   3.997   0.159   0.420  0.3453 -0.3866 -0.1843
15027TIP3    H166572   3.902   0.163   0.409  0.3425 -1.6953 -0.9851
15027TIP3    H266573   4.031   0.225   0.360 -0.0765  0.9458  1.0023
15028TIP3   OH266574   3.303   6.089  11.436  0.3316  0.1763  0.3157
15028TIP3    H166575   3.315   6.100  11.342  1.3813 -0.2269  0.3870
15028TIP3    H266576   3.281   5.997  11.447 -1.9033  0.6432  0.3082
15029TIP3   OH266577   6.319   5.193   2.287  0.0057 -0.4928  0.3955
15029TIP3    H166578   6.312   5.110   2.334 -0.2540 -0.1423  0.9798
15029TIP3    H266579   6.231   5.209   2.253  0.1088 -0.5669  0.0887
15030TIP3   OH266580   2.871   6.752   0.886  0.5508  0.6261 -0.6695
15030TIP3    H166581   2.886   6.734   0.793 -0.1718 -1.5672 -0.4270
15030TIP3    H266582   2.780   6.727   0.902  0.8681  0.2308  0.7576
15031TIP3   OH266583   5.093   3.431  13.949  0.0102 -0.0635 -0.4080
15031TIP3    H166584   5.019   3.455  13.894 -2.0098 -0.5659  1.9257
15031TIP3    H266585   5.064   3.353  13.996  0.6595  1.5703  3.0087
15032TIP3   OH266586   2.489   3.187  12.652  0.1265 -0.0818  0.3256
15032TIP3    H166587   2.562   3.240  12.621  0.3737 -0.2708  0.5824
15032TIP3    H266588   2.416   3.249  12.659 -0.2026 -0.2264 -1.5619
15033TIP3   OH266589   2.189   6.738   6.462 -0.0585 -0.0282  0.1119
15033TIP3    H166590   2.190   6.652   6.504  0.9431 -0.1458 -0.1303
15033TIP3    H266591   2.138   6.794   6.521 -1.3564 -0.9612 -0.0868
15034TIP3   OH266592   1.832   3.154   1.062 -0.1781  0.5511  0.3410
15034TIP3    H166593   1.818   3.063   1.034  0.3178  0.3422  0.7531
15034TIP3    H266594   1.754   3.175   1.114 -0.2290  0.3089  0.3667
15035TIP3   OH266595   3.422   1.042  16.324 -1.0605 -0.4401  0.5891
15035TIP3    H166596   3.383   0.962  16.288  0.3516 -1.8722  2.0714
15035TIP3    H266597   3.507   1.014  16.359  0.8213  2.2587 -1.3570
15036TIP3   OH266598   5.046   6.222  15.652 -0.0594 -0.7122  0.0584
15036TIP3    H166599   5.057   6.249  15.743  0.8142 -1.4109  0.1765
15036TIP3    H266600   5.053   6.126  15.654  0.3836 -0.7104 -0.7908
15037TIP3   OH266601   5.200   2.593   2.929 -0.3430  0.0234  0.1822
15037TIP3    H166602   5.158   2.622   2.848 -0.2655 -1.1765 -0.3091
15037TIP3    H266603   5.262   2.663   2.950  0.1947  0.0159 -1.2332
15038TIP3   OH266604   5.720   6.602  13.302 -0.1762  0.4801 -1.1253
15038TIP3    H166605   5.781   6.590  13.229 -2.6613 -2.8377 -2.9096
15038TIP3    H266606   5.635   6.617  13.260 -1.1251  2.1487  1.2111
15039TIP3   OH266607   4.658   5.848  11.800  0.0729 -0.2505 -0.4488
15039TIP3    H166608   4.728   5.812  11.746  0.8697  1.6583 -0.7749
15039TIP3    H266609   4.631   5.928  11.755 -2.1184 -0.7459 -0.1549
15040TIP3   OH266610   2.630   2.715   1.772  0.2726 -0.2055  0.3687
15040TIP3    H166611   2.636   2.619   1.775  0.3334 -0.3512 -2.1480
15040TIP3    H266612   2.603   2.734   1.682 -1.0606  2.1048  1.1648
15041TIP3   OH266613   6.351   2.490  13.057 -0.5918 -0.0624 -0.3094
15041TIP3    H166614   6.365   2.569  13.005  0.1425  0.9762  1.3713
15041TIP3    H266615   6.269   2.506  13.104 -0.8671 -0.6579 -0.5803
15042TIP3   OH266616   3.553   3.348  13.265  0.2091 -0.4447 -0.2933
15042TIP3    H166617   3.574   3.282  13.198  0.8254 -0.9940  0.4242
15042TIP3    H266618   3.522   3.423  13.215 -1.2252 -1.5156 -1.1112
15043TIP3   OH266619   6.063   4.384   5.751  0.6136 -0.3457  0.4004
15043TIP3    H166620   6.067   4.474   5.784 -1.1762 -0.2260  0.4071
15043TIP3    H266621   6.077   4.393   5.657 -0.5269  0.0917  0.2522
15044TIP3   OH266622   0.811   4.501   1.874  0.1025 -0.3984  0.2327
15044TIP3    H166623   0.723   4.479   1.904  0.1287 -1.0630 -0.1541
15044TIP3    H266624   0.811   4.596   1.867 -0.7513 -0.4269 -0.2440
15045TIP3   OH266625   0.712   5.770   4.678 -0.4573  0.2413  0.0944
15045TIP3    H166626   0.801   5.798   4.658 -0.6554  1.0566  0.3219
15045TIP3    H266627   0.716   5.741   4.769 -0.2258 -0.6029 -0.1769
15046TIP3   OH266628   1.291   5.063   2.940  0.0842 -0.4916 -0.1824
15046TIP3    H166629   1.259   5.047   2.852 -1.6652  0.5052  0.2272
15046TIP3    H266630   1.268   5.155   2.958  2.5832  0.0965  0.4453
15047TIP3   OH266631   4.290   0.325  13.130  0.4784  0.5092 -0.8023
15047TIP3    H166632   4.223   0.272  13.173  0.4033 -0.9792 -2.6130
15047TIP3    H266633   4.372   0.278  13.145  0.6217  0.5958 -1.2820
15048TIP3   OH266634   3.633   3.356   1.523 -0.6357  0.0185 -0.0043
15048TIP3    H166635   3.715   3.326   1.561  0.0308  1.4996 -0.1845
15048TIP3    H266636   3.612   3.436   1.572 -1.3697  0.2798 -0.7243
15049TIP3   OH266637   5.789   1.936  10.518 -0.5897  0.2465  0.6199
15049TIP3    H166638   5.884   1.941  10.526 -0.6979 -0.0521  2.5067
15049TIP3    H266639   5.769   1.843  10.528 -1.1114  0.3290  0.3815
15050TIP3   OH266640   5.333   2.835   0.948  0.7302 -0.2025 -0.0269
15050TIP3    H166641   5.373   2.783   1.018 -0.2975 -0.8995  0.0626
15050TIP3    H266642   5.244   2.851   0.978  0.8333  1.1063 -0.3465
15051TIP3   OH266643   2.865   5.657   3.339 -0.9287 -0.0984 -0.0786
15051TIP3    H166644   2.927   5.706   3.285 -0.8693 -1.2241 -1.0773
15051TIP3    H266645   2.915   5.631   3.416 -0.8123  0.9337  0.2004
15052TIP3   OH266646   0.357   0.274  12.276  0.3005 -0.2904  0.2429
15052TIP3    H166647   0.319   0.244  12.359 -0.8858 -0.5352 -0.3701
15052TIP3    H266648   0.451   0.272  12.291  0.0986 -0.0407  1.6867
15053TIP3   OH266649   5.591   5.483   6.030  0.7420  0.0507  0.2383
15053TIP3    H166650   5.558   5.505   5.943 -0.0268  1.4154  0.8441
15053TIP3    H266651   5.681   5.454   6.014  0.5055 -0.0491 -1.0431
15054TIP3   OH266652   5.419   3.445  13.728  0.3238 -0.1191  0.2588
15054TIP3    H166653   5.459   3.456  13.642  0.4999 -1.2918  0.1825
15054TIP3    H266654   5.326   3.464  13.713  0.2296 -1.0028 -0.3473
15055TIP3   OH266655   1.148   3.870   6.486  0.2281  1.0695 -0.2728
15055TIP3    H166656   1.059   3.906   6.497  0.4797  1.8406 -0.6681
15055TIP3    H266657   1.199   3.913   6.554  0.2495  0.4099  0.1398
15056TIP3   OH266658   4.740   5.393  16.165 -0.1714  0.0152  0.2143
15056TIP3    H166659   4.743   5.465  16.228 -1.1891  1.4245 -1.2498
15056TIP3    H266660   4.832   5.372  16.149  0.1904  1.4158  0.2723
15057TIP3   OH266661   0.176   3.589   0.508  0.4835  0.2348 -0.7912
15057TIP3    H166662   0.267   3.560   0.503  0.4420  0.0536 -0.4753
15057TIP3    H266663   0.130   3.536   0.442  0.2445 -1.0377  0.3680
15058TIP3   OH266664   4.900   5.245  12.375  0.8803  0.2491 -0.4865
15058TIP3    H166665   4.974   5.198  12.336  2.1203  1.5142  0.2589
15058TIP3    H266666   4.940   5.317  12.424 -0.6077 -0.7532  2.4717
15059TIP3   OH266667   5.495   0.906   0.563  0.2641 -0.1468  0.3448
15059TIP3    H166668   5.584   0.933   0.586  0.7456  0.9266 -2.3855
15059TIP3    H266669   5.456   0.879   0.646  3.1813 -0.8754  1.6074
15060TIP3   OH266670   1.604   0.554   0.686 -0.1098  0.5706  0.5117
15060TIP3    H166671   1.699   0.550   0.697 -0.1816 -1.6038  0.8321
15060TIP3    H266672   1.592   0.561   0.591  0.3763  0.6119  0.4482
15061TIP3   OH266673   1.100   6.773  15.939  0.7832  0.3365 -0.6949
15061TIP3    H166674   1.131   6.715  15.869  0.9390  0.1294 -0.4557
15061TIP3    H266675   1.180   6.802  15.982  0.7803  1.5375 -1.4418
15062TIP3   OH266676   5.045   2.151   3.917  0.4913 -0.1580  0.1189
15062TIP3    H166677   5.012   2.155   3.828 -0.0006 -0.2714  0.2917
15062TIP3    H266678   5.137   2.129   3.908  0.3141 -0.7295 -0.3427
15063TIP3   OH266679   1.012   2.543   4.714 -0.4632 -0.3116 -0.2014
15063TIP3    H166680   1.098   2.551   4.672 -0.5126  1.6754 -0.0514
15063TIP3    H266681   0.968   2.474   4.665  0.3636  0.2526 -1.8362
15064TIP3   OH266682   4.961   3.318  14.989 -0.2173  0.3277  0.1684
15064TIP3    H166683   4.868   3.334  14.977 -0.1192  0.4462 -0.4847
15064TIP3    H266684   4.995   3.304  14.900  0.4666  0.7073  0.3611
15065TIP3   OH266685   1.871   6.675   5.093 -0.4449 -0.0218 -0.5298
15065TIP3    H166686   1.943   6.629   5.050  0.4241 -0.3796  1.2294
15065TIP3    H266687   1.799   6.613   5.092  0.0864 -0.6553  0.0037
15066TIP3   OH266688   6.296   4.444   1.836 -0.2408  0.5125 -0.0614
15066TIP3    H166689   6.283   4.407   1.749 -3.3866  2.7061 -0.6993
15066TIP3    H266690   6.304   4.539   1.821 -0.7817  0.9343  2.0062
15067TIP3   OH266691   0.530   1.350   1.844 -0.6304  0.4757 -0.3259
15067TIP3    H166692   0.474   1.347   1.766 -0.4588 -0.5499 -0.4211
15067TIP3    H266693   0.568   1.262   1.850 -0.3265  0.6628  0.6860
15068TIP3   OH266694   5.966   0.014   0.354  0.1195  0.0167 -0.1238
15068TIP3    H166695   6.001   0.023   0.443  1.0964 -1.4957 -0.3283
15068TIP3    H266696   5.876   0.046   0.361  0.7643  1.7312  0.9631
15069TIP3   OH266697   3.807   1.571  17.126 -0.3452  0.0970 -0.8354
15069TIP3    H166698   3.800   1.580  17.221 -1.8321 -0.3566 -0.8817
15069TIP3    H266699   3.848   1.485  17.113 -1.2194 -0.3755 -0.5935
15070TIP3   OH266700   0.174   4.949   4.789 -0.1799  0.2988  0.1140
15070TIP3    H166701   0.099   4.922   4.841  1.3614 -1.5615  1.5478
15070TIP3    H266702   0.189   4.875   4.729  1.1952  0.0706  0.6937
15071TIP3   OH266703   1.601   1.142  13.473  0.8368  0.0648  0.1022
15071TIP3    H166704   1.591   1.212  13.409  0.4578  0.0644  0.1604
15071TIP3    H266705   1.641   1.070  13.425  0.2077 -0.0707 -0.2321
15072TIP3   OH266706   4.493   1.238  11.433  0.2573 -0.2774  0.1491
15072TIP3    H166707   4.494   1.322  11.387  1.9623 -0.1481  0.3684
15072TIP3    H266708   4.563   1.244  11.497  2.2861 -2.7760 -1.5906
15073TIP3   OH266709   5.694   3.292   0.019 -0.4716 -0.6074  0.3873
15073TIP3    H166710   5.732   3.208   0.042  0.8893 -0.1874 -0.2022
15073TIP3    H266711   5.692   3.341   0.101  0.0056 -0.7452  0.4855
15074TIP3   OH266712   5.457   5.043   2.020 -0.0454  0.2329  0.3755
15074TIP3    H166713   5.544   5.057   1.984  0.4252 -2.9444 -0.0691
15074TIP3    H266714   5.472   5.000   2.104 -1.0401 -2.6050 -0.7705
15075TIP3   OH266715   2.056   1.517  14.515  0.4123 -0.2734 -0.4320
15075TIP3    H166716   2.148   1.495  14.531  0.0130 -1.4490  0.4094
15075TIP3    H266717   2.033   1.578  14.585  0.7659  0.6944 -1.1398
15076TIP3   OH266718   4.548   1.429   4.936  0.5901 -0.7775 -0.3464
15076TIP3    H166719   4.599   1.388   5.006  2.4219  0.8363 -0.6480
15076TIP3    H266720   4.562   1.523   4.949 -0.4703 -0.3809 -1.8447
15077TIP3   OH266721   1.996   0.860   0.823 -0.1897 -0.6523 -0.4885
15077TIP3    H166722   2.090   0.844   0.824  0.3528  2.0231 -1.5126
15077TIP3    H266723   1.975   0.887   0.912  0.3611  0.4172 -0.6741
15078TIP3   OH266724   2.604   4.598   4.194  0.3999 -0.3595  0.2613
15078TIP3    H166725   2.661   4.612   4.269  0.7640 -1.5614  0.2272
15078TIP3    H266726   2.515   4.604   4.230  0.5678 -1.3762  0.9006
15079TIP3   OH266727   5.161   0.811   5.126 -0.1988  0.5556  0.0997
15079TIP3    H166728   5.150   0.901   5.156  0.6836  0.9438 -0.6730
15079TIP3    H266729   5.201   0.766   5.201 -0.6100  0.8021  0.4774
15080TIP3   OH266730   6.017   4.801   1.975 -0.1137 -0.1798 -0.2723
15080TIP3    H166731   5.989   4.862   1.907  0.8530  2.0605  1.2118
15080TIP3    H266732   6.098   4.763   1.942  0.3876  0.9423 -0.3656
15081TIP3   OH266733   1.968   4.986   5.461 -0.1319 -0.4463  0.3245
15081TIP3    H166734   2.061   4.968   5.445 -0.3085  0.0569 -1.5363
15081TIP3    H266735   1.939   5.030   5.381 -1.5290  1.1316  1.6496
15082TIP3   OH266736   6.719   0.742   5.752 -0.5035 -0.6977 -0.6007
15082TIP3    H166737   6.668   0.808   5.704  1.1604  0.6997 -0.5581
15082TIP3    H266738   6.774   0.701   5.685  0.9066  0.3708 -0.1526
15083TIP3   OH266739   4.679   3.454  11.998 -0.1724  0.1466  0.6528
15083TIP3    H166740   4.667   3.362  11.974  0.9217  0.1021  0.2342
15083TIP3    H266741   4.639   3.504  11.927  2.4988  0.0093 -1.0627
15084TIP3   OH266742   2.658   6.625   3.301 -0.7671 -0.0155 -0.2946
15084TIP3    H166743   2.652   6.716   3.271 -1.5962  0.1194  0.2457
15084TIP3    H266744   2.635   6.629   3.394  1.7653 -0.4216  0.4178
15085TIP3   OH266745   3.894   0.124  11.763  0.0459  0.8800  0.7933
15085TIP3    H166746   3.983   0.090  11.765 -1.1993 -2.8724  1.4713
15085TIP3    H266747   3.901   0.214  11.795  3.6507  1.1578 -0.3313
15086TIP3   OH266748   5.087   1.210  15.931  0.0139 -0.6549  0.3694
15086TIP3    H166749   5.175   1.193  15.898 -0.5622  0.8859 -2.2164
15086TIP3    H266750   5.081   1.157  16.010  1.7395 -4.2224 -1.6705
15087TIP3   OH266751   4.590   3.145   1.894 -0.6431 -0.2838  0.0131
15087TIP3    H166752   4.536   3.076   1.854  0.5386 -1.2015 -0.0637
15087TIP3    H266753   4.610   3.112   1.981  1.0627 -0.7353 -0.4934
15088TIP3   OH266754   0.603   5.737  16.610  0.6056  0.7120 -0.3155
15088TIP3    H166755   0.543   5.776  16.674  0.4825 -2.1914  1.5203
15088TIP3    H266756   0.560   5.749  16.526 -2.0517 -0.2168  0.8129
15089TIP3   OH266757   5.259   1.996  11.759  0.1038  0.0526  0.1797
15089TIP3    H166758   5.261   2.078  11.710  1.7230 -0.0737 -0.0220
15089TIP3    H266759   5.251   2.022  11.851  2.3438  0.5591  0.2821
15090TIP3   OH266760   5.268   6.167  12.959 -0.1165 -0.2306 -0.0314
15090TIP3    H166761   5.357   6.163  12.923  0.7405 -0.9048  2.0023
15090TIP3    H266762   5.230   6.245  12.920  1.4322  0.1741 -0.8304
15091TIP3   OH266763   5.209   0.703  15.521 -0.3489 -0.3161  0.2474
15091TIP3    H166764   5.304   0.715  15.529 -0.2590 -1.5734  1.4218
15091TIP3    H266765   5.178   0.787  15.489  0.9534  0.8243  1.7658
15092TIP3   OH266766   0.994   6.065   1.383 -0.1968 -0.1000  0.1716
15092TIP3    H166767   0.921   6.007   1.404 -0.2219 -1.1757 -2.4940
15092TIP3    H266768   1.070   6.024   1.425 -0.4275 -1.3942 -0.6410
15093TIP3   OH266769   2.494   0.943   0.443 -0.4211  0.1723  0.1008
15093TIP3    H166770   2.437   0.872   0.473  0.2362 -0.1874  0.5221
15093TIP3    H266771   2.553   0.901   0.380  0.5616  0.1340  1.0256
15094TIP3   OH266772   5.655   6.103   5.910 -0.2980 -0.5370 -0.1539
15094TIP3    H166773   5.646   6.008   5.919  0.2859 -0.6088 -0.2854
15094TIP3    H266774   5.591   6.126   5.843  1.7610 -1.3220 -2.5446
15095TIP3   OH266775   1.263   3.712   2.354  0.2308  0.3488 -0.1561
15095TIP3    H166776   1.265   3.619   2.335  0.7181  0.5378 -1.0490
15095TIP3    H266777   1.354   3.735   2.373 -0.2472  0.0572  3.1375
15096TIP3   OH266778   3.311   3.671   5.899  0.1877  0.1705 -0.3305
15096TIP3    H166779   3.381   3.668   5.834 -0.9688 -1.7147 -1.5667
15096TIP3    H266780   3.350   3.634   5.978  1.0169  0.5757 -0.5420
15097TIP3   OH266781   2.657   2.672   2.120 -0.3019 -0.2268  0.0885
15097TIP3    H166782   2.721   2.741   2.135 -1.3505  0.4464  1.7337
15097TIP3    H266783   2.649   2.668   2.024  0.6552  1.1047 -0.0780
15098TIP3   OH266784   4.520   2.048   3.158  0.5106 -0.3793 -0.3236
15098TIP3    H166785   4.444   2.019   3.209  1.0220 -1.4400 -0.1471
15098TIP3    H266786   4.554   2.123   3.208  0.5828 -0.9661  0.5397
15099TIP3   OH266787   3.334   3.047   6.641 -0.5057 -0.1514  0.3649
15099TIP3    H166788   3.333   3.138   6.611 -1.6444 -0.7457 -1.5862
15099TIP3    H266789   3.248   3.034   6.680  0.1733 -0.0286  1.9969
15100TIP3   OH266790   0.519   1.185  16.574 -0.7564  0.6405  0.1717
15100TIP3    H166791   0.433   1.192  16.531 -0.7243  0.6284  0.1048
15100TIP3    H266792   0.582   1.196  16.502 -0.6815 -2.1117 -0.2699
15101TIP3   OH266793   4.868   3.115   4.189 -0.3627  0.1603 -0.1899
15101TIP3    H166794   4.852   3.060   4.265  0.0598 -0.1096 -0.2976
15101TIP3    H266795   4.856   3.204   4.221 -2.7885 -0.0048 -0.3929
15102TIP3   OH266796   6.662   5.756   4.421 -0.1228 -0.2472 -0.1636
15102TIP3    H166797   6.657   5.740   4.515 -0.4153  2.1806  0.3042
15102TIP3    H266798   6.577   5.795   4.399 -0.7419 -2.3710 -1.8319
15103TIP3   OH266799   4.113   6.756  16.704  0.2206 -0.1330  0.2621
15103TIP3    H166800   4.167   6.746  16.782  1.5055 -1.8617 -0.7651
15103TIP3    H266801   4.175   6.750  16.631 -1.1899 -0.7057 -0.9381
15104TIP3   OH266802   1.579   2.828   4.328  0.4415  0.6104 -0.3990
15104TIP3    H166803   1.611   2.916   4.344 -1.5562  1.6144 -1.6012
15104TIP3    H266804   1.659   2.776   4.312  1.5929  2.3905 -0.6894
15105TIP3   OH266805   1.255   2.524   5.244 -0.0385  0.4001  0.1420
15105TIP3    H166806   1.281   2.504   5.154  3.7259 -1.9712  1.5202
15105TIP3    H266807   1.183   2.463   5.261  1.6131 -1.8093 -0.2865
15106TIP3   OH266808   6.257   4.528   2.230  0.1118 -0.2588  0.2715
15106TIP3    H166809   6.174   4.503   2.191 -0.8883  2.9467  0.1369
15106TIP3    H266810   6.257   4.484   2.315 -2.7089  1.2581  1.1635
15107TIP3   OH266811   1.974   0.747  13.438  0.4427  0.4609  0.1708
15107TIP3    H166812   2.043   0.813  13.445  0.8498 -0.0167  0.8749
15107TIP3    H266813   1.928   0.751  13.522  0.7040 -0.3927  0.3656
15108TIP3   OH266814   4.677   3.665   4.224  0.1397 -0.4473 -0.0586
15108TIP3    H166815   4.686   3.682   4.130 -0.8994 -2.3208 -0.5305
15108TIP3    H266816   4.607   3.600   4.231 -0.4173  0.2832  2.0931
15109TIP3   OH266817   4.290   1.020   1.431  0.0686  0.5782 -0.2478
15109TIP3    H166818   4.292   0.925   1.421  0.0794  0.4788  0.6359
15109TIP3    H266819   4.300   1.054   1.342  0.9081 -0.2395 -0.4773
15110TIP3   OH266820   4.069   4.033   4.720  0.2189  0.0748  0.2521
15110TIP3    H166821   4.110   4.015   4.805  2.3925  3.6159  0.1601
15110TIP3    H266822   4.112   3.973   4.660  0.7040 -0.5497  1.1891
15111TIP3   OH266823   0.561   6.332   5.287 -0.1040 -0.5096  0.2033
15111TIP3    H166824   0.503   6.391   5.335 -0.8413  1.0754 -2.4637
15111TIP3    H266825   0.649   6.358   5.313 -0.4734 -0.8082  1.8762
15112TIP3   OH266826   4.812   4.209   5.470  0.0188 -0.6211  0.4385
15112TIP3    H166827   4.798   4.248   5.383 -0.1593 -1.7283 -0.0456
15112TIP3    H266828   4.747   4.251   5.526 -0.7750 -0.8638 -0.2802
15113TIP3   OH266829   0.522   1.769   5.793 -0.5990  0.2546 -0.4284
15113TIP3    H166830   0.557   1.815   5.716 -0.3452 -0.0435 -0.4919
15113TIP3    H266831   0.590   1.778   5.859  0.3029 -1.6405 -1.0310
15114TIP3   OH266832   5.943   2.898  10.834  0.2273 -0.3164  0.2461
15114TIP3    H166833   5.979   2.986  10.835  0.1949 -0.3116  1.6434
15114TIP3    H266834   5.903   2.890  10.747  1.5554  0.4925 -0.4701
15115TIP3   OH266835   4.324   4.094  11.504 -0.6931 -0.1454  0.6451
15115TIP3    H166836   4.303   4.008  11.466  0.0328  0.7384 -1.9785
15115TIP3    H266837   4.417   4.107  11.483 -1.0110  1.6318  0.1917
15116TIP3   OH266838   4.530   0.225  16.740 -0.3297 -0.4883  1.2258
15116TIP3    H166839   4.570   0.173  16.810 -1.0908 -0.9401  1.3419
15116TIP3    H266840   4.504   0.306  16.783  2.4218  0.7766  0.6768
15117TIP3   OH266841   4.803   6.449   2.379  0.1768 -0.4750 -0.0235
15117TIP3    H166842   4.865   6.423   2.447  0.2364 -3.2766 -1.0531
15117TIP3    H266843   4.856   6.490   2.312  0.6537 -1.0951 -0.0336
15118TIP3   OH266844   4.694   4.384  17.404 -0.1555  0.3023 -0.1405
15118TIP3    H166845   4.747   4.327  17.349  2.3515  2.0337  0.2861
15118TIP3    H266846   4.726   4.472  17.384 -2.3744  1.3862  0.7801
15119TIP3   OH266847   3.837   6.389  14.738 -0.0779  0.2625  0.5574
15119TIP3    H166848   3.913   6.380  14.680 -1.0904 -1.5916 -0.5972
15119TIP3    H266849   3.873   6.424  14.819  2.3941 -2.2360  0.7002
15120TIP3   OH266850   4.837   5.793   2.793  0.6460  0.1542  0.2315
15120TIP3    H166851   4.747   5.823   2.807  0.9596  1.3535 -0.2481
15120TIP3    H266852   4.865   5.838   2.714  1.6881 -0.1954  0.3928
15121TIP3   OH266853   5.366   4.998   1.265  0.5236 -0.4726  0.4798
15121TIP3    H166854   5.358   4.974   1.357  0.8011 -0.0486  0.6190
15121TIP3    H266855   5.418   5.079   1.265  0.2531 -0.2880 -0.0247
15122TIP3   OH266856   1.055   2.823   4.936  0.7425  0.1863 -0.0881
15122TIP3    H166857   0.982   2.883   4.953  0.3081  0.5237 -2.7189
15122TIP3    H266858   1.057   2.765   5.012  0.3838  2.7054  1.9980
15123TIP3   OH266859   5.081   4.868   3.078 -0.3644  0.3171  0.0975
15123TIP3    H166860   5.106   4.902   2.992 -0.1800  3.5053  1.2715
15123TIP3    H266861   5.164   4.865   3.127 -0.7142  0.2989  0.6997
15124TIP3   OH266862   2.432   5.276  10.943 -0.5474 -0.0663  0.3796
15124TIP3    H166863   2.512   5.328  10.944 -0.7835  0.3007  1.4522
15124TIP3    H266864   2.427   5.237  11.030 -2.0035  0.6798  0.6726
15125TIP3   OH266865   5.863   6.540  14.460  0.2536  0.0749 -0.5677
15125TIP3    H166866   5.944   6.553  14.411 -1.0168  0.1993 -2.7743
15125TIP3    H266867   5.811   6.619  14.442 -0.3981 -0.0238  0.7485
15126TIP3   OH266868   3.156   1.700   2.614 -0.7494  0.1741  0.0475
15126TIP3    H166869   3.156   1.782   2.566 -0.4355  0.5051  0.6039
15126TIP3    H266870   3.089   1.711   2.682 -2.0506 -0.7401 -1.0449
15127TIP3   OH266871   3.228   3.531  15.912  0.3423  0.6171  0.1632
15127TIP3    H166872   3.281   3.602  15.874  0.0354  0.5811 -0.3361
15127TIP3    H266873   3.197   3.566  15.995  1.0101  0.7027  0.3874
15128TIP3   OH266874   5.624   4.654  13.589  0.0375 -0.0477  0.1564
15128TIP3    H166875   5.571   4.625  13.662 -0.6468 -0.3987 -0.4650
15128TIP3    H266876   5.574   4.726  13.550 -0.3401 -0.8261 -0.8425
15129TIP3   OH266877   3.200   2.297  17.444 -0.9967 -0.1620 -0.5211
15129TIP3    H166878   3.244   2.303  17.529 -1.4609  2.3194 -0.3764
15129TIP3    H266879   3.239   2.220  17.402  0.8509 -0.1652  1.0465
15130TIP3   OH266880   3.564   4.711   2.250  0.7363  0.5063  0.1348
15130TIP3    H166881   3.572   4.618   2.271  1.5949  0.7169  0.8393
15130TIP3    H266882   3.586   4.717   2.157 -2.6793 -0.3906 -0.8554
15131TIP3   OH266883   4.839   4.952   0.520  0.2767 -0.3723  0.5627
15131TIP3    H166884   4.769   4.941   0.455  0.1409 -0.8657  0.7856
15131TIP3    H266885   4.906   5.002   0.475 -1.0356  1.8326  0.9347
15132TIP3   OH266886   4.915   6.208   0.286  0.7824  0.3047 -0.3555
15132TIP3    H166887   4.902   6.256   0.204  0.0280  1.0875  0.2031
15132TIP3    H266888   4.827   6.198   0.321  1.0656 -0.3634  0.1793
15133TIP3   OH266889   0.579   4.103  13.583  0.1810 -0.5119  0.3119
15133TIP3    H166890   0.554   4.150  13.663  0.2129 -0.4590  0.2913
15133TIP3    H266891   0.674   4.092  13.591  0.9728  3.2437 -1.6597
15134TIP3   OH266892   2.060   0.701  12.056 -0.0026 -0.5023  0.3570
15134TIP3    H166893   2.114   0.776  12.083 -0.9865  0.2343  0.3534
15134TIP3    H266894   2.011   0.734  11.980 -1.6945 -0.5778  1.3717
15135TIP3   OH266895   1.380   3.550  15.816 -0.2531  0.1455  0.0008
15135TIP3    H166896   1.422   3.529  15.732 -0.4404  1.9888 -0.6055
15135TIP3    H266897   1.438   3.514  15.882  0.7083 -0.0073 -0.9057
15136TIP3   OH266898   4.617   4.386   1.260  0.3979 -0.2032  0.5071
15136TIP3    H166899   4.591   4.341   1.180  0.9093  1.4772 -0.6604
15136TIP3    H266900   4.575   4.337   1.330 -1.0052 -1.0518 -0.8737
15137TIP3   OH266901   3.613   5.578   1.688  0.2016  0.0869  0.3726
15137TIP3    H166902   3.652   5.491   1.681 -1.3959 -0.6441  0.2717
15137TIP3    H266903   3.637   5.608   1.776  0.5210 -0.5632  0.5129
15138TIP3   OH266904   3.703   6.341  13.049 -0.3742 -0.4138  0.1700
15138TIP3    H166905   3.629   6.326  13.108  0.7009  0.9198  1.9533
15138TIP3    H266906   3.766   6.272  13.070 -1.0470 -1.5261 -1.3202
15139TIP3   OH266907   5.888   6.128   2.148 -0.0759 -0.6314 -0.3114
15139TIP3    H166908   5.827   6.141   2.220  0.6323  0.6281  0.0941
15139TIP3    H266909   5.850   6.176   2.075  1.5310  2.2629  0.6117
15140TIP3   OH266910   5.312   3.855   0.401  0.1464 -0.0337  0.0955
15140TIP3    H166911   5.266   3.776   0.432 -0.4052  0.3606  0.2928
15140TIP3    H266912   5.262   3.884   0.325  0.1516  0.3168  0.2245
15141TIP3   OH266913   1.830   0.463   3.504 -0.6421  0.1764 -0.1256
15141TIP3    H166914   1.859   0.537   3.451 -1.9194 -0.3777 -1.6654
15141TIP3    H266915   1.909   0.410   3.516 -0.3113  0.3487 -1.4212
15142TIP3   OH266916   5.393   6.413   0.980  0.1499 -0.0249  0.1272
15142TIP3    H166917   5.430   6.486   1.028 -1.2658 -1.1115  3.0854
15142TIP3    H266918   5.450   6.339   1.001 -0.1791 -0.4239 -0.3534
15143TIP3   OH266919   4.336   0.264   4.160 -0.0272 -0.4403  0.5486
15143TIP3    H166920   4.269   0.197   4.172 -0.2727  0.0042  1.8213
15143TIP3    H266921   4.408   0.218   4.116 -0.6844 -1.2258  0.2711
15144TIP3   OH266922   0.520   4.952  15.521  0.0490  0.1953  0.4035
15144TIP3    H166923   0.573   4.893  15.575 -0.1125 -0.0607  0.2814
15144TIP3    H266924   0.453   4.896  15.482 -0.8754  0.6757  1.2598
15145TIP3   OH266925   2.655   4.096   4.544 -0.4440  0.2528 -0.1729
15145TIP3    H166926   2.595   4.054   4.605  0.7366 -1.5101 -0.1540
15145TIP3    H266927   2.608   4.096   4.460 -1.0542  0.3116  0.1634
15146TIP3   OH266928   3.493   0.952  16.652 -0.4673 -0.1165  0.1946
15146TIP3    H166929   3.572   0.898  16.646 -1.6606 -2.1064  1.1557
15146TIP3    H266930   3.517   1.035  16.612  1.2407 -1.6404 -2.2025
15147TIP3   OH266931   5.049   2.030  12.812 -0.0335 -0.4468 -0.4955
15147TIP3    H166932   5.012   2.062  12.730  0.4749 -0.2424 -0.6543
15147TIP3    H266933   4.993   1.957  12.838  0.2829 -1.0463 -1.4479
15148TIP3   OH266934   2.021   4.321  11.947  0.5439  0.4595 -0.4572
15148TIP3    H166935   2.017   4.354  12.037  3.0764 -0.2173 -0.0236
15148TIP3    H266936   2.027   4.400  11.893 -0.4913  0.8557 -0.0267
15149TIP3   OH266937   4.792   5.980  11.577  0.1630  0.5607  0.2267
15149TIP3    H166938   4.862   5.980  11.511  0.9850  1.7733  1.0533
15149TIP3    H266939   4.733   6.050  11.550 -1.0656 -0.7641 -0.7347
15150TIP3   OH266940   3.455   4.955   5.321  0.7974  0.2642  0.1557
15150TIP3    H166941   3.550   4.970   5.314  0.6125  1.5533  0.3096
15150TIP3    H266942   3.416   5.017   5.260  0.0241  0.0491  0.4210
15151TIP3   OH266943   1.467   0.989   0.413  0.2634 -0.0358 -0.6581
15151TIP3    H166944   1.548   1.038   0.428  1.5281 -1.5444 -2.0453
15151TIP3    H266945   1.407   1.053   0.376  0.6730  1.2043  0.7239
15152TIP3   OH266946   1.157   0.527  12.245  0.1836 -0.3805  0.0468
15152TIP3    H166947   1.076   0.554  12.202  0.0085  1.1989  1.2854
15152TIP3    H266948   1.131   0.458  12.306  0.1465 -1.3653 -1.0484
15153TIP3   OH266949   5.167   6.360   2.015  0.3186  0.1865  0.3981
15153TIP3    H166950   5.181   6.331   1.924 -0.1250 -0.7065  0.6004
15153TIP3    H266951   5.175   6.455   2.011  0.8255  0.1208 -0.4866
15154TIP3   OH266952   6.605   0.631   2.415 -0.8530 -0.2710 -0.2456
15154TIP3    H166953   6.535   0.588   2.465 -0.4634 -0.5831  0.0382
15154TIP3    H266954   6.567   0.715   2.388 -0.7680  0.3059  1.3431
15155TIP3   OH266955   2.789   3.884  11.881 -0.0703  0.6718 -0.2315
15155TIP3    H166956   2.766   3.935  11.958 -4.0485 -0.3167 -0.5183
15155TIP3    H266957   2.736   3.804  11.888  1.8151 -0.9405 -2.4708
15156TIP3   OH266958   4.917   2.776  11.164  0.0721 -0.0578 -0.5563
15156TIP3    H166959   4.985   2.721  11.125 -0.1751  0.6423 -2.0369
15156TIP3    H266960   4.918   2.856  11.112 -1.9475 -0.0619 -0.6839
15157TIP3   OH266961   6.176   2.891  12.109 -0.7158  0.3421  0.1214
15157TIP3    H166962   6.257   2.841  12.102 -1.1165 -0.5409  1.4477
15157TIP3    H266963   6.176   2.949  12.032 -0.0394 -1.3961 -1.2495
15158TIP3   OH266964   6.325   4.069   2.926  0.1079  0.7241 -0.3431
15158TIP3    H166965   6.329   3.996   2.988 -0.5625 -0.5744 -1.7617
15158TIP3    H266966   6.403   4.059   2.871 -0.6840  0.2179 -1.4161
15159TIP3   OH266967   6.261   3.373   5.485  0.1004 -0.2390 -0.0617
15159TIP3    H166968   6.177   3.417   5.498 -0.2571 -1.5539  2.8891
15159TIP3    H266969   6.245   3.282   5.510  2.2209 -0.6958 -0.1587
15160TIP3   OH266970   2.888   0.985  10.988 -0.1270 -0.0204  0.7767
15160TIP3    H166971   2.950   1.054  11.011  0.0263  0.7244 -1.5875
15160TIP3    H266972   2.803   1.029  10.988 -0.2746 -0.3041  1.0962
15161TIP3   OH266973   4.436   6.230  14.443  0.0519 -0.9236 -0.6674
15161TIP3    H166974   4.367   6.266  14.387  0.2855 -0.0612 -0.4055
15161TIP3    H266975   4.437   6.287  14.520  0.5242 -1.4103 -0.3098
15162TIP3   OH266976   5.767   4.317   4.497 -0.5010  0.1867 -0.0677
15162TIP3    H166977   5.812   4.247   4.544 -0.2464  0.1273 -0.3999
15162TIP3    H266978   5.818   4.330   4.417  0.0606  1.4721  0.4760
15163TIP3   OH266979   3.813   1.376  14.760 -0.2636  0.2239 -0.3944
15163TIP3    H166980   3.761   1.448  14.797 -1.3508 -0.4271 -0.6086
15163TIP3    H266981   3.840   1.407  14.674 -0.8178  0.3337 -0.5285
15164TIP3   OH266982   1.032   3.409  14.152 -0.5699  0.2978 -0.8091
15164TIP3    H166983   1.080   3.346  14.206 -2.0068  0.1341  0.3383
15164TIP3    H266984   1.024   3.366  14.066 -1.2438 -0.9611 -0.1417
15165TIP3   OH266985   0.292   0.405   3.529  0.6263 -0.1490  0.3784
15165TIP3    H166986   0.374   0.362   3.507 -0.1149  0.0753 -3.7593
15165TIP3    H266987   0.236   0.336   3.563  1.6920 -0.8642  0.7130
15166TIP3   OH266988   3.877   0.834  14.020 -0.5663  0.1555  0.1499
15166TIP3    H166989   3.880   0.764  14.085  0.4983  0.5984  0.5952
15166TIP3    H266990   3.851   0.790  13.939  2.5666 -1.3009 -0.2040
15167TIP3   OH266991   3.543   2.409   4.749  0.2513  0.4736  0.0364
15167TIP3    H166992   3.557   2.337   4.810  0.5332  0.4052 -0.1072
15167TIP3    H266993   3.469   2.457   4.785  0.4018  0.4225  0.4189
15168TIP3   OH266994   2.294   2.708  10.369  0.5591 -0.0916 -0.2389
15168TIP3    H166995   2.315   2.713  10.462 -2.1391  2.2010  0.4122
15168TIP3    H266996   2.214   2.656  10.365  1.5415 -1.5859 -1.5308
15169TIP3   OH266997   4.786   6.170  12.414 -0.4294 -0.0065  0.2071
15169TIP3    H166998   4.842   6.223  12.358 -0.8933  2.0025  1.5506
15169TIP3    H266999   4.705   6.159  12.364 -0.0156 -0.1745 -0.4256
15170TIP3   OH267000   6.135   5.460   6.525  0.2331  0.0083 -0.0980
15170TIP3    H167001   6.162   5.384   6.576 -2.0771 -0.1848  0.9627
15170TIP3    H267002   6.216   5.492   6.485  1.1653 -3.6257 -1.5172
15171TIP3   OH267003   6.135   0.642   5.615 -0.0681 -0.3389 -0.2490
15171TIP3    H167004   6.216   0.595   5.596  0.0084  0.7262 -3.0224
15171TIP3    H267005   6.161   0.734   5.623 -0.6655 -0.2896  1.8057
15172TIP3   OH267006   6.697   5.274  15.705 -0.2763 -0.3428 -0.1060
15172TIP3    H167007   6.670   5.182  15.702  2.4271 -1.2373 -0.0099
15172TIP3    H267008   6.623   5.320  15.744 -1.7838 -2.4358 -0.3320
15173TIP3   OH267009   4.173   0.982   3.611 -0.0693  0.1577  0.5670
15173TIP3    H167010   4.147   0.949   3.525  1.2007  1.3095 -0.3067
15173TIP3    H267011   4.188   1.075   3.597  0.9963  0.2019  1.8454
15174TIP3   OH267012   6.022   0.144  15.966 -0.7289  0.5384  0.6451
15174TIP3    H167013   5.947   0.086  15.961  0.8417 -1.5048 -0.4297
15174TIP3    H267014   6.028   0.167  16.059 -2.0082 -0.1243  0.9131
15175TIP3   OH267015   0.682   2.653  12.009 -0.3622  0.5689  0.1967
15175TIP3    H167016   0.769   2.617  11.990 -0.6926 -0.2299  0.1613
15175TIP3    H267017   0.679   2.656  12.105 -0.4712  0.1479  0.2083
15176TIP3   OH267018   1.602   1.258   3.753  1.2994 -0.3546  0.0769
15176TIP3    H167019   1.638   1.193   3.693  0.2087 -0.9890  0.0984
15176TIP3    H267020   1.515   1.276   3.720  0.4379 -1.1544  1.7783
15177TIP3   OH267021   3.908   0.738  12.035  0.4473 -0.1647  0.4142
15177TIP3    H167022   3.974   0.796  12.073  1.6935 -1.8784  1.0135
15177TIP3    H267023   3.834   0.796  12.013  2.1650  1.8600 -0.4170
15178TIP3   OH267024   0.153   0.303   0.301  0.5659 -0.0604 -0.2090
15178TIP3    H167025   0.175   0.258   0.382 -1.3338 -0.7307 -0.0130
15178TIP3    H267026   0.237   0.337   0.269  1.9933 -3.0572  0.0238
15179TIP3   OH267027   6.292   2.411  11.646  0.4908  0.3486  0.5353
15179TIP3    H167028   6.349   2.334  11.642 -0.5387 -0.4750  1.2662
15179TIP3    H267029   6.204   2.375  11.656 -0.3182  1.5563 -1.5448
15180TIP3   OH267030   1.519   5.150  14.878  0.4066  0.0829 -0.2823
15180TIP3    H167031   1.605   5.144  14.920  0.5713 -2.0596 -0.7848
15180TIP3    H267032   1.461   5.102  14.936  0.2345 -1.2134 -1.4645
15181TIP3   OH267033   4.067   0.971  16.159 -0.2632 -0.0031  0.2071
15181TIP3    H167034   3.998   1.026  16.194 -0.6726  0.2686 -0.9674
15181TIP3    H267035   4.027   0.885  16.147 -0.8296  0.4799 -1.7030
15182TIP3   OH267036   2.216   3.965  13.552  0.6854 -0.8382 -0.2783
15182TIP3    H167037   2.177   4.041  13.595  0.0013 -1.8518  0.9495
15182TIP3    H267038   2.300   3.953  13.597  0.1803 -1.6175  0.4750
15183TIP3   OH267039   1.404   3.242  11.405  0.0882  0.1689  0.0799
15183TIP3    H167040   1.420   3.303  11.333 -1.5583  2.0078  1.1451
15183TIP3    H267041   1.320   3.201  11.383  0.2170 -0.2266  0.3262
15184TIP3   OH267042   2.998   2.449  14.066  0.4876  0.4652 -0.1350
15184TIP3    H167043   3.072   2.509  14.071 -0.5889  1.8588 -0.4261
15184TIP3    H267044   2.995   2.422  13.975  0.1525  1.0537 -0.3020
15185TIP3   OH267045   4.906   2.267   1.957  0.2075  0.1988 -0.1084
15185TIP3    H167046   4.878   2.322   1.883 -1.5276 -0.5921 -0.0975
15185TIP3    H267047   4.880   2.179   1.932  0.6123 -0.2411  0.9791
15186TIP3   OH267048   6.516   5.007   5.788 -0.4051  0.1403  0.1687
15186TIP3    H167049   6.590   4.975   5.839 -0.3784  2.4482  1.7429
15186TIP3    H267050   6.548   5.087   5.747 -1.1237 -0.5041 -1.7594
15187TIP3   OH267051   3.193   3.957   3.989  0.2407 -0.3961 -0.6168
15187TIP3    H167052   3.260   3.896   4.017  0.3919 -0.8458 -1.8909
15187TIP3    H267053   3.111   3.919   4.020  0.5281 -0.0350  0.6199
15188TIP3   OH267054   5.524   5.357  14.265 -0.2313  0.4238 -0.2108
15188TIP3    H167055   5.563   5.444  14.260  0.7788  0.0072  0.1561
15188TIP3    H267056   5.436   5.368  14.229  0.0113  1.5152 -0.5060
15189TIP3   OH267057   5.624   1.900   0.551  0.1455 -0.1263 -0.3393
15189TIP3    H167058   5.641   1.858   0.636 -0.4299 -2.7646 -1.4287
15189TIP3    H267059   5.569   1.837   0.504  1.4245  0.7118 -3.1324
15190TIP3   OH267060   6.472   6.365   0.723 -0.4875 -0.2034  0.1152
15190TIP3    H167061   6.416   6.427   0.771 -1.0231  0.6888 -1.5727
15190TIP3    H267062   6.410   6.312   0.673  0.0053 -1.7824  1.1245
15191TIP3   OH267063   6.302   5.110   5.364 -0.2872  0.0774 -0.3282
15191TIP3    H167064   6.336   5.198   5.345 -1.3126  0.4095 -0.7055
15191TIP3    H267065   6.209   5.124   5.378 -0.3696 -0.8900  0.1248
15192TIP3   OH267066   5.501   0.271   0.303  0.2832  0.2069 -0.2082
15192TIP3    H167067   5.521   0.182   0.333  2.5074  0.3113 -1.1337
15192TIP3    H267068   5.542   0.328   0.369 -0.4551  0.5463 -0.0344
15193TIP3   OH267069   0.211   0.086  16.409  0.5577  0.1272  0.6704
15193TIP3    H167070   0.173   0.115  16.327 -0.5767  0.2923  1.2398
15193TIP3    H267071   0.305   0.100  16.398  0.2137  2.5669  0.3506
15194TIP3   OH267072   1.150   2.600  14.862 -0.4860  0.3546  0.5141
15194TIP3    H167073   1.180   2.517  14.825 -0.9009  0.2882  0.3148
15194TIP3    H267074   1.056   2.601  14.843  0.0628  2.6088 -2.9253
15195TIP3   OH267075   4.370   2.349  13.486  0.5148 -0.2746 -0.3889
15195TIP3    H167076   4.409   2.305  13.561  1.4019 -1.4147 -1.4733
15195TIP3    H267077   4.360   2.280  13.420 -1.8202  0.3281 -0.7471
15196TIP3   OH267078   2.188   6.294   4.056 -0.2725 -0.6509  0.0403
15196TIP3    H167079   2.105   6.268   4.016 -0.6444 -0.7434  0.8705
15196TIP3    H267080   2.243   6.317   3.981 -1.2150 -0.0638 -0.4905
15197TIP3   OH267081   2.253   1.357  14.269  0.3790 -0.0713 -0.1485
15197TIP3    H167082   2.323   1.422  14.260  1.2571 -0.7843  1.1188
15197TIP3    H267083   2.267   1.319  14.356 -1.9755  0.1881  0.4096
15198TIP3   OH267084   5.942   3.509   4.927 -0.1495  0.0088 -0.1437
15198TIP3    H167085   5.974   3.435   4.876 -0.4677  0.6217 -1.2723
15198TIP3    H267086   5.981   3.498   5.014 -0.1366 -1.4260 -0.3116
15199TIP3   OH267087   3.526   0.060   4.668  0.1442  0.3941  0.0092
15199TIP3    H167088   3.600   0.117   4.687  0.9495  0.2711 -2.4930
15199TIP3    H267089   3.526   0.050   4.573  0.0946 -3.8577  0.2634
15200TIP3   OH267090   0.015   0.997  15.700  0.5575 -0.2653 -0.9168
15200TIP3    H167091   0.003   1.054  15.623  0.1923  0.4159 -0.3654
15200TIP3    H267092  -0.053   0.931  15.691  0.8566 -0.5093 -1.4598
15201TIP3   OH267093   1.878   0.055   0.869  0.1433  0.1171  0.1023
15201TIP3    H167094   1.806   0.077   0.928  1.0748  0.4163  1.1681
15201TIP3    H267095   1.907  -0.031   0.900  0.9318  0.4801  0.3890
15202TIP3   OH267096   4.047   1.173  13.188  0.2075  0.5184 -0.3793
15202TIP3    H167097   3.981   1.150  13.253 -1.6427  1.8326 -1.6746
15202TIP3    H267098   4.098   1.243  13.230  0.5295 -0.2160  0.4787
15203TIP3   OH267099   3.247   0.175  16.009 -0.4931  0.1351  0.1250
15203TIP3    H167100   3.153   0.191  16.013 -0.6225  0.3257 -2.5004
15203TIP3    H267101   3.256   0.080  16.023 -1.1592 -0.0334 -0.5656
15204TIP3   OH267102   1.649   3.749  12.134 -0.2537 -0.3253 -0.5016
15204TIP3    H167103   1.593   3.736  12.211  0.0225 -0.5059 -0.3304
15204TIP3    H267104   1.677   3.661  12.109 -2.5506 -0.6054 -2.5097
15205TIP3   OH267105   4.475   4.235   1.050 -0.0440  0.0497  0.0571
15205TIP3    H167106   4.449   4.161   0.994  0.9067 -0.2474 -0.0037
15205TIP3    H267107   4.454   4.313   0.999 -1.2529 -0.1603  0.2043
15206TIP3   OH267108   4.295   1.547  16.947 -0.3204  0.7974  0.1901
15206TIP3    H167109   4.267   1.455  16.946 -0.9105  0.9519 -1.4026
15206TIP3    H267110   4.213   1.596  16.938  0.1409  1.3848 -1.0242
15207TIP3   OH267111   1.991   2.763   3.178  0.0137  0.1783  0.4618
15207TIP3    H167112   2.058   2.754   3.111 -0.3863  0.8971 -0.0527
15207TIP3    H267113   1.977   2.674   3.211  0.6070 -0.0944 -0.0151
15208TIP3   OH267114   0.005   1.316   0.868  0.0990 -0.5432  0.3391
15208TIP3    H167115   0.023   1.222   0.857  1.1931 -0.1340 -1.9265
15208TIP3    H267116   0.091   1.357   0.863 -0.1519  0.5327  3.0648
15209TIP3   OH267117   3.086   2.795   3.277 -0.3207 -0.1953  0.3176
15209TIP3    H167118   3.099   2.796   3.372  0.9806 -0.0566  0.1535
15209TIP3    H267119   3.115   2.708   3.249 -0.1515 -0.0317 -0.0241
15210TIP3   OH267120   5.735   2.942   0.762  0.5545 -0.7062 -0.3249
15210TIP3    H167121   5.718   2.907   0.850 -1.7791  1.7578  0.3341
15210TIP3    H267122   5.791   2.876   0.721 -1.1331 -3.6965  1.7588
15211TIP3   OH267123   5.617   4.083   2.856  0.2465 -0.2118 -0.6636
15211TIP3    H167124   5.633   4.075   2.950 -0.7993  2.7955 -0.1325
15211TIP3    H267125   5.527   4.052   2.844 -1.1715  3.1221  0.1614
15212TIP3   OH267126   2.849   0.393   3.043  0.2453  0.4973 -0.3749
15212TIP3    H167127   2.768   0.412   2.994  0.1759  0.6575 -0.2013
15212TIP3    H267128   2.841   0.446   3.122  0.0654 -0.2533  0.1093
15213TIP3   OH267129   5.979   5.029  12.994 -0.0778 -0.5478  0.5609
15213TIP3    H167130   6.050   4.973  13.026 -1.3134 -0.7482  3.1744
15213TIP3    H267131   6.025   5.104  12.956  1.5547 -1.3061  0.9072
15214TIP3   OH267132   4.845   0.175   1.425  0.6097  1.1685  0.3908
15214TIP3    H167133   4.834   0.243   1.359 -1.8433  0.5192  0.0148
15214TIP3    H267134   4.813   0.095   1.383 -2.5304  0.9947  2.7248
15215TIP3   OH267135   1.276   0.282   6.117  0.3425 -0.4372 -0.2219
15215TIP3    H167136   1.208   0.237   6.067  1.2129 -1.4284 -0.5540
15215TIP3    H267137   1.266   0.374   6.093 -1.8524 -0.3201  0.9198
15216TIP3   OH267138   3.223   5.479   5.194  0.0199 -0.3150  0.5598
15216TIP3    H167139   3.278   5.482   5.115 -1.1003 -0.1562 -0.2487
15216TIP3    H267140   3.135   5.462   5.160 -0.5842  0.3824  1.7260
15217TIP3   OH267141   4.454   2.257  13.749  0.2194 -0.3106 -0.2729
15217TIP3    H167142   4.403   2.177  13.732 -0.5931 -0.1782  1.3487
15217TIP3    H267143   4.448   2.269  13.843  1.2932  1.0601 -0.3569
15218TIP3   OH267144   3.760   1.898   0.575 -0.2445  0.5131  0.3092
15218TIP3    H167145   3.786   1.924   0.664  0.8708 -0.5154  0.3129
15218TIP3    H267146   3.757   1.802   0.578  0.7251  0.4167 -0.9871
15219TIP3   OH267147   4.133   2.727   0.967 -0.1959 -0.3697  0.0939
15219TIP3    H167148   4.067   2.661   0.948  0.5202 -0.6348 -1.6494
15219TIP3    H267149   4.173   2.747   0.882  1.5664  0.2079  0.9954
15220TIP3   OH267150   5.276   4.754  14.264 -0.2834  0.0393 -0.7340
15220TIP3    H167151   5.332   4.761  14.342 -0.2038  0.6036 -0.8422
15220TIP3    H267152   5.327   4.794  14.194  0.4875 -2.1814 -1.5386
15221TIP3   OH267153   2.263   3.064  15.341 -0.7725 -0.2592  0.4994
15221TIP3    H167154   2.167   3.064  15.341 -0.7821  0.3784  1.2576
15221TIP3    H267155   2.286   3.016  15.420 -0.4826  0.7175  1.0155
15222TIP3   OH267156   6.709   2.294  12.547  0.4250  0.0076  0.3613
15222TIP3    H167157   6.722   2.253  12.462 -1.5759 -0.4661  0.2225
15222TIP3    H267158   6.679   2.383  12.526 -1.0403 -0.4299  0.5174
15223TIP3   OH267159   0.770   0.310  14.850  0.5577 -0.4373  0.1776
15223TIP3    H167160   0.775   0.220  14.883  0.3370  0.0093  1.4829
15223TIP3    H267161   0.848   0.353  14.886 -0.2856  0.3632  1.0760
15224TIP3   OH267162   1.454   1.889  15.565 -0.3375 -0.4366  0.3916
15224TIP3    H167163   1.507   1.821  15.606 -0.6105  0.0754  1.6654
15224TIP3    H267164   1.381   1.901  15.626 -0.0414  1.3188  0.4454
15225TIP3   OH267165   3.581   5.991  13.514 -0.2557  0.3586  0.1556
15225TIP3    H167166   3.514   6.026  13.457 -0.3438 -0.3046 -0.1563
15225TIP3    H267167   3.558   6.024  13.601 -2.7176 -2.1792  0.6080
15226TIP3   OH267168   1.466   0.289   1.539 -0.1694  0.0988  0.2294
15226TIP3    H167169   1.387   0.303   1.592  0.1589  0.2628  0.6903
15226TIP3    H267170   1.499   0.204   1.567 -0.5297 -0.2536 -0.4206
15227TIP3   OH267171   6.769   3.428   4.080  0.0032  0.0400  0.1239
15227TIP3    H167172   6.713   3.429   4.003 -0.4238  0.3531  0.4334
15227TIP3    H267173   6.850   3.386   4.050 -0.9788 -1.9594  0.0907
15228TIP3   OH267174   5.031   5.777  17.443  0.4198  0.4161  0.1415
15228TIP3    H167175   5.076   5.752  17.362  1.6134  1.8834  0.3194
15228TIP3    H267176   4.939   5.778  17.419  0.7168  0.4495 -1.0936
15229TIP3   OH267177   4.956   3.277  14.273  0.1115 -0.3278 -0.1981
15229TIP3    H167178   5.045   3.309  14.286 -0.5381  1.0032  1.3007
15229TIP3    H267179   4.962   3.223  14.194  2.2179 -0.2450 -0.1678
15230TIP3   OH267180   4.552   0.220  13.103 -0.3735  0.4128  0.5855
15230TIP3    H167181   4.618   0.269  13.151  1.1715 -0.9388 -0.0636
15230TIP3    H267182   4.602   0.156  13.052 -2.2241 -1.2056  0.6809
15231TIP3   OH267183   3.171   2.190   4.221 -0.1196  0.0910  0.0855
15231TIP3    H167184   3.114   2.239   4.162  0.5044  0.8923  0.1274
15231TIP3    H267185   3.157   2.098   4.197 -0.2475  0.3706 -0.9697
15232TIP3   OH267186   5.966   2.692  13.510 -0.0293  0.5855 -0.5043
15232TIP3    H167187   5.939   2.648  13.591  0.3368  1.9999  0.4259
15232TIP3    H267188   6.001   2.621  13.455 -1.2896 -0.5668  0.1135
15233TIP3   OH267189   3.108   1.881  14.682  0.4251  0.0262 -0.4310
15233TIP3    H167190   3.058   1.921  14.753 -1.4466  1.1512 -2.2537
15233TIP3    H267191   3.189   1.850  14.723 -0.1463  1.4691  1.9593
15234TIP3   OH267192   2.499   5.566  15.753  0.1574  0.4672  0.2276
15234TIP3    H167193   2.441   5.499  15.788  1.1201 -1.3293 -1.3799
15234TIP3    H267194   2.456   5.649  15.773 -1.1413 -0.6116  2.2047
15235TIP3   OH267195   1.158   5.741   5.591 -0.1641 -0.2171 -0.4312
15235TIP3    H167196   1.090   5.800   5.558  0.5187  0.7209 -0.1938
15235TIP3    H267197   1.223   5.799   5.630 -0.9342 -1.2193  2.6257
15236TIP3   OH267198   5.892   5.239   2.421 -0.0794  0.3426  0.8804
15236TIP3    H167199   5.939   5.212   2.500  0.9256  0.0854  0.2234
15236TIP3    H267200   5.960   5.277   2.365 -0.4232 -1.0326 -0.5609
15237TIP3   OH267201   4.958   5.339   3.335 -0.9176 -0.8295  0.2752
15237TIP3    H167202   4.962   5.277   3.262  0.0435 -1.3365  0.7400
15237TIP3    H267203   4.968   5.425   3.294  1.5720 -1.2032 -0.0686
15238TIP3   OH267204   5.057   4.141  14.895 -0.0365 -0.1570  0.8945
15238TIP3    H167205   5.094   4.217  14.940  0.2866  0.2068  0.0482
15238TIP3    H267206   5.062   4.165  14.802  0.1728 -1.2658  0.6123
15239TIP3   OH267207   6.106   3.006   0.195  0.3178  0.3957  0.5043
15239TIP3    H167208   6.047   2.987   0.121  0.0357 -1.3099  1.1007
15239TIP3    H267209   6.188   2.964   0.171 -0.2669 -1.6612  1.8044
15240TIP3   OH267210   5.055   1.715  14.291 -0.1205  0.1594 -0.0388
15240TIP3    H167211   4.964   1.688  14.297 -0.6610  1.7468 -0.4370
15240TIP3    H267212   5.056   1.803  14.329  1.3679 -0.0620  0.5092
15241TIP3   OH267213   2.922   0.017  17.030  0.1357 -0.2953 -0.3078
15241TIP3    H167214   2.937   0.101  17.073  0.7821  0.1385 -1.3488
15241TIP3    H267215   2.834  -0.008  17.056 -0.0449  0.6864  0.0569
15242TIP3   OH267216   0.488   0.922  11.381  0.0946 -0.5572 -0.3437
15242TIP3    H167217   0.558   0.923  11.447  0.5250 -1.1174 -0.7786
15242TIP3    H267218   0.521   0.863  11.313  0.8250  1.9582 -2.3213
15243TIP3   OH267219   5.591   5.453  12.296  0.2454 -0.1707 -0.2413
15243TIP3    H167220   5.671   5.485  12.256  0.5405 -2.0944 -1.2928
15243TIP3    H267221   5.523   5.511  12.263  0.3834 -1.8792 -4.1146
15244TIP3   OH267222   2.169   0.536   0.100 -0.9246  0.2898  0.1005
15244TIP3    H167223   2.191   0.444   0.093 -1.3067 -0.0197  2.1766
15244TIP3    H267224   2.176   0.570   0.011 -0.5532 -1.6738 -0.6635
15245TIP3   OH267225   1.875   3.999  11.640 -0.2046 -0.5639 -1.0464
15245TIP3    H167226   1.884   4.089  11.607 -1.6728 -0.1315 -0.3587
15245TIP3    H267227   1.854   4.009  11.733  0.7604 -1.6692 -0.6901
15246TIP3   OH267228   2.735   0.210  12.050 -0.1332 -0.7026 -0.2610
15246TIP3    H167229   2.761   0.156  11.975  1.8195  0.0854 -0.2349
15246TIP3    H267230   2.795   0.184  12.120  0.4013  0.9511 -0.0538
15247TIP3   OH267231   2.642   2.229  13.313  0.2366  0.0009 -0.5899
15247TIP3    H167232   2.640   2.292  13.241 -0.3877  2.0820  1.1464
15247TIP3    H267233   2.716   2.256  13.366 -1.4005  0.8183  1.4198
15248TIP3   OH267234   6.119   2.639   4.149 -0.1625  0.4350 -0.1262
15248TIP3    H167235   6.039   2.587   4.158  1.3041 -1.7190  1.3135
15248TIP3    H267236   6.157   2.641   4.236  0.3630  3.2145 -0.3322
15249TIP3   OH267237   5.952   4.172   4.610  0.2922 -0.2805 -0.0399
15249TIP3    H167238   6.009   4.230   4.662  1.3452 -0.4770 -0.9271
15249TIP3    H267239   5.990   4.085   4.621 -0.0802 -0.4832 -0.3252
15250TIP3   OH267240   2.209   2.168   1.920  0.4134  0.1718 -0.3806
15250TIP3    H167241   2.228   2.082   1.885 -1.8141 -0.8769  0.7860
15250TIP3    H267242   2.180   2.152   2.010  1.3452  2.2969  0.3671
15251TIP3   OH267243   3.999   5.858   5.068 -0.2562  0.0378  0.1201
15251TIP3    H167244   3.940   5.811   5.127  1.8136  1.2181  3.4101
15251TIP3    H267245   4.065   5.792   5.043  1.0955  0.3740  2.5060
15252TIP3   OH267246   3.880   4.471   5.959 -0.1479 -0.3204  0.2811
15252TIP3    H167247   3.835   4.416   6.023  0.0359  0.0638  0.7433
15252TIP3    H267248   3.823   4.547   5.948  0.5349  0.3321  1.1262
15253TIP3   OH267249   0.523   3.240   3.505 -0.6030 -0.2483 -0.0575
15253TIP3    H167250   0.472   3.194   3.571 -1.2792  2.3681  1.4089
15253TIP3    H267251   0.457   3.277   3.446 -0.1041 -0.9446 -1.0697
15254TIP3   OH267252   6.166   2.003  17.322 -0.4364  0.1307 -0.3630
15254TIP3    H167253   6.162   2.097  17.342  0.4542 -0.5328  3.9391
15254TIP3    H267254   6.259   1.986  17.305 -0.0850 -0.3037  1.6996
15255TIP3   OH267255   0.672   0.969  17.338 -0.0446 -0.4578  0.9244
15255TIP3    H167256   0.644   0.973  17.430 -0.6090  0.7418  0.7140
15255TIP3    H267257   0.725   1.048  17.325 -1.3327  0.2659 -0.1980
15256TIP3   OH267258   0.190   5.601  12.270  0.0862 -0.5277 -0.2076
15256TIP3    H167259   0.169   5.689  12.238  0.5509  0.3973  1.8897
15256TIP3    H267260   0.187   5.546  12.191  0.2012  1.4167 -1.6522
15257TIP3   OH267261   3.096   2.320   2.463  0.1504 -0.2944 -0.1460
15257TIP3    H167262   3.019   2.285   2.508 -0.0083  0.9050  0.5671
15257TIP3    H267263   3.132   2.384   2.525  1.6700 -0.7751 -0.5046
15258TIP3   OH267264   0.302   2.645  13.972  0.3137  0.4383  0.0474
15258TIP3    H167265   0.358   2.717  13.942  1.9629 -1.6894 -2.3310
15258TIP3    H267266   0.223   2.654  13.920  1.6121 -0.9502 -2.3103
15259TIP3   OH267267   4.000   3.651  15.098 -0.1205 -0.3366 -1.0806
15259TIP3    H167268   3.938   3.671  15.028 -2.0177 -0.3578  0.4984
15259TIP3    H267269   3.983   3.560  15.122 -0.0944 -0.0929 -0.0601
15260TIP3   OH267270   6.407   6.422  17.236 -0.3266 -0.1615 -0.4245
15260TIP3    H167271   6.420   6.454  17.325 -1.2033 -2.3317  0.5609
15260TIP3    H267272   6.449   6.487  17.180  0.3819  1.1771  1.5761
15261TIP3   OH267273   1.589   3.574   5.607  0.4204 -0.1440  0.5915
15261TIP3    H167274   1.554   3.641   5.666 -2.1616  0.1563 -1.1125
15261TIP3    H267275   1.531   3.499   5.619  0.2640 -0.3138 -0.9956
15262TIP3   OH267276   5.799   0.618   1.330  0.2417 -0.5438  0.2223
15262TIP3    H167277   5.833   0.619   1.240 -2.5988  0.2432 -0.9863
15262TIP3    H267278   5.786   0.526   1.349 -2.0588 -0.6871 -1.5381
15263TIP3   OH267279   6.048   3.491   0.531 -0.0340  0.3534  0.1816
15263TIP3    H167280   5.954   3.478   0.543 -0.2984 -0.1026 -1.8871
15263TIP3    H267281   6.065   3.580   0.562 -1.6301  1.3116 -1.5222
15264TIP3   OH267282   6.522   2.504   1.390  0.3431  0.2836  0.1750
15264TIP3    H167283   6.513   2.555   1.309  0.7038  1.3185  0.7724
15264TIP3    H267284   6.534   2.414   1.360 -3.2833 -0.0092 -0.8903
15265TIP3   OH267285   1.364   3.934  15.458  0.4031  0.4187  0.3813
15265TIP3    H167286   1.313   3.925  15.378 -2.5124  0.8479  2.0502
15265TIP3    H267287   1.417   3.854  15.462 -0.0016  0.0108 -1.5280
15266TIP3   OH267288   1.259   0.412  10.377 -0.2994  0.3413 -0.0925
15266TIP3    H167289   1.272   0.325  10.340 -1.6202  0.0941 -0.0103
15266TIP3    H267290   1.334   0.425  10.435  1.1137  0.2059 -1.8224
15267TIP3   OH267291   0.884   2.837  11.709 -0.5144 -0.0780 -0.0856
15267TIP3    H167292   0.949   2.879  11.653 -2.0040  1.0719 -1.0051
15267TIP3    H267293   0.926   2.755  11.736  1.3500  0.6780 -0.5288
15268TIP3   OH267294   1.215   2.003  12.409 -0.3368  0.2160 -0.1883
15268TIP3    H167295   1.180   1.978  12.324  0.9693 -3.0213  0.0851
15268TIP3    H267296   1.303   1.965  12.411  0.2647  1.5340  2.0269
15269TIP3   OH267297   1.948   1.840  13.194  0.3227  0.7345  0.6159
15269TIP3    H167298   1.877   1.888  13.237 -1.6123 -1.5399  0.1880
15269TIP3    H267299   2.002   1.808  13.265 -0.4470  0.5313  1.1262
15270TIP3   OH267300   0.894   5.130  11.870  0.4175  0.1124 -0.1349
15270TIP3    H167301   0.821   5.192  11.874  0.5391  0.2497 -0.0072
15270TIP3    H267302   0.908   5.105  11.961  1.0947  0.7524 -0.0562
15271TIP3   OH267303   6.323   1.405   2.759 -0.4553  0.8289 -0.2114
15271TIP3    H167304   6.261   1.461   2.806 -0.4434  0.6642  0.0053
15271TIP3    H267305   6.378   1.465   2.709 -1.5199  0.9341 -1.3170
15272TIP3   OH267306   6.220   0.031  14.665 -0.0365  0.1820 -0.1953
15272TIP3    H167307   6.188   0.073  14.585  1.4786  0.0547 -0.8970
15272TIP3    H267308   6.259  -0.052  14.634 -0.6307 -0.5074  0.8447
15273TIP3   OH267309   3.569   6.632   5.717 -0.3303 -0.3396  0.2884
15273TIP3    H167310   3.660   6.609   5.737 -0.2073  1.7500  2.4187
15273TIP3    H267311   3.544   6.569   5.648  3.3142  0.2789 -1.8640
15274TIP3   OH267312   6.583   4.922   6.693  0.0016  0.0582 -0.0767
15274TIP3    H167313   6.515   4.869   6.736  0.8954 -1.0732 -0.0085
15274TIP3    H267314   6.645   4.858   6.659  1.4168  1.0871  0.4821
15275TIP3   OH267315   5.101   0.655  11.382 -0.2726 -0.8565 -0.5926
15275TIP3    H167316   5.153   0.718  11.331  0.5521 -0.6829  0.4221
15275TIP3    H267317   5.089   0.581  11.322 -1.4184  0.3102 -1.8744
15276TIP3   OH267318   1.055   3.136  12.640 -0.0343 -0.9162 -0.1564
15276TIP3    H167319   0.976   3.167  12.684  0.5929 -0.3335  0.6075
15276TIP3    H267320   1.073   3.201  12.573  0.8100 -0.0142  0.8936
15277TIP3   OH267321   3.605   5.672  12.239  0.2564  0.7108  0.3219
15277TIP3    H167322   3.661   5.596  12.226 -0.9825 -0.0804 -0.6368
15277TIP3    H267323   3.561   5.684  12.154 -1.6546  0.7591  1.2705
15278TIP3   OH267324   5.443   0.262   6.583 -0.0480 -0.4386 -0.2853
15278TIP3    H167325   5.463   0.224   6.668  1.2700 -0.0862 -0.4285
15278TIP3    H267326   5.476   0.197   6.520 -0.1250 -0.2386 -0.5324
15279TIP3   OH267327   0.660   5.779   1.916  0.3054 -0.2297  0.3265
15279TIP3    H167328   0.669   5.822   2.001  3.8415 -0.5950  0.2873
15279TIP3    H267329   0.733   5.717   1.913  0.1373 -0.4268 -2.8792
15280TIP3   OH267330   0.273   0.065  17.015  0.5438  0.4496 -0.1637
15280TIP3    H167331   0.302   0.155  16.997 -0.2946  0.5550 -1.1587
15280TIP3    H267332   0.342   0.027  17.068  1.0446  1.6047  0.0486
15281TIP3   OH267333   6.435   4.647   4.694 -0.7978 -0.5199  0.5986
15281TIP3    H167334   6.359   4.594   4.718 -1.1522 -0.1185  0.3711
15281TIP3    H267335   6.475   4.672   4.778 -1.9420  0.7526  0.7929
15282TIP3   OH267336   0.045   0.611  11.478 -0.2908  0.6147 -0.3657
15282TIP3    H167337  -0.016   0.685  11.481  1.2509  1.9225  2.2544
15282TIP3    H267338   0.088   0.619  11.392 -1.2293  1.8287 -0.7535
15283TIP3   OH267339   5.714   1.344  15.696 -0.2802  0.1500 -0.0054
15283TIP3    H167340   5.771   1.376  15.766 -1.4385  1.2458  0.4794
15283TIP3    H267341   5.627   1.341  15.736 -0.5411 -1.8241 -0.6214
15284TIP3   OH267342   0.100   3.111  11.031 -0.1361 -0.5798 -0.3695
15284TIP3    H167343   0.027   3.051  11.012  0.6710 -1.9096  0.5184
15284TIP3    H267344   0.143   3.125  10.947 -0.0814 -1.6374 -0.5401
15285TIP3   OH267345   3.217   5.517  15.647  0.1052 -0.1301  0.1300
15285TIP3    H167346   3.146   5.455  15.665  0.4723 -0.7327 -0.4520
15285TIP3    H267347   3.272   5.473  15.583  0.5455  0.6816 -0.0700
15286TIP3   OH267348   3.154   2.350  11.500 -0.1727 -0.1513  0.1804
15286TIP3    H167349   3.182   2.439  11.523  2.1582 -0.7527 -0.1315
15286TIP3    H267350   3.134   2.355  11.406  1.0763 -0.1842 -0.1053
15287TIP3   OH267351   6.474   2.399  13.969 -0.2197 -0.2246  0.0348
15287TIP3    H167352   6.541   2.335  13.994  0.4643  0.1987 -0.6825
15287TIP3    H267353   6.414   2.349  13.913  0.1192 -0.3306 -0.2376
15288TIP3   OH267354   2.981   6.224  11.165  0.9385 -0.2418  0.4619
15288TIP3    H167355   2.925   6.220  11.243 -0.1473 -1.1216 -0.3188
15288TIP3    H267356   3.055   6.278  11.191  0.0373  0.4346  1.7501
15289TIP3   OH267357   5.141   5.431   3.788 -0.5231 -0.2011 -0.1521
15289TIP3    H167358   5.051   5.401   3.775 -0.8503  0.3252  0.7702
15289TIP3    H267359   5.194   5.351   3.789 -1.2699 -0.7114  1.4478
15290TIP3   OH267360   4.433   5.422  12.553 -0.6114  0.2369  0.2193
15290TIP3    H167361   4.494   5.475  12.501  0.1435  0.4400  1.2914
15290TIP3    H267362   4.465   5.332  12.542 -0.0323  0.3594  0.8931
15291TIP3   OH267363   1.984   2.822  12.700 -0.2558  0.0784  0.4350
15291TIP3    H167364   1.990   2.751  12.764 -0.4858 -2.7663 -2.4205
15291TIP3    H267365   1.980   2.777  12.615  0.5402  3.5864 -1.6605
15292TIP3   OH267366   1.091   1.305   4.468  0.4511  0.3415  0.1490
15292TIP3    H167367   1.102   1.342   4.380  1.0804 -0.7825 -0.2627
15292TIP3    H267368   1.049   1.221   4.453 -1.5936  1.1244  1.1290
15293TIP3   OH267369   4.040   5.665   4.455  0.1408  0.1882  0.0102
15293TIP3    H167370   4.048   5.754   4.420  0.3311  0.1395 -0.0698
15293TIP3    H267371   4.044   5.676   4.550 -1.9747  0.5031  0.1193
15294TIP3   OH267372   6.368   1.086   5.527  0.1791  0.3223  0.0927
15294TIP3    H167373   6.368   1.125   5.615 -1.4695 -0.1149  0.3110
15294TIP3    H267374   6.399   1.156   5.470  0.1013  0.9956  0.8583
15295TIP3   OH267375   6.470   1.655  16.648 -0.1384 -0.8451  0.1298
15295TIP3    H167376   6.557   1.669  16.686 -0.4791 -0.1020  0.6490
15295TIP3    H267377   6.475   1.568  16.609  1.8517  0.4069 -2.6655
15296TIP3   OH267378   0.929   1.007  11.777  0.5381 -0.2303  0.4330
15296TIP3    H167379   0.909   0.930  11.830 -2.6056  0.1217 -0.0633
15296TIP3    H267380   0.879   1.078  11.817 -1.7306  0.1287 -2.6590
15297TIP3   OH267381   1.011   4.924   6.523  0.6033  0.3573  0.4179
15297TIP3    H167382   0.953   4.851   6.500 -0.9676  2.4379 -3.1721
15297TIP3    H267383   0.960   4.978   6.583 -1.7060  2.3927 -3.0316
15298TIP3   OH267384   5.133   2.793  12.714 -0.0148  0.4118  0.4745
15298TIP3    H167385   5.090   2.838  12.641  1.0854 -0.6896 -0.9144
15298TIP3    H267386   5.226   2.808  12.699  0.2902 -0.9312  0.9240
15299TIP3   OH267387   2.501   2.263  16.313 -0.6679  0.0199 -0.1732
15299TIP3    H167388   2.592   2.244  16.337 -0.5934  0.6669  0.0808
15299TIP3    H267389   2.503   2.275  16.218 -0.3995  0.5134 -0.1062
15300TIP3   OH267390   1.640   5.019   2.820  0.0107  0.2435  0.2465
15300TIP3    H167391   1.692   5.093   2.787  1.3043 -0.1234  1.3875
15300TIP3    H267392   1.704   4.962   2.862 -1.2033 -0.7133  0.8311
15301TIP3   OH267393   3.441   2.371  13.203  0.2316 -0.0087  0.0838
15301TIP3    H167394   3.524   2.416  13.188  1.2195 -1.3588  1.2765
15301TIP3    H267395   3.405   2.358  13.115  1.3969  0.3697 -0.4702
15302TIP3   OH267396   1.728   0.994  15.204  0.3764  0.0179  0.0034
15302TIP3    H167397   1.752   0.921  15.147 -1.9392 -0.2621 -0.6920
15302TIP3    H267398   1.645   1.026  15.170 -0.9070  0.1464  2.9318
15303TIP3   OH267399   5.880   6.434  17.296 -0.0215 -0.1093  0.1024
15303TIP3    H167400   5.868   6.342  17.274 -0.2947 -0.0051 -0.1868
15303TIP3    H267401   5.973   6.450  17.280 -0.1435 -0.1259 -0.6329
15304TIP3   OH267402   6.153   4.526  17.314  0.3507  0.2865 -0.4652
15304TIP3    H167403   6.080   4.586  17.294  0.0688  0.0169 -0.2572
15304TIP3    H267404   6.153   4.520  17.409  0.8999  0.5920 -0.4446
15305TIP3   OH267405   5.481   2.093  14.707 -0.3846  0.4720  0.1804
15305TIP3    H167406   5.526   2.055  14.783 -1.6616  0.0290  0.7291
15305TIP3    H267407   5.521   2.048  14.632  1.3913  1.4176  0.4932
15306TIP3   OH267408   2.160   0.564   5.501  0.4419 -0.1879  0.2977
15306TIP3    H167409   2.157   0.473   5.471 -0.6720 -0.1458  0.2449
15306TIP3    H267410   2.152   0.557   5.596  0.2203 -0.1406  0.2829
15307TIP3   OH267411   5.635   6.384  14.509 -0.4260  0.3129 -0.1147
15307TIP3    H167412   5.576   6.450  14.472 -0.0392 -0.2858 -1.8792
15307TIP3    H267413   5.723   6.421  14.497 -0.3098  0.2912  0.6247
15308TIP3   OH267414   1.460   3.226  17.422 -0.3647 -0.0017  0.5891
15308TIP3    H167415   1.479   3.253  17.332 -0.0269 -1.7387  0.0994
15308TIP3    H267416   1.534   3.259  17.473 -0.8171  1.4371  0.3356
15309TIP3   OH267417   2.237   1.381   3.307  0.2829  0.1785 -0.2953
15309TIP3    H167418   2.218   1.471   3.282  2.2716  0.8292  0.3677
15309TIP3    H267419   2.285   1.345   3.232  1.2441  0.3217  0.2427
15310TIP3   OH267420   3.934   5.752   1.435 -0.7267 -0.0200 -0.1602
15310TIP3    H167421   3.880   5.827   1.459 -0.0795 -0.1988  2.0075
15310TIP3    H267422   3.876   5.696   1.383 -1.5181  1.4702 -0.9283
15311TIP3   OH267423   6.673   2.868   1.223 -0.1311 -0.1416  0.4303
15311TIP3    H167424   6.671   2.955   1.185 -2.1943 -0.5865 -0.5848
15311TIP3    H267425   6.634   2.878   1.310  1.0801  0.1916  0.9570
15312TIP3   OH267426   1.150   1.997   2.738 -0.6109  0.2172 -0.3707
15312TIP3    H167427   1.130   1.956   2.654 -3.1544 -2.0617  1.1579
15312TIP3    H267428   1.236   1.963   2.762 -1.0296 -1.2895 -0.8785
15313TIP3   OH267429   6.693   3.565   0.929 -0.0502 -0.2546  0.0216
15313TIP3    H167430   6.654   3.526   0.850 -0.8635 -0.8786  0.7164
15313TIP3    H267431   6.723   3.490   0.980 -1.3784  0.0133  1.2463
15314TIP3   OH267432   4.094   2.821   4.444  0.3393 -0.8355  0.5905
15314TIP3    H167433   4.120   2.913   4.450  1.6748 -1.1542  0.2039
15314TIP3    H267434   4.005   2.818   4.479 -0.9569  1.0908 -2.1285
15315TIP3   OH267435   1.713   3.789  15.823 -0.6925 -0.1358  0.1611
15315TIP3    H167436   1.737   3.746  15.906  1.2173 -0.3190 -0.4512
15315TIP3    H267437   1.741   3.879  15.834  0.2239 -0.3277 -0.5420
15316TIP3   OH267438   6.626   6.122  16.118  0.2773 -0.4290 -0.9765
15316TIP3    H167439   6.665   6.070  16.189 -1.9973  1.8703  2.2545
15316TIP3    H267440   6.548   6.072  16.092  1.0893 -1.2509 -1.9422
15317TIP3   OH267441   2.160   1.919  16.669 -0.6635  0.1566  0.0783
15317TIP3    H167442   2.204   1.874  16.597 -0.1335  1.3459 -0.3621
15317TIP3    H267443   2.078   1.950  16.631 -0.6196  0.3303  0.1225
15318TIP3   OH267444   4.005   3.442  17.064 -0.7025 -0.4589 -1.0300
15318TIP3    H167445   3.930   3.472  17.013 -2.4252 -4.6787 -1.3831
15318TIP3    H267446   4.006   3.347  17.052  3.2842 -0.8848  0.9644
15319TIP3   OH267447   1.560   6.744  13.270 -0.0991 -0.1008 -0.2265
15319TIP3    H167448   1.510   6.823  13.253  0.9772  0.5140 -0.6439
15319TIP3    H267449   1.587   6.751  13.361 -0.7092 -0.4132 -0.0132
15320TIP3   OH267450   2.033   6.114   2.818 -0.3443 -0.3915  0.4813
15320TIP3    H167451   2.040   6.104   2.723  0.3268 -1.7933  0.6520
15320TIP3    H267452   1.939   6.109   2.836 -0.8472  3.1180 -0.3663
15321TIP3   OH267453   1.349   5.901   1.932  0.2818  0.5399 -0.1793
15321TIP3    H167454   1.298   5.924   2.009  1.0611  5.0865 -0.6990
15321TIP3    H267455   1.434   5.874   1.966  0.2150  1.2749  0.6122
15322TIP3   OH267456   1.270   6.649  13.651  0.0775 -0.7635 -0.4765
15322TIP3    H167457   1.321   6.583  13.698 -1.0969 -1.4048 -0.0562
15322TIP3    H267458   1.309   6.653  13.564  0.1358 -2.0555 -0.5223
15323TIP3   OH267459   3.099   6.575  16.316  0.7330  0.0693 -0.0924
15323TIP3    H167460   3.119   6.630  16.240 -1.0227 -0.2676 -0.8523
15323TIP3    H267461   3.087   6.487  16.279  0.2291 -0.1691  0.6216
15324TIP3   OH267462   0.196   3.515   3.481  0.2506  0.0768 -0.1368
15324TIP3    H167463   0.245   3.597   3.480 -0.3930  0.4900 -1.7546
15324TIP3    H267464   0.257   3.451   3.444  0.6224 -0.1034  0.7707
15325TIP3   OH267465   5.131   5.476   0.053 -0.2112  0.3304 -0.0824
15325TIP3    H167466   5.052   5.475   0.107 -0.6625 -0.4398 -0.7207
15325TIP3    H267467   5.120   5.401  -0.006  0.9425  0.2843 -0.2627
15326TIP3   OH267468   2.591   5.834  16.491  0.2883 -0.0822 -0.3548
15326TIP3    H167469   2.540   5.773  16.545  1.0457 -0.5804 -0.2004
15326TIP3    H267470   2.649   5.779  16.439 -0.1097  0.4233 -1.3599
15327TIP3   OH267471   3.836   5.970   3.003 -0.0532 -0.8507 -0.1313
15327TIP3    H167472   3.771   6.038   2.988  0.8621  0.1721  0.3924
15327TIP3    H267473   3.827   5.948   3.096  1.7548  0.8633  0.5172
15328TIP3   OH267474   2.209   4.596   0.826  0.7043 -0.3878 -0.2578
15328TIP3    H167475   2.246   4.589   0.914 -0.7142 -0.4990  0.3609
15328TIP3    H267476   2.139   4.531   0.825 -1.0989  1.4761 -0.4983
15329TIP3   OH267477   4.501   1.883   6.118 -0.0761  0.1441 -0.1271
15329TIP3    H167478   4.546   1.920   6.042 -0.6147  0.1253 -0.4569
15329TIP3    H267479   4.537   1.795   6.127  0.4818  0.3879  0.0531
15330TIP3   OH267480   5.606   6.134  16.146 -0.1422 -0.1155  0.7108
15330TIP3    H167481   5.594   6.217  16.191 -1.2804  0.2160 -0.1667
15330TIP3    H267482   5.599   6.155  16.053 -0.1186 -1.1454  0.4573
15331TIP3   OH267483   6.434   2.885   3.771  0.4506 -0.0321 -0.3067
15331TIP3    H167484   6.437   2.885   3.866 -0.6800 -1.3568 -0.2324
15331TIP3    H267485   6.359   2.941   3.750  3.1956  3.8458 -0.6624
15332TIP3   OH267486   1.938   1.158   3.182 -0.0784 -0.3567  0.1145
15332TIP3    H167487   1.889   1.086   3.221 -1.5416  0.8842  0.6864
15332TIP3    H267488   1.900   1.169   3.095  1.1392 -1.1725 -0.5590
15333TIP3   OH267489   0.922   5.675   4.246  0.5286  0.1613  0.0309
15333TIP3    H167490   0.983   5.684   4.172  2.5513  0.0287  1.5863
15333TIP3    H267491   0.928   5.758   4.293 -0.3075  0.0453  0.3648
15334TIP3   OH267492   5.903   1.551   5.868 -0.5244 -0.6857  0.1984
15334TIP3    H167493   5.808   1.564   5.873 -0.7978 -0.9098 -2.6217
15334TIP3    H267494   5.938   1.640   5.860 -0.6017 -0.6557  0.1823
15335TIP3   OH267495   3.065   3.925  15.808 -0.3561  0.1390 -0.4359
15335TIP3    H167496   3.112   3.905  15.727  0.0643 -0.0350 -0.1592
15335TIP3    H267497   3.104   4.007  15.839  0.1955 -0.3159  0.1044
15336TIP3   OH267498   4.455   3.084   3.157  0.4117 -0.0021 -0.2946
15336TIP3    H167499   4.392   3.052   3.223  1.2192 -0.6023  0.2093
15336TIP3    H267500   4.500   3.156   3.201  1.5301 -0.9423  0.1332
15337TIP3   OH267501   2.556   0.438  13.409  0.2535 -0.1619  0.3935
15337TIP3    H167502   2.604   0.440  13.326  0.3604 -1.6299  0.3831
15337TIP3    H267503   2.529   0.528  13.423 -1.4688 -0.1541 -2.2254
15338TIP3   OH267504   1.194   0.183   3.142 -0.2722  0.0188  0.9327
15338TIP3    H167505   1.100   0.168   3.131 -0.2727 -0.1563  1.1658
15338TIP3    H267506   1.228   0.191   3.053 -0.2034 -1.7487  0.7725
15339TIP3   OH267507   1.039   4.427   1.728 -0.0055 -0.0815  0.0319
15339TIP3    H167508   1.035   4.363   1.656  0.7185 -1.9106  1.5371
15339TIP3    H267509   0.957   4.417   1.775  0.4449 -0.5044  0.7455
15340TIP3   OH267510   1.709   0.716  12.977 -0.1332  0.9529 -0.0848
15340TIP3    H167511   1.613   0.718  12.978 -0.2129  1.0826 -2.5725
15340TIP3    H267512   1.731   0.624  12.968  0.0195  0.8726  0.9837
15341TIP3   OH267513   4.834   3.971   0.599  0.1227  0.2282  0.2066
15341TIP3    H167514   4.865   3.990   0.511  0.1780  0.3491  0.2515
15341TIP3    H267515   4.839   4.055   0.645  0.2975  0.1197  0.3864
15342TIP3   OH267516   4.021   0.603   3.705  0.3854 -0.1682  0.1367
15342TIP3    H167517   3.950   0.648   3.661 -0.0001  0.0775  0.9791
15342TIP3    H267518   4.101   0.640   3.666  0.0638  0.4676  0.0633
15343TIP3   OH267519   1.195   6.154  16.323  0.6686 -0.1388 -1.2805
15343TIP3    H167520   1.189   6.093  16.250  1.1037 -1.3485 -0.3250
15343TIP3    H267521   1.249   6.110  16.388  0.4662  0.9947 -0.3016
15344TIP3   OH267522   6.462   3.682  16.095 -0.1797 -0.0471 -0.0812
15344TIP3    H167523   6.481   3.752  16.032 -0.6775  0.0362 -0.1401
15344TIP3    H267524   6.385   3.638  16.059  0.8446 -1.4225 -0.6948
15345TIP3   OH267525   0.296   1.576  11.506  0.4504  0.2176  0.5366
15345TIP3    H167526   0.259   1.597  11.420  0.5260 -1.2523  0.1196
15345TIP3    H267527   0.269   1.486  11.523 -0.9231  0.9810  2.8216
15346TIP3   OH267528   5.918   0.794   4.612  0.0811  0.3901  0.4068
15346TIP3    H167529   5.929   0.790   4.707  0.5302 -0.2944  0.3317
15346TIP3    H267530   5.863   0.718   4.591 -0.3500  0.7619  0.1552
15347TIP3   OH267531   0.975   4.429   1.305  0.4224 -0.1732  0.2557
15347TIP3    H167532   0.988   4.523   1.299 -0.0366 -0.0742  0.8013
15347TIP3    H267533   1.052   4.397   1.354 -0.3850  0.1736  1.7998
15348TIP3   OH267534   1.323   5.600   3.784 -0.4171  0.1903 -0.0024
15348TIP3    H167535   1.315   5.516   3.739  2.6007 -0.1101 -0.1566
15348TIP3    H267536   1.306   5.579   3.876  1.3614 -0.8875  0.1359
15349TIP3   OH267537   6.078   1.620  15.151 -0.0772  0.1534 -0.1679
15349TIP3    H167538   6.100   1.570  15.230 -0.9800 -2.1532 -1.3015
15349TIP3    H267539   6.138   1.695  15.154  2.1050 -1.5073  1.1028
15350TIP3   OH267540   5.884   6.587  13.015 -0.3973  0.0710  1.0054
15350TIP3    H167541   5.912   6.506  12.972 -1.3854 -1.5624  3.2601
15350TIP3    H267542   5.947   6.599  13.086 -1.1797  0.3800  1.6558
15351TIP3   OH267543   3.292   1.697  16.686  0.4385  0.4718 -0.3374
15351TIP3    H167544   3.327   1.702  16.775 -1.5810 -0.6265  0.5869
15351TIP3    H267545   3.302   1.786  16.652 -1.8482  1.9281  2.2924
15352TIP3   OH267546   0.787   1.668   0.357  0.4520  0.3678  0.0564
15352TIP3    H167547   0.845   1.611   0.408  2.1845  1.0254 -1.0638
15352TIP3    H267548   0.827   1.755   0.366 -0.9139  1.0206 -0.0148
15353TIP3   OH267549   5.050   0.325  12.622  0.1449  0.1990  0.0281
15353TIP3    H167550   4.983   0.305  12.687 -0.4097  0.9424 -0.3055
15353TIP3    H267551   5.004   0.373  12.554  0.5719 -1.1827 -1.2703
15354TIP3   OH267552   0.206   4.786  13.115 -0.3592  0.0504  0.2417
15354TIP3    H167553   0.116   4.814  13.131 -0.7030 -1.2042  0.6151
15354TIP3    H267554   0.259   4.862  13.140 -1.3161  0.8790 -0.1884
15355TIP3   OH267555   1.949   1.040  17.214 -0.0838  0.0301 -0.4539
15355TIP3    H167556   1.890   1.110  17.241  1.0415  0.2682  1.6133
15355TIP3    H267557   1.906   0.999  17.139 -3.3166 -0.3999  1.4473
15356TIP3   OH267558   5.880   2.921  11.086  0.1258 -0.4528  0.1386
15356TIP3    H167559   5.901   2.911  10.993 -0.8608 -1.7648  0.0197
15356TIP3    H267560   5.883   3.015  11.101  2.9434 -0.3298 -0.5446
15357TIP3   OH267561   3.529   3.430   4.120  0.1808 -0.0411  0.4235
15357TIP3    H167562   3.483   3.497   4.070  1.0556  0.9636  0.9046
15357TIP3    H267563   3.479   3.421   4.201  0.7612  1.0026  0.9196
15358TIP3   OH267564   0.634   0.076   1.133  0.2492  0.0953  0.2076
15358TIP3    H167565   0.571   0.005   1.138  0.6910 -0.3415 -0.2600
15358TIP3    H267566   0.613   0.133   1.207  0.1423 -0.7326  0.8259
15359TIP3   OH267567   0.557   1.468  14.370  0.0410 -0.3898  0.0531
15359TIP3    H167568   0.540   1.413  14.294  1.7757 -2.2640  0.9195
15359TIP3    H267569   0.632   1.427  14.413  0.3843  1.7450  1.6900
15360TIP3   OH267570   4.182   1.054  11.365  0.2554 -0.3890 -0.4041
15360TIP3    H167571   4.203   1.001  11.442 -0.4308 -2.1857 -1.3914
15360TIP3    H267572   4.094   1.088  11.382  0.7141  0.5136  0.2491
15361TIP3   OH267573   3.317   0.200  13.202  0.0786 -0.0530  0.2044
15361TIP3    H167574   3.407   0.227  13.185  0.7108 -0.5897  2.3618
15361TIP3    H267575   3.310   0.200  13.298 -2.1429 -0.2935  0.0921
15362TIP3   OH267576   5.292   3.529  15.938 -0.3147  0.7705  0.2801
15362TIP3    H167577   5.363   3.589  15.961 -0.3011  0.7332  0.3350
15362TIP3    H267578   5.280   3.542  15.844  0.5573 -0.0647  0.0382
15363TIP3   OH267579   1.472   6.274   5.253 -0.0285  1.0243  0.5723
15363TIP3    H167580   1.451   6.244   5.342  0.2799 -1.1087 -0.0078
15363TIP3    H267581   1.557   6.234   5.234 -0.7164  0.2885 -1.1580
15364TIP3   OH267582   3.586   1.006   6.474 -0.1781 -0.0789  0.2465
15364TIP3    H167583   3.662   1.021   6.417  0.0391 -0.2095  0.5008
15364TIP3    H267584   3.591   1.077   6.538  0.7293 -1.0885  1.3267
15365TIP3   OH267585   4.477   2.479   5.381  0.2059 -0.3104  0.7403
15365TIP3    H167586   4.437   2.517   5.303  0.9598 -3.4153 -1.3886
15365TIP3    H267587   4.436   2.524   5.454 -1.0089  2.3624 -1.4072
15366TIP3   OH267588   3.000   1.736  13.767 -0.1536  0.4210  0.4404
15366TIP3    H167589   2.998   1.732  13.862  2.2460  1.6087  0.6090
15366TIP3    H267590   3.041   1.820  13.747 -2.1236  0.9603 -1.7004
15367TIP3   OH267591   3.329   1.485  10.721  0.1157  0.3227 -0.2709
15367TIP3    H167592   3.323   1.577  10.745 -1.7776  0.0830  0.2933
15367TIP3    H267593   3.324   1.438  10.805  0.0718 -0.3309 -0.6346
15368TIP3   OH267594   4.385   5.670  11.509  0.0519 -0.3944  0.0795
15368TIP3    H167595   4.468   5.666  11.557  0.5001  1.2896 -0.4852
15368TIP3    H267596   4.342   5.587  11.529  3.0816 -2.6814 -1.8741
15369TIP3   OH267597   3.615   0.016  15.680  0.0178  0.2935 -0.7158
15369TIP3    H167598   3.564   0.093  15.656  0.1252  0.1318 -1.4607
15369TIP3    H267599   3.622  -0.035  15.600 -2.5418 -1.9607  0.3207
15370TIP3   OH267600   6.229   2.159   3.946 -0.4199 -0.2928  0.2030
15370TIP3    H167601   6.264   2.193   3.864 -0.6154  0.4078  0.4003
15370TIP3    H267602   6.137   2.140   3.927 -0.8927  1.3329  0.6415
15371TIP3   OH267603   2.905   4.967  15.495 -0.1138 -0.1192 -0.1977
15371TIP3    H167604   2.900   5.043  15.552  0.7464 -0.7002  0.6783
15371TIP3    H267605   2.902   4.892  15.555 -0.9012 -0.7829 -1.0339
15372TIP3   OH267606   6.115   5.240   1.578 -0.2642  0.1487 -0.1846
15372TIP3    H167607   6.038   5.237   1.521  0.9575  1.1123 -1.9991
15372TIP3    H267608   6.144   5.149   1.584 -1.2538 -0.1605  0.1352
15373TIP3   OH267609   3.837   6.627   1.132 -0.0789  0.1181 -0.2682
15373TIP3    H167610   3.869   6.555   1.186 -0.0703 -0.0091 -0.4405
15373TIP3    H267611   3.855   6.598   1.042  0.8811  0.7827 -0.3091
15374TIP3   OH267612   3.485   1.383   0.009  0.0314 -0.3202  0.2778
15374TIP3    H167613   3.481   1.471   0.046 -1.5590  0.0458 -0.6714
15374TIP3    H267614   3.483   1.397  -0.086 -1.8746 -1.4002  0.1170
15375TIP3   OH267615   1.442   1.572   0.897  0.0359  0.0907  0.7225
15375TIP3    H167616   1.351   1.548   0.913  0.2870 -0.9057  0.7191
15375TIP3    H267617   1.442   1.668   0.892 -0.7056  0.2101  2.5531
15376TIP3   OH267618   0.609   6.368  15.387 -0.2561  0.3941  0.0457
15376TIP3    H167619   0.560   6.331  15.461 -0.2560 -1.4694 -0.8118
15376TIP3    H267620   0.541   6.391  15.323 -0.1401 -1.7516 -0.9508
15377TIP3   OH267621   2.511   4.845   1.816  0.6383 -0.7160  0.0620
15377TIP3    H167622   2.525   4.878   1.727 -0.4862 -0.8285 -0.1677
15377TIP3    H267623   2.585   4.787   1.832  1.5952  0.3675 -0.2687
15378TIP3   OH267624   1.674   0.243   1.071  0.0093  0.4089  0.0120
15378TIP3    H167625   1.744   0.196   1.116  1.2719  1.3414 -0.8910
15378TIP3    H267626   1.691   0.335   1.091 -1.0198  0.6573 -0.1772
15379TIP3   OH267627   0.653   5.122  16.636  0.1843  0.5876 -0.5282
15379TIP3    H167628   0.581   5.067  16.667  0.3504  1.3050  1.2439
15379TIP3    H267629   0.732   5.073  16.660  0.3516  1.7757  1.6189
15380TIP3   OH267630   1.209   3.916   5.978 -0.2078 -0.1377 -0.0872
15380TIP3    H167631   1.278   3.852   5.999 -0.6437 -0.7312 -0.4320
15380TIP3    H267632   1.195   3.963   6.060  0.7894  0.1653 -0.0786
15381TIP3   OH267633   2.639   6.251   0.197  0.5335  0.2247 -0.1629
15381TIP3    H167634   2.637   6.225   0.104 -0.1074 -1.0295  0.1747
15381TIP3    H267635   2.729   6.281   0.211  0.5401  0.7922 -1.2724
15382TIP3   OH267636   2.555   4.998   0.106  0.3509  0.0828 -0.3609
15382TIP3    H167637   2.557   4.938   0.180 -1.2432 -0.0353 -0.3855
15382TIP3    H267638   2.563   5.085   0.145 -2.5858  0.1914  0.2525
15383TIP3   OH267639   4.668   2.304   2.336  0.6107 -0.2995 -0.0466
15383TIP3    H167640   4.759   2.282   2.353  0.8828  0.5732 -0.3244
15383TIP3    H267641   4.672   2.379   2.278 -0.2843  0.1547  0.4577
15384TIP3   OH267642   5.331   0.840  17.009  0.2424 -0.8048  0.3974
15384TIP3    H167643   5.393   0.844  17.081  0.8514  0.4426 -0.1705
15384TIP3    H267644   5.246   0.824  17.052  0.7858 -1.4723  1.2570
15385TIP3   OH267645   4.808   0.395  10.698  0.4435 -0.1784  0.4024
15385TIP3    H167646   4.847   0.314  10.664  0.9691 -0.6871  2.1078
15385TIP3    H267647   4.882   0.455  10.706 -0.0280  0.7109 -1.3767
15386TIP3   OH267648   1.337   0.199   0.585  0.2987  0.4478  0.2453
15386TIP3    H167649   1.261   0.239   0.630 -0.4590 -0.2365 -0.3989
15386TIP3    H267650   1.385   0.273   0.549 -0.8470  0.8241 -0.5513
15387TIP3   OH267651   6.197   2.667  15.464  0.3339  0.1549  0.1037
15387TIP3    H167652   6.146   2.590  15.490  0.3903  0.4591  1.1674
15387TIP3    H267653   6.279   2.659  15.512  0.3221  0.8926  0.2642
15388TIP3   OH267654   2.567   6.242  12.031  0.1111 -0.2397  0.5365
15388TIP3    H167655   2.500   6.277  12.090  0.0476 -0.9379  0.8994
15388TIP3    H267656   2.605   6.319  11.988 -0.4659  0.2112  0.8209
15389TIP3   OH267657   3.846   5.936  16.686 -0.0060 -0.0168 -0.3580
15389TIP3    H167658   3.851   5.873  16.758  0.7670 -1.1629 -1.3595
15389TIP3    H267659   3.928   5.985  16.692 -0.1782  0.2482 -0.1505
15390TIP3   OH267660   5.348   1.082   5.045  0.5910 -0.4666 -0.1404
15390TIP3    H167661   5.263   1.079   5.088  0.9001  0.5496  0.5798
15390TIP3    H267662   5.392   1.158   5.084  2.0484 -1.3071 -0.0776
15391TIP3   OH267663   6.699   5.938   2.425 -0.4733  0.0290  0.0398
15391TIP3    H167664   6.760   5.870   2.396 -1.5801 -1.0818  0.2367
15391TIP3    H267665   6.629   5.937   2.359  0.0553  1.8111 -0.6062
15392TIP3   OH267666   1.662   6.149  12.733  0.3899  0.3593 -0.2799
15392TIP3    H167667   1.572   6.148  12.767  1.1301 -0.4761  1.8277
15392TIP3    H267668   1.652   6.174  12.641 -1.8506  1.8699  0.2716
15393TIP3   OH267669   5.631   1.552  13.852  0.0461  0.2042  0.4373
15393TIP3    H167670   5.573   1.476  13.855 -0.9377  0.7175 -2.4749
15393TIP3    H267671   5.578   1.625  13.886 -1.1969  0.6979 -2.3302
15394TIP3   OH267672   6.134   3.701   5.907  0.1469 -0.5790  0.1286
15394TIP3    H167673   6.064   3.667   5.964 -0.2447 -1.1837 -0.6948
15394TIP3    H267674   6.212   3.654   5.935  0.8101  1.7818  2.6743
15395TIP3   OH267675   3.366   3.498   1.671  0.3703  0.3305  0.0083
15395TIP3    H167676   3.417   3.578   1.659  1.4546 -0.1930  0.9457
15395TIP3    H267677   3.321   3.486   1.587 -0.0095  2.0367 -0.0788
15396TIP3   OH267678   1.393   3.179   6.211 -0.6957  0.3825 -0.1869
15396TIP3    H167679   1.401   3.271   6.186  2.8190  0.4020  0.5162
15396TIP3    H267680   1.392   3.180   6.306 -2.1203 -0.2973 -0.1667
15397TIP3   OH267681   0.231   3.787   5.235 -0.1220 -0.0146 -0.2636
15397TIP3    H167682   0.208   3.784   5.142 -0.7200 -0.4592 -0.1139
15397TIP3    H267683   0.175   3.720   5.275  0.6703 -0.3546  0.2987
15398TIP3   OH267684   1.668   0.713  15.747 -0.2152  0.7299  0.2089
15398TIP3    H167685   1.618   0.794  15.752 -1.1040  0.1874  0.2542
15398TIP3    H267686   1.688   0.692  15.839  1.3207  1.6607  0.1379
15399TIP3   OH267687   5.713   5.546   0.666 -0.0931 -0.0521 -0.2257
15399TIP3    H167688   5.620   5.566   0.673 -0.5836 -1.6712 -1.6251
15399TIP3    H267689   5.728   5.477   0.731  0.5627  1.4224  1.2550
15400TIP3   OH267690   0.392   6.570  14.750  0.0967  0.1368  0.1421
15400TIP3    H167691   0.480   6.607  14.753 -0.0674  0.7537 -1.5041
15400TIP3    H267692   0.364   6.566  14.842  1.4338  0.8979  0.6086
15401TIP3   OH267693   4.201   2.574   1.805  0.2321 -0.3724 -0.5833
15401TIP3    H167694   4.230   2.632   1.876 -1.1597 -0.3477 -0.0037
15401TIP3    H267695   4.208   2.486   1.842 -0.3510 -0.3689 -0.4477
15402TIP3   OH267696   6.373   5.283  12.780  0.1378  0.6436  0.1835
15402TIP3    H167697   6.444   5.221  12.797 -2.2923 -2.5863 -0.4754
15402TIP3    H267698   6.329   5.292  12.865 -1.0015 -0.6458 -0.2379
15403TIP3   OH267699   3.594   2.463   2.423  0.3800  0.5319  0.3066
15403TIP3    H167700   3.503   2.436   2.410 -0.1872  2.2384  0.4166
15403TIP3    H267701   3.608   2.530   2.356  1.6910  0.0502  0.0690
15404TIP3   OH267702   1.732   5.250  12.722  0.4662  0.3449  0.3368
15404TIP3    H167703   1.802   5.192  12.692 -0.1344  0.9434 -2.4138
15404TIP3    H267704   1.759   5.275  12.811  2.5605 -1.2370  0.2285
15405TIP3   OH267705   6.502   2.444   4.151  0.6687  0.2392 -0.2016
15405TIP3    H167706   6.523   2.487   4.068  1.3317  0.4927  0.0937
15405TIP3    H267707   6.526   2.507   4.218  1.2737 -0.4298  0.2244
15406TIP3   OH267708   3.553   2.995  16.339 -0.2264 -0.7312 -0.1820
15406TIP3    H167709   3.473   3.043  16.318  0.0965  0.3219  0.8269
15406TIP3    H267710   3.613   3.016  16.267 -0.5100 -0.6344 -0.3890
15407TIP3   OH267711   1.010   6.238   3.386 -0.1730 -0.1713  0.1064
15407TIP3    H167712   1.041   6.149   3.404 -0.3363 -0.4479 -0.9393
15407TIP3    H267713   0.925   6.242   3.429  0.6382  0.1139  1.7575
15408TIP3   OH267714   2.848   3.459   1.425 -0.4362 -0.9490 -0.0486
15408TIP3    H167715   2.810   3.547   1.426  1.7853  0.1185  2.0375
15408TIP3    H267716   2.889   3.451   1.339 -0.7561  0.0311 -0.3056
15409TIP3   OH267717   4.681   5.356  13.194 -0.1232  0.1103  0.1283
15409TIP3    H167718   4.632   5.312  13.124 -0.8077  0.3479  0.4484
15409TIP3    H267719   4.771   5.360  13.161  0.1104 -2.0858  0.3616
15410TIP3   OH267720   5.582   0.424   3.479 -0.0349 -0.1776 -0.1026
15410TIP3    H167721   5.522   0.447   3.549 -1.0730 -1.8375 -0.3984
15410TIP3    H267722   5.526   0.405   3.404  0.8802 -1.1522 -0.5700
15411TIP3   OH267723   0.429   3.813  16.450  0.0284  0.1211  0.7458
15411TIP3    H167724   0.448   3.719  16.452  0.4915  0.1423 -0.9129
15411TIP3    H267725   0.338   3.819  16.423  0.3782  0.1361 -0.5088
15412TIP3   OH267726   2.133   5.291  11.362  0.4016 -0.4151  0.4010
15412TIP3    H167727   2.140   5.235  11.439  1.0369  0.1306  0.7530
15412TIP3    H267728   2.080   5.365  11.390  0.9720 -0.0143  0.4419
15413TIP3   OH267729   5.782   0.533   4.620  0.2407 -0.3304  0.0320
15413TIP3    H167730   5.743   0.585   4.690  0.5718  2.4426 -1.6720
15413TIP3    H267731   5.709   0.509   4.563  0.2338 -0.7793  0.2257
15414TIP3   OH267732   2.858   0.820  14.429 -0.2104 -0.4666 -0.3111
15414TIP3    H167733   2.898   0.840  14.344  0.9258  1.2719  0.5672
15414TIP3    H267734   2.924   0.766  14.474 -0.4558 -0.6817 -0.2044
15415TIP3   OH267735   0.926   0.184  15.605 -0.5297 -0.1138  0.1535
15415TIP3    H167736   0.929   0.209  15.698  0.5766 -1.1908  0.4402
15415TIP3    H267737   0.834   0.196  15.580 -0.8644  0.1163  1.4123
15416TIP3   OH267738   1.015   1.724   6.199 -0.2822  0.4391  0.4011
15416TIP3    H167739   0.953   1.786   6.239 -1.1274 -1.5902  2.4388
15416TIP3    H267740   0.960   1.653   6.166  0.8097 -0.3829  0.3014
15417TIP3   OH267741   1.632   2.032  11.267 -0.0547  0.1549  0.4112
15417TIP3    H167742   1.601   2.079  11.190 -0.9489 -0.6922  0.2297
15417TIP3    H267743   1.696   2.091  11.307  0.5463  0.5579 -1.0508
15418TIP3   OH267744   6.351   2.725  11.951 -0.7823  0.2129 -0.1373
15418TIP3    H167745   6.300   2.678  11.885 -0.4003 -1.9884  1.0302
15418TIP3    H267746   6.435   2.680  11.953 -0.6882  0.3761  1.6316
15419TIP3   OH267747   5.604   2.863   1.279 -0.5649 -0.3822 -0.2542
15419TIP3    H167748   5.543   2.791   1.263 -2.2218  0.5152  1.6024
15419TIP3    H267749   5.559   2.919   1.341  0.7054  2.2490 -1.5426
15420TIP3   OH267750   2.814   1.478  12.419  0.2844 -0.1507  0.3866
15420TIP3    H167751   2.733   1.528  12.406  0.6612  0.3658 -0.0266
15420TIP3    H267752   2.878   1.543  12.447  0.1398 -0.8319  2.4040
15421TIP3   OH267753   3.496   1.502  14.984 -0.1236 -0.2213  0.0634
15421TIP3    H167754   3.414   1.496  15.032 -0.6363 -0.4523 -0.8239
15421TIP3    H267755   3.488   1.438  14.913  0.0034  1.1293 -1.2124
15422TIP3   OH267756   5.560   3.925   1.335  0.1111 -0.2489 -0.1030
15422TIP3    H167757   5.574   4.002   1.280 -1.3845  0.0777 -0.0636
15422TIP3    H267758   5.563   3.958   1.425  0.8435 -0.4821 -0.0396
15423TIP3   OH267759   1.425   0.677   4.116  0.1988  0.2052 -0.3357
15423TIP3    H167760   1.517   0.665   4.094  0.5399 -1.2344  1.5950
15423TIP3    H267761   1.378   0.617   4.058  0.3488  1.3847 -1.7577
15424TIP3   OH267762   4.519   5.423   3.574  0.3967  0.5880  0.2978
15424TIP3    H167763   4.587   5.383   3.521  0.6957  0.0766  1.0460
15424TIP3    H267764   4.560   5.502   3.610 -0.3974  1.9895 -1.7016
15425TIP3   OH267765   0.107   4.936   4.488 -0.0563  0.3040 -0.1063
15425TIP3    H167766   0.045   4.899   4.550  1.4382 -0.1079  1.2272
15425TIP3    H267767   0.053   4.970   4.417 -1.7571 -0.3141  0.8294
15426TIP3   OH267768   4.026   5.663  11.990  0.2349 -0.0974  0.2701
15426TIP3    H167769   4.071   5.675  11.906  0.3398 -0.5999  0.2464
15426TIP3    H267770   4.034   5.747  12.035  2.7752 -0.6494  1.0430
15427TIP3   OH267771   2.128   2.221  12.479 -0.9763  0.2341 -0.0868
15427TIP3    H167772   2.137   2.165  12.556 -0.3466  1.3993  0.7068
15427TIP3    H267773   2.040   2.201  12.446 -0.7534 -1.2643  0.1182
15428TIP3   OH267774   1.124   4.430  14.532  0.3678 -0.0550  0.0653
15428TIP3    H167775   1.053   4.490  14.510 -0.5687 -1.6759 -1.6297
15428TIP3    H267776   1.120   4.421  14.627 -1.3736  0.2777  0.0512
15429TIP3   OH267777   5.947   0.742   5.137  0.3257  0.2954  0.4774
15429TIP3    H167778   5.871   0.745   5.195  0.2390 -0.6968  0.4296
15429TIP3    H267779   6.022   0.738   5.196  0.4258  2.1826  0.5422
15430TIP3   OH267780   4.020   2.314  12.747 -0.4529 -0.0993  0.6905
15430TIP3    H167781   3.994   2.264  12.670 -2.1169  1.1020  0.4320
15430TIP3    H267782   3.961   2.283  12.816  1.7302 -1.9720  1.8696
15431TIP3   OH267783   1.332   5.785   4.597  0.0048 -0.0325 -0.4902
15431TIP3    H167784   1.344   5.735   4.677 -4.6875 -0.9351 -0.0627
15431TIP3    H267785   1.314   5.874   4.627 -0.8111 -0.1643 -0.5697
15432TIP3   OH267786   3.649   1.791  11.162 -0.0740  0.3582  0.3794
15432TIP3    H167787   3.605   1.727  11.106 -2.0440  0.2030  2.0079
15432TIP3    H267788   3.726   1.744  11.195 -1.3630 -1.1761  1.3747
15433TIP3   OH267789   6.336   1.096  12.824  0.2331 -0.6724  0.1595
15433TIP3    H167790   6.411   1.149  12.850  0.5761 -0.6169 -0.9290
15433TIP3    H267791   6.341   1.019  12.882  2.0147 -1.3986 -0.8570
15434TIP3   OH267792   4.496   0.504  13.925 -0.5160 -0.1946  0.4348
15434TIP3    H167793   4.464   0.592  13.942  0.1992  0.2963 -0.6597
15434TIP3    H267794   4.589   0.508  13.948 -0.7583 -1.0511  1.6818
15435TIP3   OH267795   2.157   5.887  16.716  0.6216  0.3028 -0.1637
15435TIP3    H167796   2.091   5.947  16.751  0.0216  0.3671 -1.3392
15435TIP3    H267797   2.231   5.894  16.776  0.0473  1.2198  0.4518
15436TIP3   OH267798   6.429   1.390   0.881  0.2333  0.6625 -0.4726
15436TIP3    H167799   6.461   1.476   0.910  0.9514  0.0022  0.7669
15436TIP3    H267800   6.504   1.350   0.837 -0.1302  0.7022 -1.1353
15437TIP3   OH267801   2.805   5.041   4.546 -0.4560 -0.2274  0.3169
15437TIP3    H167802   2.894   5.009   4.539 -0.8335 -1.0707 -0.8841
15437TIP3    H267803   2.796   5.069   4.638  1.0611 -0.0032  0.4104
15438TIP3   OH267804   5.847   4.764   4.286  0.1858 -0.2702 -0.4610
15438TIP3    H167805   5.830   4.831   4.221  1.8585 -0.8402 -1.5412
15438TIP3    H267806   5.817   4.803   4.369  1.3425  1.9503 -0.9917
15439TIP3   OH267807   4.836   2.805  12.046  0.0967 -0.4756 -0.6533
15439TIP3    H167808   4.815   2.775  12.134  1.0641 -0.3325 -0.3638
15439TIP3    H267809   4.928   2.831  12.050  1.1593 -3.4782 -2.5161
15440TIP3   OH267810   2.962   1.858  14.932 -0.6495  0.7964  0.3614
15440TIP3    H167811   2.892   1.901  14.884  0.3170  1.4006 -0.5467
15440TIP3    H267812   3.024   1.928  14.952  0.4827  0.0088 -0.2950
15441TIP3   OH267813   1.848   6.622  13.738  0.9226 -0.3034 -0.5726
15441TIP3    H167814   1.878   6.710  13.763  0.8408  0.3058 -2.4243
15441TIP3    H267815   1.827   6.579  13.820 -0.8112  2.0579  0.3099
15442TIP3   OH267816   1.427   4.672   2.117 -0.3517 -0.3078  0.5137
15442TIP3    H167817   1.361   4.703   2.179 -0.2536 -2.4119  1.7749
15442TIP3    H267818   1.511   4.695   2.157 -0.2836 -1.8412  1.3402
15443TIP3   OH267819   0.663   5.197  14.150 -0.3343 -0.1120  0.0139
15443TIP3    H167820   0.610   5.183  14.071 -1.1188  0.4570  0.4169
15443TIP3    H267821   0.657   5.292  14.165 -0.4402 -0.2553  0.9163
15444TIP3   OH267822   1.848   6.530   4.137 -0.4685  0.2235  0.5100
15444TIP3    H167823   1.892   6.607   4.101 -1.2006 -0.0420 -1.0300
15444TIP3    H267824   1.780   6.509   4.073  0.1582 -2.1099  0.5144
15445TIP3   OH267825   2.523   3.748   3.491  0.1901 -0.0339 -0.5419
15445TIP3    H167826   2.480   3.819   3.443 -0.9689 -0.8618 -0.7666
15445TIP3    H267827   2.487   3.754   3.580  0.2353 -0.2275 -0.5109
15446TIP3   OH267828   4.985   1.149  11.985 -0.0649 -0.5088 -0.5065
15446TIP3    H167829   4.974   1.091  11.909 -2.3740 -0.6201 -0.1492
15446TIP3    H267830   4.965   1.093  12.061  0.8333 -0.0324  0.1013
15447TIP3   OH267831   4.171   0.214  15.404  0.0090 -0.1398  0.6465
15447TIP3    H167832   4.130   0.148  15.348  0.0518 -0.4027  0.9198
15447TIP3    H267833   4.123   0.295  15.386  0.1636 -0.1746  0.0775
15448TIP3   OH267834   6.530   4.161   3.516 -1.0303 -0.3218 -0.0927
15448TIP3    H167835   6.470   4.199   3.580 -1.8611 -1.4322 -0.1779
15448TIP3    H267836   6.474   4.139   3.441 -0.3788 -0.6406 -0.4955
15449TIP3   OH267837   3.729   6.576  12.397 -0.0467 -0.3419 -0.0661
15449TIP3    H167838   3.757   6.590  12.488  0.6869 -1.9712 -0.0232
15449TIP3    H267839   3.665   6.646  12.382  2.1668  2.0390  0.6230
15450TIP3   OH267840   4.658   3.374  14.385 -0.1946  0.1023  0.1731
15450TIP3    H167841   4.683   3.386  14.294  0.3274 -0.8481  0.1745
15450TIP3    H267842   4.737   3.391  14.435  0.1405 -1.5123  0.2743
15451TIP3   OH267843   6.157   2.258  11.213 -0.8455  0.3532  0.8270
15451TIP3    H167844   6.231   2.240  11.156 -1.9239 -1.6739 -0.0432
15451TIP3    H267845   6.081   2.258  11.155 -1.8418 -0.5781  2.0546
15452TIP3   OH267846   1.420   4.620   0.969 -0.2559  0.0425 -0.3413
15452TIP3    H167847   1.420   4.715   0.959 -2.5171  0.1142 -0.2307
15452TIP3    H267848   1.334   4.593   0.936 -0.6107 -1.7050  1.7808
15453TIP3   OH267849   4.986   3.211   0.753  0.0228  0.3804 -0.1594
15453TIP3    H167850   5.074   3.196   0.719 -0.9417 -0.4697 -2.4995
15453TIP3    H267851   5.000   3.258   0.835  2.5871  1.6096 -1.1712
15454TIP3   OH267852   3.611   3.007   2.647 -0.2112 -0.0391 -0.3455
15454TIP3    H167853   3.561   3.080   2.683  1.5371  1.7515 -1.3363
15454TIP3    H267854   3.647   3.041   2.565  1.4440 -1.6943 -0.3681
15455TIP3   OH267855   1.422   4.033  15.983  0.2442 -0.1913  0.0736
15455TIP3    H167856   1.415   3.996  15.895 -1.3052 -0.5467  0.3299
15455TIP3    H267857   1.422   3.958  16.042 -0.0811  0.1003  0.4524
15456TIP3   OH267858   6.295   0.559  17.025 -0.3132  0.2673  0.2235
15456TIP3    H167859   6.303   0.496  16.954  0.9746 -0.2455  0.8009
15456TIP3    H267860   6.258   0.509  17.098  0.3726  0.2551  0.5702
15457TIP3   OH267861   4.140   0.475   6.699 -0.1631 -0.3440 -0.1558
15457TIP3    H167862   4.141   0.540   6.770  0.8713 -0.0078 -0.4648
15457TIP3    H267863   4.064   0.499   6.645  1.5706  2.1523 -1.6558
15458TIP3   OH267864   4.940   0.577   3.049 -0.2530 -0.1075  0.1223
15458TIP3    H167865   5.019   0.523   3.046 -0.4247 -0.4722  1.3708
15458TIP3    H267866   4.953   0.635   3.124  0.7904  3.0797 -2.3090
15459TIP3   OH267867   5.517   0.267   4.196  0.2344  0.3545 -0.6755
15459TIP3    H167868   5.573   0.202   4.239  1.1480  1.2665 -0.4456
15459TIP3    H267869   5.517   0.342   4.256 -0.3480  0.7777 -1.1962
15460TIP3   OH267870   6.498   5.195   6.659 -0.4963  0.2806 -0.1128
15460TIP3    H167871   6.423   5.153   6.617  0.2804 -0.2427 -1.0239
15460TIP3    H267872   6.559   5.123   6.675  0.0105  0.7725  0.1790
15461TIP3   OH267873   4.189   5.993   5.577 -0.2834  0.4486 -0.2999
15461TIP3    H167874   4.122   5.966   5.515 -0.6021 -0.6509  0.5097
15461TIP3    H267875   4.217   5.912   5.620  0.5752  1.0711  0.3522
15462TIP3   OH267876   5.249   1.415   1.920  0.2201  0.0520 -0.3288
15462TIP3    H167877   5.231   1.472   1.994  1.8763  0.4734 -0.2100
15462TIP3    H267878   5.163   1.394   1.884 -0.6401 -0.2900  1.7768
15463TIP3   OH267879   5.858   3.670  16.045 -0.1706 -0.8644 -0.3551
15463TIP3    H167880   5.880   3.647  16.135  1.1234  0.2496 -0.3419
15463TIP3    H267881   5.901   3.755  16.031 -1.0048 -0.6308 -1.7742
15464TIP3   OH267882   0.155   2.514  13.401  0.5029  0.7815 -0.2606
15464TIP3    H167883   0.189   2.442  13.454  1.0987  0.3536 -1.1813
15464TIP3    H267884   0.067   2.485  13.375  0.6652  0.4681 -0.4685
15465TIP3   OH267885   5.917   5.361  13.368 -0.1394  0.2037  0.0413
15465TIP3    H167886   5.969   5.283  13.389  1.4349  1.3864  0.7326
15465TIP3    H267887   5.938   5.379  13.276 -0.3307 -0.0589 -0.0538
15466TIP3   OH267888   2.128   6.569   4.922 -0.5518  0.2968 -0.1773
15466TIP3    H167889   2.127   6.517   4.842  1.6318 -0.1362  0.0344
15466TIP3    H267890   2.187   6.523   4.981 -3.4807 -0.4139  2.4768
15467TIP3   OH267891   5.230   6.404  13.617  0.4861 -0.7751 -0.3218
15467TIP3    H167892   5.165   6.438  13.556  0.1011 -0.8227  0.0563
15467TIP3    H267893   5.302   6.374  13.562  0.5938  0.1545 -0.6874
15468TIP3   OH267894   6.238   5.544   2.867  0.4349  0.1351 -0.3905
15468TIP3    H167895   6.154   5.545   2.822 -0.9124  2.3698  1.9138
15468TIP3    H267896   6.303   5.557   2.798 -1.3178  0.9421 -1.9493
15469TIP3   OH267897   1.962   0.980  13.799 -0.5414 -0.5027 -0.2767
15469TIP3    H167898   1.909   1.060  13.800  0.4917  0.2509 -1.6830
15469TIP3    H267899   1.902   0.911  13.826 -1.4603  0.7284  1.0024
15470TIP3   OH267900   3.574   5.303  14.568  0.2151 -0.1793  0.2606
15470TIP3    H167901   3.536   5.377  14.519  0.3686 -0.1191  0.2331
15470TIP3    H267902   3.607   5.343  14.649 -2.7890 -0.7083  1.8969
15471TIP3   OH267903   5.419   2.275   4.515  0.5750  0.0791  0.0051
15471TIP3    H167904   5.326   2.277   4.491  0.2895 -0.8926  0.9502
15471TIP3    H267905   5.419   2.286   4.610  1.4254 -0.0281  0.0211
15472TIP3   OH267906   2.137   5.614  14.186  0.7846  0.3279 -0.5096
15472TIP3    H167907   2.045   5.638  14.196  0.5935 -0.9884  1.6599
15472TIP3    H267908   2.182   5.696  14.169 -0.7547  1.0167 -1.4640
15473TIP3   OH267909   0.325   5.936  10.814  0.3907 -0.3542 -0.0428
15473TIP3    H167910   0.391   5.895  10.758 -1.5866 -1.3167 -1.8317
15473TIP3    H267911   0.311   5.873  10.884  0.1171 -1.0106 -0.6687
15474TIP3   OH267912   1.955   2.401   0.166 -0.2440  0.3884 -0.0990
15474TIP3    H167913   1.903   2.336   0.211 -0.1502 -0.9542 -1.8253
15474TIP3    H267914   2.046   2.378   0.186 -0.1994 -0.2762 -1.0330
15475TIP3   OH267915   0.357   1.573   1.139  0.4658 -0.2451  0.4844
15475TIP3    H167916   0.350   1.518   1.061 -0.1874 -1.1470  1.1540
15475TIP3    H267917   0.276   1.624   1.141  0.3337 -0.4635  0.7493
15476TIP3   OH267918   3.969   3.402  16.429 -0.4696 -0.0672 -0.3266
15476TIP3    H167919   3.933   3.490  16.416  0.0926 -0.0285 -1.7825
15476TIP3    H267920   4.054   3.404  16.386  0.1716 -0.9262  0.8376
15477TIP3   OH267921   6.616   3.198  11.391 -0.0905  0.2100  0.0800
15477TIP3    H167922   6.641   3.259  11.322  1.4086 -1.1237 -0.6108
15477TIP3    H267923   6.659   3.232  11.470  0.5547  0.1735 -0.2526
15478TIP3   OH267924   0.015   0.441  13.136 -0.3664  0.2673 -0.3039
15478TIP3    H167925  -0.011   0.446  13.044 -0.9927  1.1207 -0.0819
15478TIP3    H267926  -0.045   0.377  13.174 -2.2595  2.2498  0.2160
15479TIP3   OH267927   1.879   4.023  17.226 -0.2754 -0.2816  0.4128
15479TIP3    H167928   1.906   4.098  17.279 -0.5050 -0.1239  0.3104
15479TIP3    H267929   1.915   3.947  17.271  1.1580 -0.0173 -0.2359
15480TIP3   OH267930   2.640   5.759  12.014  0.8329 -0.0542 -0.1388
15480TIP3    H167931   2.598   5.845  12.012  1.2833  0.1538 -0.8107
15480TIP3    H267932   2.579   5.702  11.967 -0.1958 -0.4627  1.5666
15481TIP3   OH267933   3.219   4.893  16.053 -0.1185 -0.0871 -0.2106
15481TIP3    H167934   3.312   4.884  16.028  1.1114  0.4036  3.5604
15481TIP3    H267935   3.209   4.834  16.128 -2.8697  0.0318 -0.3970
15482TIP3   OH267936   2.019   2.375   1.844 -0.1079  0.4485  0.1249
15482TIP3    H167937   2.084   2.371   1.774  0.1179  0.2969  0.3440
15482TIP3    H267938   2.037   2.298   1.898 -0.1373  0.6915  0.4806
15483TIP3   OH267939   2.438   4.527  12.942  0.2648  0.5503 -0.4041
15483TIP3    H167940   2.360   4.505  12.890 -0.6999 -1.7153  1.8083
15483TIP3    H267941   2.507   4.538  12.877 -1.6905  1.8375 -2.3960
15484TIP3   OH267942   1.856   3.873   0.494 -0.2080  0.6025 -0.3966
15484TIP3    H167943   1.788   3.913   0.549 -0.6265 -0.3111 -0.2249
15484TIP3    H267944   1.937   3.887   0.542 -0.5722 -0.2096  0.4915
15485TIP3   OH267945   4.815   2.803  17.301 -0.0991 -0.6688  0.3671
15485TIP3    H167946   4.797   2.783  17.392  0.0131 -0.0599  0.5247
15485TIP3    H267947   4.894   2.858  17.303 -1.5379  1.5055  0.0928
15486TIP3   OH267948   6.439   0.209   0.986 -0.1194  0.2519 -0.1433
15486TIP3    H167949   6.480   0.271   1.046 -1.2575  2.4724 -1.5333
15486TIP3    H267950   6.357   0.185   1.028 -0.3089  0.7631 -0.2232
15487TIP3   OH267951   1.252   2.555   4.590  0.1055 -0.0134  0.6634
15487TIP3    H167952   1.285   2.615   4.658  1.6584 -1.5985  1.3873
15487TIP3    H267953   1.320   2.557   4.523 -0.9268  0.7277 -0.3932
15488TIP3   OH267954   4.030   4.718  11.405  0.3180  0.4942 -0.4287
15488TIP3    H167955   4.036   4.779  11.331  1.5068  0.0448 -0.7373
15488TIP3    H267956   3.961   4.754  11.460 -1.1046  0.4624 -2.0957
15489TIP3   OH267957   4.014   2.526   1.558 -0.3421 -0.9549 -0.3118
15489TIP3    H167958   4.047   2.535   1.647 -2.4395  0.4852  0.4029
15489TIP3    H267959   4.093   2.524   1.503  0.9525  0.4076  1.3885
15490TIP3   OH267960   1.124   1.900   3.311 -0.2740 -0.0114  0.0451
15490TIP3    H167961   1.113   1.942   3.226  0.0132  1.5628  0.7526
15490TIP3    H267962   1.119   1.806   3.292 -1.1417  0.3200 -1.5624
15491TIP3   OH267963   2.740   1.937  16.383  0.4426 -0.2733  0.2127
15491TIP3    H167964   2.738   1.940  16.479  0.8572  0.6601  0.2045
15491TIP3    H267965   2.754   2.028  16.357 -0.2720 -0.4329 -0.7608
15492TIP3   OH267966   1.929   6.605  11.596 -0.1135 -0.3432  0.0345
15492TIP3    H167967   1.885   6.600  11.681  1.7377 -0.8204  1.0388
15492TIP3    H267968   1.960   6.695  11.590  2.8082 -1.0929  1.6215
15493TIP3   OH267969   1.001   6.359  16.010  0.1330 -0.0290  0.1650
15493TIP3    H167970   1.028   6.340  16.100 -2.2372  1.2195  1.2415
15493TIP3    H267971   0.991   6.455  16.008 -1.1110 -0.1581 -1.0257
15494TIP3   OH267972   5.080   3.144  15.760  0.1494  0.1654 -0.3226
15494TIP3    H167973   5.058   3.236  15.749 -0.1577  0.0959 -0.3210
15494TIP3    H267974   5.133   3.122  15.684  0.6072  0.4589 -0.0889
15495TIP3   OH267975   2.564   4.845  12.651  0.5067  0.3098  0.1455
15495TIP3    H167976   2.589   4.838  12.743 -0.1375 -1.5288  0.2381
15495TIP3    H267977   2.473   4.872  12.652  0.5056  0.3134  0.0537
15496TIP3   OH267978   3.574   0.365   3.893 -0.2082 -0.3320  0.2318
15496TIP3    H167979   3.498   0.378   3.837 -0.6873  3.5033  1.4902
15496TIP3    H267980   3.640   0.425   3.858  1.6697 -2.2816  0.2405
15497TIP3   OH267981   2.590   3.195   4.840 -0.3307 -0.5930  0.1236
15497TIP3    H167982   2.526   3.126   4.822 -1.1739 -0.0688  0.9768
15497TIP3    H267983   2.547   3.275   4.812 -0.0492 -0.2334  0.6928
15498TIP3   OH267984   0.745   6.747   3.612 -0.6178  0.7422 -0.0224
15498TIP3    H167985   0.758   6.678   3.547 -4.7207  0.4734 -0.8414
15498TIP3    H267986   0.796   6.821   3.580  1.4743 -0.9259 -0.7436
15499TIP3   OH267987   4.993   5.289   5.806  0.3056 -0.1124 -0.5707
15499TIP3    H167988   4.979   5.294   5.900  1.5859 -0.9870 -0.3148
15499TIP3    H267989   4.910   5.317   5.768 -1.2406 -2.4344  0.8312
15500TIP3   OH267990   3.097   0.537   1.227 -0.1637  0.8648  0.1034
15500TIP3    H167991   3.161   0.565   1.161  0.5013  0.0405  0.3881
15500TIP3    H267992   3.138   0.462   1.270 -1.3079  0.3505  0.3189
15501TIP3   OH267993   0.800   0.549   3.688 -0.2980 -0.0524 -0.1301
15501TIP3    H167994   0.724   0.604   3.708  0.0461 -0.2564  1.9405
15501TIP3    H267995   0.868   0.611   3.662 -0.3745  0.3946  0.6903
15502TIP3   OH267996   2.424   4.573  13.236 -0.3014 -0.0371  0.2878
15502TIP3    H167997   2.351   4.634  13.239  0.1943  0.5532  0.5583
15502TIP3    H267998   2.401   4.512  13.165 -1.7587 -0.7956  1.3644
15503TIP3   OH267999   1.931   6.653  13.473  0.1444  0.2414 -0.1122
15503TIP3    H168000   1.969   6.641  13.560 -2.7691  0.9769  1.3884
15503TIP3    H268001   1.889   6.569  13.453 -1.9241  1.0466  0.6905
15504TIP3   OH268002   2.815   5.498  14.594  0.2335 -0.1387 -0.3800
15504TIP3    H168003   2.814   5.407  14.622 -0.5870  0.0482  0.2133
15504TIP3    H268004   2.868   5.498  14.514  2.2645 -0.7550  0.8966
15505TIP3   OH268005   0.054   6.502   1.748  0.9269  0.7979 -0.3285
15505TIP3    H168006   0.044   6.530   1.656 -0.9156  2.0602  0.1842
15505TIP3    H268007  -0.020   6.444   1.763  0.9903  0.9069  0.4598
15506TIP3   OH268008   0.219   5.870   1.917 -0.1841 -0.1568 -0.5167
15506TIP3    H168009   0.257   5.900   1.834 -0.4746  1.3348 -0.1392
15506TIP3    H268010   0.282   5.807   1.950  0.8489  0.5804 -1.0013
15507TIP3   OH268011   4.594   5.319  14.923  0.4645 -0.3304 -0.4475
15507TIP3    H168012   4.619   5.368  15.001  0.3838 -0.4518 -0.3447
15507TIP3    H268013   4.615   5.228  14.943  2.1290 -0.1607 -1.2492
15508TIP3   OH268014   2.306   1.949  17.147  0.0615 -0.3239  0.0312
15508TIP3    H168015   2.319   1.948  17.052 -1.7629  1.0674 -0.2847
15508TIP3    H268016   2.216   1.979  17.159  0.9756  1.9577  2.2432
15509TIP3   OH268017   2.388   3.014  14.230  0.0287 -0.5442 -0.6363
15509TIP3    H168018   2.460   2.964  14.271 -0.2925 -0.8314 -0.4113
15509TIP3    H268019   2.336   3.046  14.304 -0.0792 -0.3421 -0.7988
15510TIP3   OH268020   6.153   3.702  12.142 -0.5722 -0.1099 -0.0186
15510TIP3    H168021   6.204   3.671  12.217 -0.7119 -0.5589 -0.1055
15510TIP3    H268022   6.164   3.797  12.143  0.0680 -0.1811  0.1086
15511TIP3   OH268023   5.736   2.415  10.525  0.2802  0.4158  0.3403
15511TIP3    H168024   5.657   2.381  10.567  1.9575 -1.8055  1.9331
15511TIP3    H268025   5.780   2.338  10.489  0.1714  1.9380 -3.6019
15512TIP3   OH268026   2.751   2.242  17.216  0.4127  0.0451  0.1111
15512TIP3    H168027   2.836   2.265  17.180  0.5394 -0.7583 -0.1230
15512TIP3    H268028   2.756   2.148  17.232 -0.6057 -0.1079 -0.3949
15513TIP3   OH268029   2.023   5.717  17.464 -0.0502 -0.1792 -0.0511
15513TIP3    H168030   2.008   5.630  17.425  1.4344  0.0849 -1.3672
15513TIP3    H268031   1.984   5.712  17.551  0.3304 -2.3161  0.0617
15514TIP3   OH268032   3.201   4.678  17.000  0.3055  0.3795 -0.4481
15514TIP3    H168033   3.111   4.663  17.029  0.5347  1.5074  0.9722
15514TIP3    H268034   3.194   4.750  16.937  0.2274  0.5916 -0.1992
15515TIP3   OH268035   1.930   2.565   5.048 -0.2891 -0.2818  0.0181
15515TIP3    H168036   1.930   2.657   5.075 -0.3772 -0.4505  0.6128
15515TIP3    H268037   2.004   2.557   4.987  1.8262 -0.5049  2.4210
15516TIP3   OH268038   5.578   1.731   5.192 -0.0730 -0.4973 -0.7177
15516TIP3    H168039   5.621   1.816   5.191 -0.8287 -0.1128 -1.4460
15516TIP3    H268040   5.585   1.698   5.103  0.6963 -1.4618 -0.3197
15517TIP3   OH268041   4.571   2.415   4.986 -0.4398  0.5233  0.4501
15517TIP3    H168042   4.658   2.423   5.024 -0.1243  0.2248 -0.2207
15517TIP3    H268043   4.525   2.355   5.045  0.4549 -0.9816 -0.3324
15518TIP3   OH268044   1.708   6.669   0.656 -0.1391 -0.0270 -0.2068
15518TIP3    H168045   1.777   6.717   0.703  0.4979 -1.7731  0.7469
15518TIP3    H268046   1.743   6.581   0.647 -1.5248 -0.4931 -1.3474
15519TIP3   OH268047   2.124   2.459   4.870 -0.1848 -0.5261  0.1883
15519TIP3    H168048   2.175   2.533   4.837 -0.4874  0.0133  0.9095
15519TIP3    H268049   2.089   2.418   4.791  0.8244 -0.5199 -0.2815
15520TIP3   OH268050   6.080   4.277   3.012 -0.5666 -0.3478 -0.2204
15520TIP3    H168051   6.156   4.258   3.067  0.5783  0.5945 -1.4130
15520TIP3    H268052   6.020   4.204   3.028  0.7804 -1.3565  0.4220
15521TIP3   OH268053   3.207   5.089  10.890  0.8960  0.1198  0.3492
15521TIP3    H168054   3.247   5.009  10.855  0.7628 -0.0339  0.5482
15521TIP3    H268055   3.230   5.156  10.826  1.1049 -0.0539  0.2373
15522TIP3   OH268056   1.838   4.232   2.496 -0.0907 -0.5017  0.0504
15522TIP3    H168057   1.794   4.221   2.412  0.6940  1.8803 -0.7618
15522TIP3    H268058   1.767   4.238   2.560 -1.1078  2.6685 -1.1571
15523TIP3   OH268059   3.042   4.450   2.194  0.1360  0.5223 -0.1684
15523TIP3    H168060   3.120   4.438   2.249  0.0147  2.1751  0.4186
15523TIP3    H268061   3.058   4.531   2.146 -1.1430  0.8087 -0.1583
15524TIP3   OH268062   5.744   4.938  13.146 -0.1238 -0.2305 -0.3400
15524TIP3    H168063   5.780   4.993  13.076  0.0400 -0.5297 -0.4950
15524TIP3    H268064   5.780   4.851  13.128  0.6201 -0.1370  0.6129
15525TIP3   OH268065   0.184   3.976   1.665 -0.1091 -0.4042 -0.0707
15525TIP3    H168066   0.108   4.022   1.700  1.7957  1.1955  2.2765
15525TIP3    H268067   0.191   3.897   1.718  1.3564  0.8040  1.6362
15526TIP3   OH268068   5.493   2.355  14.622  0.8230  0.5135  0.1931
15526TIP3    H168069   5.505   2.398  14.706 -0.3978 -0.2819  0.8056
15526TIP3    H268070   5.485   2.262  14.644  0.8037  0.2606 -0.8315
15527TIP3   OH268071   3.789   2.833   0.502  0.0823 -0.1067 -0.1460
15527TIP3    H168072   3.841   2.896   0.553 -0.7910  0.5548 -0.0430
15527TIP3    H268073   3.736   2.888   0.444 -0.9573 -0.7321  0.1909
15528TIP3   OH268074   5.768   1.501  14.935  0.0358  0.5411 -0.1038
15528TIP3    H168075   5.682   1.466  14.913 -0.2858  0.5209  1.1137
15528TIP3    H268076   5.749   1.585  14.978  0.5819  0.1943  0.8340
15529TIP3   OH268077   1.147   3.280  16.128  0.0159 -0.3529 -0.2652
15529TIP3    H168078   1.194   3.281  16.212  1.9034 -0.1617 -1.2542
15529TIP3    H268079   1.106   3.193  16.125 -0.7565 -0.0711  1.1777
15530TIP3   OH268080   3.078   1.521  11.933 -0.2176  0.6134 -0.4509
15530TIP3    H168081   3.135   1.551  12.004 -0.5391  3.4220 -1.2499
15530TIP3    H268082   2.992   1.557  11.955 -1.2113 -1.5592 -0.4834
15531TIP3   OH268083   3.495   5.005  12.724  0.2412  0.1763  0.0106
15531TIP3    H168084   3.584   4.970  12.730 -0.8295 -2.5724  1.9764
15531TIP3    H268085   3.487   5.032  12.632  2.3317 -1.8155 -0.8758
15532TIP3   OH268086   6.173   1.118  13.263 -0.0196 -0.2579  0.4663
15532TIP3    H168087   6.268   1.106  13.273 -0.1132  0.0383  1.8356
15532TIP3    H268088   6.163   1.149  13.173  1.2106 -0.0558  0.3761
15533TIP3   OH268089   4.838   3.082  11.435 -0.2778  0.1852  0.4868
15533TIP3    H168090   4.845   3.147  11.505  2.1603  1.2191 -0.5905
15533TIP3    H268091   4.758   3.105  11.388  0.1805  2.0260  0.5416
15534TIP3   OH268092   6.067   4.433  11.298  0.0944  0.7033  0.2329
15534TIP3    H168093   6.083   4.518  11.338 -1.3049  1.0338  0.1322
15534TIP3    H268094   6.112   4.438  11.213  1.4439  0.6980  0.9174
15535TIP3   OH268095   4.496   3.266  13.248  0.3595 -0.1313 -0.2359
15535TIP3    H168096   4.534   3.332  13.191 -0.6311  0.7608  0.0928
15535TIP3    H268097   4.540   3.280  13.333  2.4223 -1.9844 -0.9035
15536TIP3   OH268098   1.549   6.637  15.507  0.1446 -0.5586 -0.7076
15536TIP3    H168099   1.460   6.630  15.542  1.5463  0.6655  3.8806
15536TIP3    H268100   1.589   6.552  15.527  0.5421 -0.4051 -0.8304
15537TIP3   OH268101   4.483   2.557   6.099 -0.1109 -0.4073 -0.2022
15537TIP3    H168102   4.516   2.502   6.169  0.1706 -0.3545 -0.2923
15537TIP3    H268103   4.395   2.524   6.082  0.0004 -0.7322 -0.1549
15538TIP3   OH268104   4.363   0.340  17.150  0.5291  0.6794  0.2520
15538TIP3    H168105   4.386   0.432  17.139  0.3931  0.6848  0.0075
15538TIP3    H268106   4.271   0.341  17.179  1.1062  0.7021  2.2229
15539TIP3   OH268107   2.657   0.458  11.668  0.9348 -0.0766  0.2827
15539TIP3    H168108   2.638   0.534  11.614 -0.9870 -1.1001 -0.5935
15539TIP3    H268109   2.741   0.425  11.636 -0.4047 -0.9967 -2.6047
15540TIP3   OH268110   2.595   0.895  14.126  0.4672  0.1631 -0.5992
15540TIP3    H168111   2.684   0.911  14.097  0.4700 -2.2562 -2.1137
15540TIP3    H268112   2.541   0.952  14.071  0.9454  0.4578 -0.7662
15541TIP3   OH268113   5.406   3.214   5.799  0.5984 -0.1593  0.5856
15541TIP3    H168114   5.446   3.281   5.855 -0.5062 -0.4234  1.7477
15541TIP3    H268115   5.319   3.249   5.779  0.6149 -0.5251 -0.1627
15542TIP3   OH268116   2.565   2.213  12.157  0.3900 -0.6836  0.2473
15542TIP3    H168117   2.536   2.206  12.066 -1.2494  0.3729  0.6475
15542TIP3    H268118   2.487   2.193  12.208  0.3699  1.9809  1.3826
15543TIP3   OH268119   1.203   5.438   0.006  0.4880  0.2100  0.4563
15543TIP3    H168120   1.172   5.353  -0.027 -0.5128  0.6664  0.1610
15543TIP3    H268121   1.285   5.453  -0.041  1.4530 -1.2398  1.5790
15544TIP3   OH268122   2.075   3.973  16.309  0.7941 -0.7738 -0.1761
15544TIP3    H168123   2.169   3.991  16.304  0.7161  1.2722  2.9228
15544TIP3    H268124   2.035   4.046  16.261  0.7768  1.5539  3.0954
15545TIP3   OH268125   4.033   1.490  13.917  0.1263 -0.2528 -0.4999
15545TIP3    H168126   3.958   1.469  13.861  0.0697  0.2913 -0.6319
15545TIP3    H268127   4.065   1.574  13.883  0.7763 -0.4682 -0.4291
15546TIP3   OH268128   0.245   5.816  17.221 -0.1450  0.1178  0.3482
15546TIP3    H168129   0.277   5.781  17.304  2.3180  1.4171  0.0364
15546TIP3    H268130   0.165   5.863  17.244  0.8746  1.0888  2.1849
15547TIP3   OH268131   2.381   3.820  15.761  0.5950 -0.0964  0.4279
15547TIP3    H168132   2.385   3.776  15.846  0.3191  1.7488  1.4393
15547TIP3    H268133   2.470   3.811  15.725  0.8527 -0.4558  1.1337
15548TIP3   OH268134   5.959   1.013  15.547 -0.2859  0.0722 -0.2742
15548TIP3    H168135   6.031   0.951  15.538 -2.1645 -2.3009  0.2390
15548TIP3    H268136   5.979   1.061  15.628  1.0098 -0.0884 -0.4790
15549TIP3   OH268137   4.297   3.077  10.672 -0.4973  0.0171  0.9267
15549TIP3    H168138   4.373   3.058  10.727 -0.7478 -2.1728  0.6296
15549TIP3    H268139   4.226   3.026  10.712 -0.7568 -1.3828 -1.1693
15550TIP3   OH268140   3.272   4.417   5.633 -0.4761  0.4023  0.6846
15550TIP3    H168141   3.260   4.506   5.667 -1.7053 -0.3275  2.3406
15550TIP3    H268142   3.209   4.409   5.561 -0.8076  0.7033  0.9359
15551TIP3   OH268143   5.237   1.471   0.599  0.5928 -0.6463 -0.4374
15551TIP3    H168144   5.262   1.386   0.563  0.9514 -0.0972 -1.5194
15551TIP3    H268145   5.142   1.475   0.588  0.5474 -0.9938 -0.1835
15552TIP3   OH268146   3.964   0.509   5.139  0.2793 -0.0811 -0.0633
15552TIP3    H168147   3.920   0.564   5.203  1.0002 -2.4415  2.6615
15552TIP3    H268148   4.057   0.531   5.149  0.2995  0.6931 -1.5834
15553TIP3   OH268149   1.609   0.545  17.086  0.5801  0.0953  0.2507
15553TIP3    H168150   1.649   0.484  17.148 -0.1480  1.2070  1.8878
15553TIP3    H268151   1.600   0.495  17.005  0.2975 -1.8836  1.4378
15554TIP3   OH268152   0.328   6.289   2.117 -0.4971  0.1209 -0.2525
15554TIP3    H168153   0.423   6.297   2.122 -0.5369 -0.1506  1.4313
15554TIP3    H268154   0.312   6.195   2.115 -0.7349  0.1616 -1.2880
15555TIP3   OH268155   1.397   1.015   1.235 -0.2703  0.3327  0.2840
15555TIP3    H168156   1.320   1.017   1.292 -0.9203 -1.2717 -0.4774
15555TIP3    H268157   1.436   1.102   1.245 -2.6000  1.4782  0.1083
15556TIP3   OH268158   4.770   1.967  16.660  0.3116  0.1872  0.3822
15556TIP3    H168159   4.748   2.053  16.624 -1.1692 -0.0702  0.6046
15556TIP3    H268160   4.743   1.905  16.591  0.1635 -0.1632  0.7540
15557TIP3   OH268161   3.330   1.834   0.009 -0.0905 -0.6552  0.0251
15557TIP3    H168162   3.416   1.818  -0.031  0.2516  0.2906  0.3426
15557TIP3    H268163   3.345   1.822   0.103 -0.1793  0.0127  0.1265
15558TIP3   OH268164   5.335   2.674  12.961 -0.8770 -0.3312 -0.6684
15558TIP3    H168165   5.333   2.648  13.053  1.5211 -0.3494 -0.5687
15558TIP3    H268166   5.354   2.768  12.963 -3.8755  0.4140 -1.1646
15559TIP3   OH268167   0.212   2.124  14.506 -0.0573 -0.2226 -0.2324
15559TIP3    H168168   0.164   2.046  14.481  2.1926 -2.5994  2.1849
15559TIP3    H268169   0.288   2.124  14.448 -0.5375  0.7898 -0.8840
15560TIP3   OH268170   0.303   4.084  13.507 -0.9959  0.4237  0.3876
15560TIP3    H168171   0.398   4.074  13.516 -1.1545 -0.1830  1.4869
15560TIP3    H268172   0.275   4.124  13.589 -1.9322 -1.1209  0.8633
15561TIP3   OH268173   0.752   3.602  17.179  0.0405  0.6854 -0.5440
15561TIP3    H168174   0.760   3.629  17.088 -0.7784  0.0101 -0.8285
15561TIP3    H268175   0.676   3.544  17.181  1.5887 -1.4456  0.0601
15562TIP3   OH268176   2.411   4.532  11.978 -0.5790 -0.0177 -0.0272
15562TIP3    H168177   2.337   4.589  12.000  1.3247  2.4096  0.5458
15562TIP3    H268178   2.421   4.475  12.054 -1.6484 -0.1593  0.0190
15563TIP3   OH268179   0.987   5.765   4.631 -0.0883  0.5688  0.3589
15563TIP3    H168180   0.994   5.672   4.608 -2.8597 -0.4034  2.8469
15563TIP3    H268181   1.061   5.782   4.689 -0.1448 -0.3989  0.7263
15564TIP3   OH268182   1.457   5.630  11.713 -0.0129  0.2665 -0.2539
15564TIP3    H168183   1.384   5.642  11.652 -0.2810 -0.4417 -0.0789
15564TIP3    H268184   1.535   5.642  11.659 -0.2195 -1.4995 -1.0375
15565TIP3   OH268185   3.782   3.716  11.583 -0.3011 -0.2428  0.5188
15565TIP3    H168186   3.876   3.716  11.568 -0.0128 -0.4107  2.1334
15565TIP3    H268187   3.747   3.774  11.515  1.0862  0.6809  0.5553
15566TIP3   OH268188   2.050   4.509   6.762 -0.2397  0.2036  0.7450
15566TIP3    H168189   2.061   4.600   6.734 -0.6282 -0.3667 -1.4674
15566TIP3    H268190   2.103   4.458   6.701  0.0423 -1.0823  1.9896
15567TIP3   OH268191   6.085   5.662  17.338  0.4088  0.0738 -0.1821
15567TIP3    H168192   5.996   5.692  17.356  0.7302  1.1801 -0.3326
15567TIP3    H268193   6.099   5.589  17.398  0.2376  1.4304  1.5809
15568TIP3   OH268194   2.734   0.514   0.204  0.2893  0.0324  0.6195
15568TIP3    H168195   2.789   0.517   0.125  0.1481  0.6822  0.5386
15568TIP3    H268196   2.726   0.421   0.224 -1.4937 -0.3378 -1.4009
15569TIP3   OH268197   3.598   1.537   3.100 -0.0052 -0.7262 -0.3800
15569TIP3    H168198   3.533   1.473   3.128 -0.7776  0.2465  0.1313
15569TIP3    H268199   3.562   1.573   3.018 -0.1087 -0.2051 -0.1112
15570TIP3   OH268200   2.810   4.760  11.664 -0.5235  0.2421 -0.2823
15570TIP3    H168201   2.734   4.805  11.700 -0.7150  0.4950 -0.9736
15570TIP3    H268202   2.804   4.671  11.697 -1.6013  0.0236 -1.0219
15571TIP3   OH268203   5.937   4.639  15.297  0.7233  0.7994  0.0248
15571TIP3    H168204   5.847   4.634  15.328  0.2598  1.4719 -1.1423
15571TIP3    H268205   5.961   4.731  15.305  0.5830  1.0032 -1.5529
15572TIP3   OH268206   3.887   3.812  13.896 -0.0346  0.0524  0.6417
15572TIP3    H168207   3.956   3.756  13.858  0.0384  0.9210 -0.5653
15572TIP3    H268208   3.904   3.810  13.990  0.6621 -1.0348  0.5185
15573TIP3   OH268209   2.298   0.566  12.484  0.5361  0.2351  0.3875
15573TIP3    H168210   2.367   0.536  12.543 -0.8574 -2.3607  0.8466
15573TIP3    H268211   2.217   0.533  12.523 -0.8459  1.9275 -0.8898
15574TIP3   OH268212   1.742   3.526  17.461  0.0143 -0.2193  0.2210
15574TIP3    H168213   1.769   3.470  17.534  0.7649 -1.8063 -1.2276
15574TIP3    H268214   1.647   3.534  17.471 -0.0532 -1.4028  0.6901
15575TIP3   OH268215   3.734   1.381  14.323  0.9137  1.0344  0.7144
15575TIP3    H168216   3.723   1.301  14.376 -0.1875  1.3248  0.9604
15575TIP3    H268217   3.772   1.350  14.241 -3.4615 -0.5507 -1.0543
15576TIP3   OH268218   4.740   4.717   4.869 -0.1660 -0.2704  0.0098
15576TIP3    H168219   4.809   4.782   4.860 -1.3374  0.7856 -2.4908
15576TIP3    H268220   4.759   4.652   4.801 -0.5996 -0.9871  0.5539
15577TIP3   OH268221   1.349   0.123  13.144 -0.0177 -0.0284  0.4510
15577TIP3    H168222   1.259   0.092  13.150  0.2151 -0.5654  1.2367
15577TIP3    H268223   1.382   0.085  13.063 -0.4055 -0.0628  0.3071
15578TIP3   OH268224   6.666   5.251   0.176 -0.3366 -0.5408 -0.1497
15578TIP3    H168225   6.758   5.244   0.151 -0.3026 -1.0371  0.1031
15578TIP3    H268226   6.650   5.346   0.183 -0.1974 -0.4073 -1.4643
15579TIP3   OH268227   6.506   4.285  16.654  0.1805  0.1106 -0.2452
15579TIP3    H168228   6.543   4.334  16.580 -2.1678  0.0895 -1.5300
15579TIP3    H268229   6.569   4.215  16.670  2.1455  1.7758 -0.3056
15580TIP3   OH268230   5.040   4.673   5.702  0.4197 -0.4660  0.4356
15580TIP3    H168231   5.114   4.615   5.720  0.3696 -0.1994  1.5936
15580TIP3    H268232   5.021   4.659   5.609  1.7961 -0.6700  0.1578
15581TIP3   OH268233   5.696   4.379  12.449 -0.0064 -0.2569 -0.4998
15581TIP3    H168234   5.604   4.368  12.473 -0.1189  2.0744  0.4130
15581TIP3    H268235   5.727   4.450  12.505  1.7710  0.4291 -2.2249
15582TIP3   OH268236   1.299   2.421  14.165  0.2037  0.5232  0.0661
15582TIP3    H168237   1.328   2.402  14.254 -2.2836  1.5141  1.1708
15582TIP3    H268238   1.352   2.495  14.138  1.0172  0.1872  0.6778
15583TIP3   OH268239   1.798   3.767  13.450  0.5531  0.4706 -0.5845
15583TIP3    H168240   1.839   3.799  13.369  0.9028 -0.7791 -0.9271
15583TIP3    H268241   1.705   3.785  13.438  0.8397  2.3842 -0.2560
15584TIP3   OH268242   6.278   4.054   1.480  0.0282 -0.3221  0.8994
15584TIP3    H168243   6.218   4.062   1.406  0.8974 -0.2186  0.1968
15584TIP3    H268244   6.271   3.962   1.506 -1.2729 -0.0590  1.5580
15585TIP3   OH268245   0.270   2.049  11.056 -0.3440 -0.3560  0.1972
15585TIP3    H168246   0.215   2.060  11.134 -1.0078 -0.6615 -0.2227
15585TIP3    H268247   0.230   2.106  10.990 -0.9904 -1.6202 -0.5340
15586TIP3   OH268248   1.290   5.290  14.470 -0.0224  0.1022  0.8339
15586TIP3    H168249   1.226   5.253  14.409  0.5460  1.8560 -0.9320
15586TIP3    H268250   1.291   5.229  14.543 -1.4716 -1.5848 -0.4547
15587TIP3   OH268251   2.535   4.506  13.568 -0.1936 -0.3516 -0.8536
15587TIP3    H168252   2.614   4.454  13.556 -0.2676 -1.0163  1.0994
15587TIP3    H268253   2.560   4.574  13.631 -0.9130  0.0539 -0.9871
15588TIP3   OH268254   4.586   0.727  14.639  0.0646  0.3329 -0.0682
15588TIP3    H168255   4.533   0.806  14.652  0.4722  0.5894  0.0690
15588TIP3    H268256   4.599   0.691  14.726  0.2051  0.3287 -0.0905
15589TIP3   OH268257   0.125   0.481   0.630  0.0451 -0.1504 -0.8853
15589TIP3    H168258   0.081   0.563   0.605  1.7448  0.3009 -2.6559
15589TIP3    H268259   0.218   0.500   0.618  0.5092 -2.1711 -0.7287
15590TIP3   OH268260   2.770   1.241   5.829 -0.0485  0.2324 -0.3343
15590TIP3    H168261   2.745   1.312   5.888  0.5524  0.7864 -0.7300
15590TIP3    H268262   2.838   1.194   5.876 -1.3899 -0.9483  0.5140
15591TIP3   OH268263   0.371   1.882  13.300  0.4875  0.0487 -0.4587
15591TIP3    H168264   0.371   1.805  13.242 -1.3093 -0.1266 -0.2964
15591TIP3    H268265   0.374   1.957  13.241 -0.7368 -0.1395 -0.7980
15592TIP3   OH268266   3.054   4.370  13.877  0.6886 -0.5270 -0.1305
15592TIP3    H168267   3.121   4.377  13.945  0.4225 -0.0588  0.0917
15592TIP3    H268268   3.070   4.445  13.819  0.8355 -0.8516 -0.5134
15593TIP3   OH268269   2.760   2.307  12.348  0.1307  0.1635 -0.3443
15593TIP3    H168270   2.752   2.237  12.283 -2.3701 -2.4173  2.4126
15593TIP3    H268271   2.732   2.266  12.430  1.8788  3.5388  2.1752
15594TIP3   OH268272   3.935   5.335  15.696  0.0913 -0.1659  0.0868
15594TIP3    H168273   4.004   5.385  15.654  0.4463 -0.1564  0.6735
15594TIP3    H268274   3.884   5.400  15.744 -0.5620 -0.1191 -0.6546
15595TIP3   OH268275   0.413   5.213   5.191 -0.2665  0.2734 -0.5319
15595TIP3    H168276   0.322   5.228   5.216 -0.5138  0.6606 -1.5849
15595TIP3    H268277   0.408   5.150   5.119  0.2557  0.7346 -0.9824
15596TIP3   OH268278   1.572   4.109   2.910  0.3893 -0.1038 -0.2980
15596TIP3    H168279   1.606   4.019   2.916 -0.6363 -0.5237 -0.5815
15596TIP3    H268280   1.485   4.105   2.949  0.5530  0.9030  0.1964
15597TIP3   OH268281   4.519   1.692  14.087  0.5438 -0.4735 -0.0015
15597TIP3    H168282   4.444   1.719  14.140  0.3155  0.0073 -0.5581
15597TIP3    H268283   4.585   1.665  14.151 -0.0861 -0.8741  0.4958
15598TIP3   OH268284   1.383   0.057   1.992 -0.6190 -0.2278  0.2067
15598TIP3    H168285   1.348  -0.013   2.047  1.3938  0.5424  2.6522
15598TIP3    H268286   1.461   0.019   1.953  0.6741  0.6624  1.8127
15599TIP3   OH268287   2.673   5.611   5.024  0.8429  0.0660 -0.5590
15599TIP3    H168288   2.719   5.590   5.106 -1.0158 -2.4737 -0.0249
15599TIP3    H268289   2.630   5.694   5.042  0.0229 -0.6986  1.3292
15600TIP3   OH268290   1.668   0.116   3.253 -0.4910  0.1026 -0.8463
15600TIP3    H168291   1.627   0.044   3.206 -1.3204  0.4067 -0.5955
15600TIP3    H268292   1.611   0.132   3.328 -0.9683  1.8062 -1.5349
15601TIP3   OH268293   2.850   5.873  15.396  0.1436 -0.5382  0.2285
15601TIP3    H168294   2.804   5.882  15.312 -2.0897  2.1398  1.6208
15601TIP3    H268295   2.863   5.778  15.405 -1.7350 -1.1168 -2.0263
15602TIP3   OH268296   0.480   0.790   2.473  0.2076 -0.5089  0.1822
15602TIP3    H168297   0.520   0.807   2.558 -0.4945 -1.8856  0.7997
15602TIP3    H268298   0.551   0.808   2.410  1.4074 -1.6074  1.1659
15603TIP3   OH268299   5.207   6.217   6.275  0.5022 -0.7649  0.5445
15603TIP3    H168300   5.274   6.241   6.211  1.1066 -2.1677  0.6103
15603TIP3    H268301   5.136   6.179   6.222  0.1315 -0.1044  0.5536
15604TIP3   OH268302   0.911   2.627   1.752 -0.0984 -0.2005 -0.1862
15604TIP3    H168303   0.927   2.613   1.845  0.5370  0.2910 -0.2183
15604TIP3    H268304   0.918   2.721   1.740 -0.4818 -0.2285 -0.6822
15605TIP3   OH268305   2.547   0.850   1.791 -0.1184  0.4610 -0.0037
15605TIP3    H168306   2.622   0.906   1.810 -0.8923  1.4520  0.1773
15605TIP3    H268307   2.554   0.831   1.697  1.4899 -1.1724  0.3803
15606TIP3   OH268308   3.817   0.311  14.869  0.1149 -0.1168 -0.2267
15606TIP3    H168309   3.893   0.300  14.812  0.6538  1.2405  0.2124
15606TIP3    H268310   3.745   0.329  14.808  0.2469 -0.8247 -0.6058
15607TIP3   OH268311   6.593   2.190  11.865  0.4573  0.5936  0.7584
15607TIP3    H168312   6.604   2.173  11.771  0.1914 -0.2246  0.8664
15607TIP3    H268313   6.677   2.224  11.893  0.3674  1.3961  0.1124
15608TIP3   OH268314   4.371   6.484  12.116 -0.0432  0.4571  0.0737
15608TIP3    H168315   4.315   6.406  12.113 -0.2957  0.6420 -0.0696
15608TIP3    H268316   4.459   6.449  12.130  0.0171  0.0558 -1.1486
15609TIP3   OH268317   3.789   0.140   5.768 -0.1416  0.0727  0.1047
15609TIP3    H168318   3.789   0.170   5.677 -1.9808 -0.0195  0.0409
15609TIP3    H268319   3.853   0.069   5.770  0.0097  0.1620 -1.0691
15610TIP3   OH268320   0.982   3.576  13.221  1.2257 -0.6930 -0.3480
15610TIP3    H168321   0.893   3.571  13.188  1.0989  1.3360 -0.4298
15610TIP3    H268322   1.033   3.522  13.161  0.1976 -1.1930 -0.7901
15611TIP3   OH268323   5.337   2.419   2.668  0.2069 -0.3244 -0.3658
15611TIP3    H168324   5.318   2.512   2.666  0.1478 -0.3268 -0.0531
15611TIP3    H268325   5.432   2.413   2.675  0.1994 -0.2854 -0.2352
15612TIP3   OH268326   0.984   5.914   5.453 -0.9174  0.2797 -0.3576
15612TIP3    H168327   0.986   6.005   5.481 -0.9357  0.5919 -1.3273
15612TIP3    H268328   0.955   5.918   5.361  1.0685 -0.5183 -1.0680
15613TIP3   OH268329   1.592   3.082  13.431  0.3225  0.2207  0.2146
15613TIP3    H168330   1.540   3.004  13.411 -0.3414  0.6852  0.1048
15613TIP3    H268331   1.681   3.049  13.443  0.1476 -0.4805 -0.3768
15614TIP3   OH268332   4.901   1.972  16.914 -0.0978 -0.4789 -0.0279
15614TIP3    H168333   4.986   1.941  16.882 -0.4525 -0.8025 -0.6882
15614TIP3    H268334   4.850   1.988  16.834 -0.0700  1.4362  0.3044
15615TIP3   OH268335   6.614   5.658   4.141  0.0402 -0.1159  0.2790
15615TIP3    H168336   6.638   5.566   4.154 -0.5674 -0.4257 -0.6672
15615TIP3    H268337   6.688   5.708   4.174  2.4451 -1.0085 -3.2415
15616TIP3   OH268338   2.169   0.511  13.378  0.1824  0.1705  0.0184
15616TIP3    H168339   2.091   0.560  13.403 -0.1527 -0.5079  0.3363
15616TIP3    H268340   2.205   0.479  13.461 -0.1325 -0.8855 -0.2283
15617TIP3   OH268341   0.616   1.281  15.230 -0.5974  0.6571 -0.1697
15617TIP3    H168342   0.558   1.212  15.263 -1.1729  0.4538 -1.5598
15617TIP3    H268343   0.700   1.263  15.272 -1.3800  0.6461  1.4789
15618TIP3   OH268344   1.056   2.642  12.593 -0.3668  0.1325 -0.0481
15618TIP3    H168345   1.070   2.735  12.575 -0.2130  0.3337  1.0480
15618TIP3    H268346   0.981   2.617  12.539  0.1371  0.6668 -1.0226
15619TIP3   OH268347   5.874   3.169  15.089 -0.1624  0.1845 -0.3433
15619TIP3    H168348   5.812   3.236  15.118  0.2139  0.8562 -1.0340
15619TIP3    H268349   5.955   3.218  15.072  0.6114 -0.6901  0.6869
15620TIP3   OH268350   4.520   2.599  15.835 -0.1812  0.6668 -0.0445
15620TIP3    H168351   4.540   2.578  15.926  0.4677 -2.0360 -0.7140
15620TIP3    H268352   4.567   2.533  15.784 -2.6799  0.4079 -2.2204
15621TIP3   OH268353   1.200   0.435   5.406 -0.2767 -0.0637  0.1330
15621TIP3    H168354   1.125   0.426   5.465  0.5484 -1.6702  0.9799
15621TIP3    H268355   1.254   0.502   5.447 -1.7724  2.0645 -1.1369
15622TIP3   OH268356   5.520   5.202  13.671 -0.1898  0.1872  0.6544
15622TIP3    H168357   5.568   5.221  13.590 -1.2084  2.4114  0.5001
15622TIP3    H268358   5.428   5.204  13.645 -0.4882 -1.8256  1.3796
15623TIP3   OH268359   5.393   2.800  14.839  0.1100  0.1381 -0.2427
15623TIP3    H168360   5.469   2.854  14.861  0.3416  0.2260 -1.1996
15623TIP3    H268361   5.364   2.833  14.755 -0.6967 -0.2223 -0.1155
15624TIP3   OH268362   6.441   6.576  14.808  0.3962 -0.3343 -0.6263
15624TIP3    H168363   6.492   6.608  14.882 -0.2996 -1.9298  0.5976
15624TIP3    H268364   6.450   6.481  14.812 -1.8438 -0.6090 -0.9553
15625TIP3   OH268365   0.454   3.214  15.183 -0.4106  0.2953 -0.8168
15625TIP3    H168366   0.519   3.166  15.234 -0.0400 -1.5621 -2.9185
15625TIP3    H268367   0.374   3.163  15.193 -0.7451  0.8120 -0.8269
15626TIP3   OH268368   0.034   5.133  14.639 -0.3079 -0.2810 -0.2709
15626TIP3    H168369  -0.008   5.218  14.649 -0.6199 -0.4741  0.0645
15626TIP3    H268370   0.127   5.153  14.630 -0.3356  0.0737  0.1930
15627TIP3   OH268371   2.031   0.047  11.024 -0.0661 -0.0287 -0.7517
15627TIP3    H168372   1.982   0.098  11.089 -1.1729 -0.0426 -1.5613
15627TIP3    H268373   2.064   0.113  10.963 -0.4196 -0.1610 -1.0879
15628TIP3   OH268374   1.947   3.279  11.924  0.4253 -0.0381  0.1947
15628TIP3    H168375   1.871   3.259  11.870  0.7955  2.6809 -1.5518
15628TIP3    H268376   2.016   3.300  11.861  1.6352  0.8323  1.7208
15629TIP3   OH268377   4.236   2.211  14.879  0.0774 -0.0782 -0.1612
15629TIP3    H168378   4.141   2.205  14.885 -0.0866  0.7884 -1.4840
15629TIP3    H268379   4.256   2.303  14.899  0.8281 -0.5997  1.7724
15630TIP3   OH268380   2.871   4.551   4.913 -0.7839  0.2496 -0.1079
15630TIP3    H168381   2.872   4.467   4.867  1.0268 -0.7316  1.5642
15630TIP3    H268382   2.830   4.533   4.997 -2.1997  1.5426 -0.4839
15631TIP3   OH268383   6.539   1.001   3.073 -0.7170 -0.1841 -0.2688
15631TIP3    H168384   6.587   1.051   3.140  0.1130 -2.7175  1.1611
15631TIP3    H268385   6.504   0.925   3.120 -1.6680 -1.1433 -2.3812
15632TIP3   OH268386   0.522   5.561   2.215 -0.0574 -0.2291  0.1897
15632TIP3    H168387   0.579   5.541   2.141 -0.1243  0.1284  0.0429
15632TIP3    H268388   0.496   5.475   2.248 -1.9046 -0.4431 -1.6355
15633TIP3   OH268389   5.208   1.873   2.237 -0.1947  0.2835 -0.0218
15633TIP3    H168390   5.211   1.955   2.187 -0.5344  1.5282  1.9213
15633TIP3    H268391   5.291   1.871   2.285  0.3508 -1.1514 -0.9556
15634TIP3   OH268392   2.224   5.856  16.311 -0.8283 -0.0002 -0.5134
15634TIP3    H168393   2.153   5.799  16.282 -2.1423  1.9734 -1.4368
15634TIP3    H268394   2.217   5.858  16.406 -0.3313 -1.8211 -0.4053
15635TIP3   OH268395   3.988   1.725   4.838  0.2477 -0.3439 -0.1808
15635TIP3    H168396   4.038   1.751   4.915 -0.2319 -0.5643  0.2125
15635TIP3    H268397   3.939   1.803   4.813 -0.6772 -0.6608  0.5946
15636TIP3   OH268398   3.166   1.123   0.241  0.7982 -0.0975 -0.0506
15636TIP3    H168399   3.157   1.218   0.249  1.6902 -0.2034  3.7950
15636TIP3    H268400   3.251   1.110   0.199  0.1004  0.7344 -1.8083
15637TIP3   OH268401   3.542   0.019  16.200 -0.2348 -0.1876  0.3326
15637TIP3    H168402   3.530  -0.062  16.249 -0.4738 -0.6337 -0.4511
15637TIP3    H268403   3.529  -0.006  16.109 -0.4260  0.7560  0.0918
15638TIP3   OH268404   4.045   6.300  11.868 -0.1946 -0.3480 -0.2697
15638TIP3    H168405   3.983   6.280  11.938 -0.0340 -0.8513 -0.2649
15638TIP3    H268406   4.053   6.395  11.869  2.9950 -0.4473  3.1954
15639TIP3   OH268407   6.210   2.781   5.333  0.5172 -0.7648 -0.0201
15639TIP3    H168408   6.282   2.734   5.292 -0.5219 -1.7486 -0.7784
15639TIP3    H268409   6.197   2.858   5.277  0.7502 -0.7608 -0.0720
15640TIP3   OH268410   1.035   0.427   5.662  0.4883  0.2359  0.2369
15640TIP3    H168411   0.989   0.503   5.697  0.9097  0.7696 -0.3553
15640TIP3    H268412   0.965   0.374   5.622  0.2648  0.5796  0.1674
15641TIP3   OH268413   2.048   0.144  12.939 -0.2211 -0.3427 -0.2640
15641TIP3    H168414   2.038   0.053  12.966 -0.2377 -0.0414  0.7799
15641TIP3    H268415   1.971   0.189  12.975  0.7395  0.4346  0.9018
15642TIP3   OH268416   2.538   6.176  15.582 -0.7955  0.6423 -0.3402
15642TIP3    H168417   2.470   6.136  15.528  0.8750  0.5793 -2.5204
15642TIP3    H268418   2.597   6.104  15.604 -1.0973  0.7953  1.0744
15643TIP3   OH268419   2.411   0.742   1.254  0.2025 -0.0199 -0.6517
15643TIP3    H168420   2.496   0.703   1.276  0.1564 -0.8310 -1.8512
15643TIP3    H268421   2.434   0.821   1.205  0.2606  0.4157  0.0520
15644TIP3   OH268422   2.608   4.805   4.466 -0.7044  0.1585 -0.3306
15644TIP3    H168423   2.703   4.812   4.475 -0.7914  2.7857 -0.7297
15644TIP3    H268424   2.580   4.764   4.548  0.6554  0.6976  0.4503
15645TIP3   OH268425   3.328   5.347   3.085 -0.1918  0.4016 -0.2625
15645TIP3    H168426   3.305   5.366   2.994  1.8782 -1.6093 -1.2979
15645TIP3    H268427   3.399   5.408   3.105 -0.4603  0.6557 -0.0766
15646TIP3   OH268428   4.684   3.180  11.753 -0.4571 -0.3338  0.0689
15646TIP3    H168429   4.777   3.177  11.775 -0.2803 -1.0965 -0.7379
15646TIP3    H268430   4.640   3.145  11.831 -0.1826  1.1387  0.9367
15647TIP3   OH268431   0.270   2.106  16.144 -0.1243  0.1554 -0.2552
15647TIP3    H168432   0.318   2.186  16.122  0.7106 -0.4911 -0.8670
15647TIP3    H268433   0.272   2.103  16.239  0.1296  0.6949 -0.2372
15648TIP3   OH268434   5.135   0.400   2.982 -0.8109  0.6065 -0.1937
15648TIP3    H168435   5.106   0.309   2.990  0.0476  0.3282 -0.0877
15648TIP3    H268436   5.222   0.394   2.943 -0.5083  1.3478  0.3280
15649TIP3   OH268437   6.342   1.650  16.925 -0.1762  0.1807  0.0363
15649TIP3    H168438   6.372   1.677  16.838 -1.2045 -0.5595 -0.5805
15649TIP3    H268439   6.253   1.687  16.932 -0.9083 -1.4610 -0.1045
15650TIP3   OH268440   2.807   6.197  11.379 -0.2587 -0.1776  0.3302
15650TIP3    H168441   2.852   6.186  11.463  1.3232 -3.7090 -0.7515
15650TIP3    H268442   2.763   6.113  11.365 -2.5143  1.1908 -1.3174
15651TIP3   OH268443   5.462   6.586  10.644 -0.4189  0.6142 -0.3770
15651TIP3    H168444   5.502   6.502  10.621 -1.3122 -0.2657  1.0810
15651TIP3    H268445   5.410   6.610  10.568 -0.8876 -0.6497 -0.4746
15652TIP3   OH268446   3.628   3.910  11.461 -0.0352 -0.3516  0.7405
15652TIP3    H168447   3.665   3.987  11.418  1.3502 -0.7515  1.1607
15652TIP3    H268448   3.534   3.926  11.462  0.3342  2.3815  2.7441
15653TIP3   OH268449   0.052   3.357   0.372  0.5350 -0.1479  0.1466
15653TIP3    H168450   0.038   3.354   0.277  2.5723  2.6295 -0.3721
15653TIP3    H268451   0.128   3.302   0.387  1.4110  0.9337 -0.1844
15654TIP3   OH268452   0.107   2.126   5.296  0.3625  0.3997 -0.0369
15654TIP3    H168453   0.102   2.186   5.221  0.0216 -1.1206 -1.2856
15654TIP3    H268454   0.016   2.097   5.309  0.5778 -0.1399  0.3006
15655TIP3   OH268455   4.303   3.134  15.929 -0.5097 -1.0461  0.0395
15655TIP3    H168456   4.243   3.082  15.875  1.4547 -3.4830  0.0088
15655TIP3    H268457   4.342   3.197  15.868 -1.3552 -0.9667 -0.4284
15656TIP3   OH268458   4.644   4.552   3.104 -0.2133 -0.4052  0.5857
15656TIP3    H168459   4.553   4.546   3.132 -0.2931  0.6950  0.6361
15656TIP3    H268460   4.687   4.606   3.171  0.4070 -0.6702  0.4139
15657TIP3   OH268461   3.317   1.996   1.233 -0.0400  0.2300  0.3896
15657TIP3    H168462   3.395   2.030   1.275  0.3091  0.8312 -0.6865
15657TIP3    H268463   3.331   1.902   1.227  0.0649  0.1839  1.2500
15658TIP3   OH268464   3.734   1.117   1.468 -0.6012 -0.1163  0.5235
15658TIP3    H168465   3.825   1.146   1.467 -0.3529 -0.8484  0.6952
15658TIP3    H268466   3.685   1.193   1.499  0.2528 -0.4462  2.9578
15659TIP3   OH268467   6.704   3.471   0.037 -0.3737  0.4668 -0.0600
15659TIP3    H168468   6.784   3.522   0.026  0.9920 -1.6571 -0.6673
15659TIP3    H268469   6.634   3.536   0.041  1.3462  2.3949  0.3404
15660TIP3   OH268470   3.634   2.518  13.129  0.3686  0.0797 -0.3739
15660TIP3    H168471   3.650   2.551  13.040  2.0488 -0.3235 -0.2620
15660TIP3    H268472   3.719   2.527  13.173  0.0931 -1.5953  0.5775
15661TIP3   OH268473   4.203   0.792  16.801 -0.2854 -0.2422  0.2320
15661TIP3    H168474   4.143   0.786  16.876 -2.2536  0.6559 -1.1882
15661TIP3    H268475   4.180   0.717  16.746 -0.8726  0.7241 -0.8531
15662TIP3   OH268476   5.119   6.176  11.427  0.0700  0.0507  0.4622
15662TIP3    H168477   5.097   6.163  11.519 -1.2888  0.8216  0.2713
15662TIP3    H268478   5.037   6.203  11.386  0.8465  0.6065 -0.8006
15663TIP3   OH268479   4.420   4.470  14.426  0.0041  0.7019  0.1527
15663TIP3    H168480   4.397   4.402  14.363 -3.2747  1.4431  0.3772
15663TIP3    H268481   4.428   4.550  14.373  0.7256  0.7198  0.2793
15664TIP3   OH268482   3.544   2.554  16.824  0.0114 -0.7839 -0.0462
15664TIP3    H168483   3.558   2.559  16.919 -0.3142  1.0445 -0.0672
15664TIP3    H268484   3.620   2.505  16.792  0.8829 -0.1536  0.9972
15665TIP3   OH268485   5.540   5.305  16.791  0.5236 -0.1016  0.3769
15665TIP3    H168486   5.489   5.386  16.801 -1.0878 -0.9416 -0.6119
15665TIP3    H268487   5.615   5.317  16.849 -0.8465  1.1596  2.0144
15666TIP3   OH268488   3.705   6.385   2.445  0.0851  0.6495  0.4899
15666TIP3    H168489   3.801   6.388   2.434  0.1532 -0.3541  0.7155
15666TIP3    H268490   3.691   6.401   2.538  0.1349 -0.5685  0.7241
15667TIP3   OH268491   2.381   3.079   0.981  0.1467  0.0554  0.2057
15667TIP3    H168492   2.391   3.106   1.072  1.3333  0.7387 -0.0946
15667TIP3    H268493   2.443   3.007   0.971  1.8357  1.5323 -0.6226
15668TIP3   OH268494   5.875   6.263   3.985  0.3064  0.0413 -0.4953
15668TIP3    H168495   5.889   6.178   3.944  2.1050 -1.5544  2.9981
15668TIP3    H268496   5.807   6.247   4.052  0.8312  1.2615  0.3772
15669TIP3   OH268497   4.569   3.710  14.656  0.4195  0.6770 -0.2287
15669TIP3    H168498   4.588   3.762  14.734 -0.7191 -0.1837  0.6550
15669TIP3    H268499   4.479   3.732  14.634 -0.4519 -1.5799  0.7654
15670TIP3   OH268500   2.650   0.439   2.864  1.1613  0.1712  0.3730
15670TIP3    H168501   2.659   0.521   2.815 -1.3846  1.2457  1.5151
15670TIP3    H268502   2.612   0.378   2.802 -0.2008  0.9455  0.3978
15671TIP3   OH268503   5.055   2.494  16.767 -0.4470  0.6102 -0.5270
15671TIP3    H168504   5.148   2.498  16.744 -0.8418  0.2358 -2.4086
15671TIP3    H268505   5.033   2.401  16.764 -0.5770  0.5500  1.3870
15672TIP3   OH268506   6.132   0.035   4.653  0.2949  0.3982 -0.2948
15672TIP3    H168507   6.158  -0.053   4.681  2.0882  0.9437 -0.1193
15672TIP3    H268508   6.049   0.051   4.698  0.7274 -0.5911  0.9251
15673TIP3   OH268509   0.366   2.606   1.526 -0.1537 -0.0037 -0.2855
15673TIP3    H168510   0.370   2.552   1.605 -1.6077  0.5136  0.1692
15673TIP3    H268511   0.310   2.557   1.466  1.2928 -0.6065 -1.2022
15674TIP3   OH268512   2.707   2.455  15.093  0.0288 -0.1393 -0.2414
15674TIP3    H168513   2.690   2.427  15.003 -0.7585 -0.2626 -0.0639
15674TIP3    H268514   2.664   2.540  15.100  0.2064 -0.0667 -0.0205
15675TIP3   OH268515   6.445   6.670  11.196 -0.6071 -0.0015  0.0560
15675TIP3    H168516   6.357   6.634  11.185 -0.5579 -1.1847  2.9214
15675TIP3    H268517   6.433   6.765  11.184 -2.0834 -0.2285 -0.5220
15676TIP3   OH268518   6.113   5.961   2.961  0.1291  0.0516 -0.0014
15676TIP3    H168519   6.155   5.876   2.976 -1.0414 -0.6834 -0.6799
15676TIP3    H268520   6.070   5.981   3.045 -1.3768 -1.1089 -0.4442
15677TIP3   OH268521   5.394   6.287  15.723 -0.8327  0.5364  0.0142
15677TIP3    H168522   5.335   6.235  15.777 -0.7637  2.0396  1.6359
15677TIP3    H268523   5.476   6.238  15.723 -0.0391  1.6338  3.4620
15678TIP3   OH268524   1.835   6.168   2.031  0.1771  0.2113 -0.4398
15678TIP3    H168525   1.851   6.145   1.939 -0.6740 -0.8187 -0.3469
15678TIP3    H268526   1.750   6.212   2.030 -0.2859 -0.6623 -0.0284
15679TIP3   OH268527   1.959   1.623  12.212  0.1661 -0.5099  0.4123
15679TIP3    H168528   1.989   1.706  12.174 -1.5975  0.6033  1.3152
15679TIP3    H268529   2.027   1.560  12.188  0.1863  0.5342 -2.7861
15680TIP3   OH268530   2.543   3.113  13.665 -0.2590  0.7965  0.0867
15680TIP3    H168531   2.621   3.104  13.611 -1.5292 -0.8034 -1.6208
15680TIP3    H268532   2.559   3.058  13.742 -0.6018 -1.6476 -1.4613
15681TIP3   OH268533   3.122   1.914  13.483  0.3885 -0.7861  0.1202
15681TIP3    H168534   3.201   1.931  13.433 -0.2547  0.5469 -0.4876
15681TIP3    H268535   3.153   1.893  13.571  1.3732  1.1910  0.2904
15682TIP3   OH268536   5.704   1.875   0.868  0.0319  0.1386 -0.0743
15682TIP3    H168537   5.625   1.928   0.880  0.0153  0.4954 -1.5796
15682TIP3    H268538   5.689   1.798   0.922 -0.6453  0.9261  0.9023
15683TIP3   OH268539   5.591   4.798   2.840  0.0649  0.5480 -0.2407
15683TIP3    H168540   5.611   4.764   2.927 -1.3588 -1.4985 -0.6474
15683TIP3    H268541   5.640   4.880   2.835  2.3150 -0.5711  1.4675
15684TIP3   OH268542   3.289   4.964   3.206  0.1277 -0.4827  0.3870
15684TIP3    H168543   3.294   5.041   3.262 -0.4939 -0.2753  0.1686
15684TIP3    H268544   3.343   4.898   3.250 -0.5396 -0.4051  1.3525
15685TIP3   OH268545   4.931   0.491   4.665  0.4111 -0.5473 -0.5748
15685TIP3    H168546   5.023   0.518   4.661 -0.1732  1.5331 -1.0079
15685TIP3    H268547   4.883   0.560   4.619 -1.4619 -1.1486  0.3550
15686TIP3   OH268548   2.580   5.006  17.041 -0.0807  0.2363  0.6687
15686TIP3    H168549   2.598   5.025  16.949 -0.6726 -1.0155  0.2690
15686TIP3    H268550   2.667   5.001  17.081  0.1778  0.9325  0.2099
15687TIP3   OH268551   5.436   0.045  12.906  1.0043 -0.1807  0.3356
15687TIP3    H168552   5.436   0.140  12.898 -1.9422 -0.1234 -0.3021
15687TIP3    H268553   5.451   0.013  12.818  3.0325 -0.3954  0.7121
15688TIP3   OH268554   6.571   3.847   5.211 -0.7486 -0.1530 -0.0600
15688TIP3    H168555   6.576   3.761   5.171  0.9725 -0.1738  0.1335
15688TIP3    H268556   6.631   3.902   5.161 -0.3944  0.4369  0.9587
15689TIP3   OH268557   2.058   4.481  14.356  0.0062 -0.3084 -0.1176
15689TIP3    H168558   1.996   4.409  14.368  1.3474 -1.2906  1.3313
15689TIP3    H268559   2.038   4.516  14.269 -2.4222 -0.6891  0.2019
15690TIP3   OH268560   1.577   4.477   2.754 -0.7982  0.0929  0.3384
15690TIP3    H168561   1.566   4.509   2.843 -1.1811 -0.0484  0.3454
15690TIP3    H268562   1.500   4.509   2.707 -1.2089 -0.8151  0.3523
15691TIP3   OH268563   5.758   2.751   3.997 -0.4535 -0.4255  0.1075
15691TIP3    H168564   5.745   2.714   4.084  0.4985 -2.9036 -0.7041
15691TIP3    H268565   5.682   2.807   3.983 -0.4891  0.2524  2.6104
15692TIP3   OH268566   6.057   0.646   2.063  0.3808 -0.3433  0.0687
15692TIP3    H168567   6.140   0.675   2.027  0.5186 -0.3336  0.3889
15692TIP3    H268568   6.011   0.726   2.087  1.3708 -0.3620  2.3267
15693TIP3   OH268569   3.639   1.701   4.299 -0.4965 -0.2248  0.3291
15693TIP3    H168570   3.612   1.700   4.391 -0.5819  0.9074  0.3258
15693TIP3    H268571   3.671   1.790   4.284  1.3415 -0.9361 -0.2164
15694TIP3   OH268572   4.153   1.948  12.879  0.3565  0.7967 -0.4339
15694TIP3    H168573   4.190   1.922  12.795 -0.3237  1.3046 -0.8984
15694TIP3    H268574   4.194   2.032  12.898  2.8651 -0.6456  1.2621
15695TIP3   OH268575   3.858   1.849  16.594  0.8059 -0.5279  0.2068
15695TIP3    H168576   3.805   1.886  16.664  1.7673  0.1584  0.5964
15695TIP3    H268577   3.947   1.846  16.630  0.8138 -3.1303  0.1576
15696TIP3   OH268578   1.009   5.107  12.197 -0.1064  0.2059  0.3562
15696TIP3    H168579   0.979   5.198  12.200  0.0423  0.2395  1.0386
15696TIP3    H268580   1.068   5.099  12.272 -0.9985 -0.7565  0.9791
15697TIP3   OH268581   6.011   1.877   3.821  0.4259 -0.2836 -0.3616
15697TIP3    H168582   5.956   1.812   3.778  1.2547 -1.1401 -0.1473
15697TIP3    H268583   5.998   1.861   3.915 -2.6411  2.6132 -0.0971
15698TIP3   OH268584   1.451   5.233  12.360  0.1381 -0.0887 -0.0867
15698TIP3    H168585   1.499   5.263  12.436  1.9945 -1.3525 -0.6822
15698TIP3    H268586   1.454   5.307  12.299  0.8074  0.0692  0.1286
15699TIP3   OH268587   3.836   3.258   6.545 -0.5217  0.8681 -0.6474
15699TIP3    H168588   3.871   3.184   6.494 -1.4660  1.0722 -1.6427
15699TIP3    H268589   3.853   3.334   6.489  0.9397  1.5172  0.6102
15700TIP3   OH268590   5.454   5.637  15.359 -0.2380  0.7661  0.1044
15700TIP3    H168591   5.485   5.617  15.271  1.6923  0.1573  0.8704
15700TIP3    H268592   5.369   5.678  15.346 -0.0621  0.5489 -2.0257
15701TIP3   OH268593   5.469   0.112   0.006  0.1918  1.2827  0.1370
15701TIP3    H168594   5.455   0.099  -0.087  0.8062 -0.3719  0.2514
15701TIP3    H268595   5.563   0.096   0.019 -0.3259 -1.2255  1.4083
15702TIP3   OH268596   1.365   6.328   4.999  0.5547  0.0104 -0.0742
15702TIP3    H168597   1.376   6.423   4.996 -1.6233  0.3378  0.4962
15702TIP3    H268598   1.368   6.307   5.092  0.6519 -0.4168 -0.1744
15703TIP3   OH268599   1.194   0.655  10.696 -0.4861 -0.2823 -0.0603
15703TIP3    H168600   1.118   0.597  10.699 -0.5905 -0.1795 -0.5853
15703TIP3    H268601   1.266   0.598  10.667 -0.7556  0.0079 -1.3539
15704TIP3   OH268602   0.865   1.817  17.065  0.4526  0.1248 -0.0947
15704TIP3    H168603   0.791   1.877  17.063  0.4512  0.1393  0.2558
15704TIP3    H268604   0.912   1.840  17.145  0.5707 -0.1952 -0.0689
15705TIP3   OH268605   2.266   1.289  16.270 -0.0820  0.6260 -0.1543
15705TIP3    H168606   2.297   1.231  16.339 -2.9529 -1.7000 -0.5708
15705TIP3    H268607   2.345   1.320  16.226  1.6793 -1.0293  1.6650
15706TIP3   OH268608   3.949   5.320   5.421 -0.3308  0.4208  0.1838
15706TIP3    H168609   3.965   5.335   5.514 -0.9189 -0.2720  0.4081
15706TIP3    H268610   3.861   5.282   5.418 -0.0811 -0.1088 -0.6017
15707TIP3   OH268611   1.326   2.616   0.583 -0.5138  0.0394  0.6429
15707TIP3    H168612   1.297   2.597   0.494 -0.7174 -0.3887  0.7994
15707TIP3    H268613   1.297   2.541   0.635  1.7201 -0.9252  0.6207
15708TIP3   OH268614   4.867   2.265   5.907 -0.2179  0.0589 -0.1480
15708TIP3    H168615   4.928   2.215   5.854 -0.8208 -0.6355 -0.1941
15708TIP3    H268616   4.810   2.309   5.844 -0.2096  0.1462 -0.0950
15709TIP3   OH268617   4.364   6.566   2.845  0.5439 -0.4403  0.3739
15709TIP3    H168618   4.307   6.643   2.847  1.4443  0.2388  2.2573
15709TIP3    H268619   4.304   6.492   2.843 -0.3827  0.2826  0.4987
15710TIP3   OH268620   6.224   1.270   1.276 -0.3694 -0.2410 -0.1178
15710TIP3    H168621   6.132   1.291   1.291 -0.6022 -1.1710 -0.1749
15710TIP3    H268622   6.251   1.222   1.355 -0.3671 -1.3003 -0.7488
15711TIP3   OH268623   0.597   6.728   2.633 -0.1317 -0.0298  0.2144
15711TIP3    H168624   0.659   6.747   2.703 -1.6561  0.8726  1.3841
15711TIP3    H268625   0.630   6.648   2.592  0.6704 -0.7344  2.1308
15712TIP3   OH268626   3.875   0.918   4.796 -0.0511  0.5857  0.3889
15712TIP3    H168627   3.940   0.868   4.846 -1.2237 -2.1190 -0.5741
15712TIP3    H268628   3.797   0.917   4.852 -0.8102 -0.8647 -0.6248
15713TIP3   OH268629   2.303   1.214  12.050 -0.1306  1.2399 -0.1720
15713TIP3    H168630   2.303   1.119  12.042 -0.5693  0.9402  2.4044
15713TIP3    H268631   2.253   1.245  11.975 -1.2798 -0.6642 -0.2598
15714TIP3   OH268632   0.773   0.064  13.787  0.0652 -0.0373  0.9075
15714TIP3    H168633   0.842   0.118  13.749  1.1022 -0.4340  2.1342
15714TIP3    H268634   0.798  -0.026  13.764 -1.5768 -0.0638 -1.0127
15715TIP3   OH268635   5.116   2.998  13.645  0.3866 -0.3160 -0.2995
15715TIP3    H168636   5.199   2.966  13.608  0.5607 -1.3199  0.9069
15715TIP3    H268637   5.058   3.006  13.570  1.6592  0.7281 -1.2277
15716TIP3   OH268638   5.687   3.762   5.326 -0.0021 -0.3228 -0.1179
15716TIP3    H168639   5.746   3.730   5.395 -0.4697  1.0688  0.9624
15716TIP3    H268640   5.607   3.710   5.337  0.6151 -1.5209 -0.9581
15717TIP3   OH268641   5.794   2.918   1.054  0.0197  0.0613 -0.1622
15717TIP3    H168642   5.865   2.869   1.096 -0.0753 -2.9379 -3.0766
15717TIP3    H268643   5.714   2.881   1.091 -0.0169 -0.9767 -1.1884
15718TIP3   OH268644   3.477   1.069   4.985  0.0644  0.3685 -0.0771
15718TIP3    H168645   3.486   1.057   5.079  0.8121 -2.2184 -0.4124
15718TIP3    H268646   3.537   1.141   4.965  2.5759 -1.3059  1.0036
15719TIP3   OH268647   6.602   5.980  16.834 -0.1258 -0.2760  0.6954
15719TIP3    H168648   6.566   6.014  16.752 -1.1584 -2.6753  0.0771
15719TIP3    H268649   6.692   5.955  16.812  0.4901  1.4221  1.0426
15720TIP3   OH268650   4.751   3.431  14.127 -0.1953 -0.2146 -0.4914
15720TIP3    H168651   4.828   3.381  14.153 -0.5048 -0.2793  0.3430
15720TIP3    H268652   4.784   3.498  14.068  0.0551 -2.1623 -2.7015
15721TIP3   OH268653   5.554   1.689  13.463  0.6064  0.4812  0.1609
15721TIP3    H168654   5.559   1.733  13.379  0.4436 -0.9784 -0.6564
15721TIP3    H268655   5.461   1.678  13.479  0.6456  0.3433  0.2966
15722TIP3   OH268656   4.093   0.766  13.811  0.1328  0.2494  0.4999
15722TIP3    H168657   4.100   0.853  13.772 -0.8013 -0.0499 -0.3642
15722TIP3    H268658   4.088   0.782  13.905 -0.2936  1.1460  0.3280
15723TIP3   OH268659   1.395   4.909   0.665 -0.1893  0.1436 -0.5298
15723TIP3    H168660   1.369   4.836   0.609  1.4812 -0.8314 -0.1356
15723TIP3    H268661   1.330   4.910   0.735 -0.7029 -0.4483 -0.9873
15724TIP3   OH268662   4.681   5.624  16.361  0.6747 -0.2834 -0.7450
15724TIP3    H168663   4.596   5.649  16.399  0.3039 -0.4077 -1.4812
15724TIP3    H268664   4.726   5.578  16.432  0.2702  0.1001 -0.2343
15725TIP3   OH268665   2.882   1.059  16.830 -0.1156  0.3064  0.1888
15725TIP3    H168666   2.919   0.972  16.844  0.9300  0.9125  1.4395
15725TIP3    H268667   2.932   1.096  16.758  0.7002  0.5574  0.8780
15726TIP3   OH268668   0.331   5.491  10.742 -0.3039  0.0060  0.1544
15726TIP3    H168669   0.254   5.519  10.693 -1.2844 -1.1904  0.9509
15726TIP3    H268670   0.332   5.547  10.820 -1.2675 -0.9633  0.8917
15727TIP3   OH268671   0.909   0.538  14.295  0.0287 -0.0690  0.1508
15727TIP3    H168672   0.912   0.613  14.236 -1.5263  0.2995  0.4959
15727TIP3    H268673   0.936   0.572  14.380  1.6027 -0.4529 -0.1501
15728TIP3   OH268674   3.151   4.677   2.022  0.0173  0.0057 -0.3898
15728TIP3    H168675   3.236   4.677   1.978  0.0645 -0.4827 -0.3117
15728TIP3    H268676   3.087   4.667   1.951  0.0654 -0.2952 -0.3927
15729TIP3   OH268677   0.091   5.101   3.133 -0.3460  0.6725  0.3485
15729TIP3    H168678   0.109   5.171   3.070 -0.2633 -0.5455 -1.0448
15729TIP3    H268679  -0.000   5.076   3.116  0.0772 -0.5612 -0.2544
15730TIP3   OH268680   5.208   4.045   5.373 -0.2574 -0.3723 -0.2774
15730TIP3    H168681   5.189   4.035   5.466 -0.3536  1.2463 -0.0888
15730TIP3    H268682   5.299   4.019   5.364 -0.1447 -0.2030  0.3350
15731TIP3   OH268683   5.793   0.200   3.953  0.0673 -0.7190 -0.3131
15731TIP3    H168684   5.798   0.111   3.987 -0.3949 -1.1106 -1.2445
15731TIP3    H268685   5.702   0.225   3.965 -0.3412 -1.2224 -2.1017
15732TIP3   OH268686   0.518   4.971  13.032 -0.1771  0.0447 -0.5022
15732TIP3    H168687   0.587   4.975  13.099 -1.5249 -0.1540  0.9679
15732TIP3    H268688   0.436   4.975  13.082 -1.2532 -0.9449 -2.1030
15733TIP3   OH268689   1.137   0.892  12.767 -0.2481 -0.2325  0.3330
15733TIP3    H168690   1.059   0.942  12.743  0.2246  0.4618  0.2238
15733TIP3    H268691   1.103   0.823  12.824 -1.0851 -0.5864 -0.5639
15734TIP3   OH268692   4.252   6.276   0.221  0.4217  0.5727 -0.8662
15734TIP3    H168693   4.159   6.256   0.223  0.4517  0.1765  2.3841
15734TIP3    H268694   4.273   6.299   0.311  3.2832  1.6647 -1.7091
15735TIP3   OH268695   0.777   2.364  11.611 -0.4671 -0.2349  0.3841
15735TIP3    H168696   0.866   2.331  11.608 -0.1913  0.4623  0.7355
15735TIP3    H268697   0.774   2.434  11.545 -1.4984 -1.9936 -1.5453
15736TIP3   OH268698   1.175   0.424   0.946  0.1226  0.7662  0.3199
15736TIP3    H168699   1.134   0.399   1.028 -0.4549 -0.5511 -0.3340
15736TIP3    H268700   1.115   0.486   0.906 -0.2309  0.4222  0.3125
15737TIP3   OH268701   2.459   0.266   3.044  0.2766  0.5749 -0.8789
15737TIP3    H168702   2.430   0.227   2.962 -1.2080 -0.2012 -0.0190
15737TIP3    H268703   2.530   0.209   3.074 -0.1207  0.0466 -0.9317
15738TIP3   OH268704   5.186   5.959  12.802 -0.1297  0.0901  0.3958
15738TIP3    H168705   5.203   6.035  12.858 -1.0061 -0.7674  1.8829
15738TIP3    H268706   5.246   5.892  12.833  1.8959  0.6151 -2.0468
15739TIP3   OH268707   4.950   4.774   2.744  0.0839 -0.5874 -0.0860
15739TIP3    H168708   5.008   4.706   2.780  0.0600 -0.9218 -0.6776
15739TIP3    H268709   4.863   4.749   2.773 -0.1058 -1.5844 -1.4529
15740TIP3   OH268710   4.146   6.058   2.401 -0.1225 -0.6094 -0.3788
15740TIP3    H168711   4.146   6.097   2.314 -0.1163 -2.7571 -1.3979
15740TIP3    H268712   4.054   6.040   2.420 -0.3198  1.3815  0.8464
15741TIP3   OH268713   6.531   1.031  11.508 -0.5960  0.0375 -0.3452
15741TIP3    H168714   6.453   1.086  11.514  0.9335  2.3493 -0.5522
15741TIP3    H268715   6.579   1.047  11.590 -0.0363 -0.9021 -0.4656
15742TIP3   OH268716   3.788   1.887  15.127  0.1038  0.1340 -0.1695
15742TIP3    H168717   3.758   1.805  15.087  1.6257 -0.9007  0.7115
15742TIP3    H268718   3.714   1.947  15.118 -1.0042 -1.2938 -0.9457
15743TIP3   OH268719   6.657   0.170  14.788 -0.1088  0.1342  0.5522
15743TIP3    H168720   6.673   0.085  14.831  1.1939  0.8299  1.5136
15743TIP3    H268721   6.715   0.170  14.712 -0.2682  0.0789  0.4303
15744TIP3   OH268722   2.196   2.521  13.422 -0.3834  0.2743 -0.0627
15744TIP3    H168723   2.236   2.584  13.361  0.3331  2.0929  2.1333
15744TIP3    H268724   2.103   2.522  13.398 -0.1198  0.8803 -1.1690
15745TIP3   OH268725   0.793   0.050   2.200  0.3039 -0.5675  0.1476
15745TIP3    H168726   0.795   0.074   2.293  0.7903 -1.9379  0.5159
15745TIP3    H268727   0.881   0.016   2.183  0.3854  0.1705 -0.9588
15746TIP3   OH268728   3.207   4.479   4.781 -0.1944  0.6814  0.1251
15746TIP3    H168729   3.157   4.400   4.760 -0.6155  0.8187  0.5890
15746TIP3    H268730   3.260   4.455   4.857  0.4595  0.5349 -0.3677
15747TIP3   OH268731   6.705   2.423   5.320 -0.1601 -0.0046 -0.0136
15747TIP3    H168732   6.772   2.382   5.266 -0.8575  0.9062 -1.6418
15747TIP3    H268733   6.651   2.472   5.258 -0.8552  1.2964  1.5463
15748TIP3   OH268734   3.244   5.087   2.878 -0.0357 -0.2802 -0.4866
15748TIP3    H168735   3.278   5.093   2.967 -0.0484  1.6355 -0.5711
15748TIP3    H268736   3.235   5.178   2.849  0.7815 -0.8473 -2.7554
15749TIP3   OH268737   0.168   0.643   3.003 -0.1696 -0.0436 -0.1971
15749TIP3    H168738   0.104   0.576   3.027 -1.2219  0.5249 -1.3243
15749TIP3    H268739   0.180   0.694   3.083 -2.9754  1.3260 -0.5524
15750TIP3   OH268740   1.941   0.325  11.707  0.0966  0.4542 -0.3000
15750TIP3    H168741   1.858   0.345  11.749  0.5665  0.7043  0.5243
15750TIP3    H268742   1.977   0.410  11.683 -0.9242  0.2740 -2.7725
15751TIP3   OH268743   3.090   5.420  10.695 -0.6267  0.1931  0.7077
15751TIP3    H168744   3.045   5.404  10.778 -1.1261 -0.4763  0.3189
15751TIP3    H268745   3.086   5.336  10.649 -0.3105  0.5405  0.0292
15752TIP3   OH268746   6.551   1.595   3.757 -0.1469 -0.1608 -0.6440
15752TIP3    H168747   6.615   1.524   3.744 -0.5502 -0.3338 -1.7876
15752TIP3    H268748   6.578   1.636   3.839  1.5651 -0.1154 -1.1772
15753TIP3   OH268749   5.652   1.507   5.954 -0.1841 -0.2013  0.2272
15753TIP3    H168750   5.718   1.474   6.014 -0.6313  0.4212  1.0867
15753TIP3    H268751   5.595   1.561   6.008 -0.3580  0.7301 -0.8349
15754TIP3   OH268752   2.225   0.409   1.952 -0.5173  0.6259  0.3070
15754TIP3    H168753   2.293   0.447   2.007 -0.2967  0.8469 -0.1077
15754TIP3    H268754   2.148   0.402   2.008 -0.0579  0.0749  0.8768
15755TIP3   OH268755   0.934   6.307  11.438  0.1652  0.4890 -0.0817
15755TIP3    H168756   0.921   6.296  11.532 -0.8148  0.0172 -0.2667
15755TIP3    H268757   0.868   6.252  11.397 -1.1846  2.6810 -1.0383
15756TIP3   OH268758   0.882   6.200  15.619  0.4288 -0.2197 -0.1598
15756TIP3    H168759   0.943   6.267  15.589  2.3642 -1.2594  1.1521
15756TIP3    H268760   0.822   6.246  15.677  1.1624  0.5446  0.0202
15757TIP3   OH268761   5.460   4.641   5.259  0.3982  0.0168  0.0493
15757TIP3    H168762   5.548   4.621   5.293  0.6142 -0.6360 -0.8390
15757TIP3    H268763   5.472   4.721   5.207  0.5512 -0.2662 -0.3590
15758TIP3   OH268764   1.050   3.424   3.349  0.0785  0.0902  0.0717
15758TIP3    H168765   1.012   3.372   3.420  0.5889  0.2511  0.4701
15758TIP3    H268766   1.143   3.404   3.352 -0.1213 -1.3780 -1.7994
15759TIP3   OH268767   6.326   6.466   1.816 -0.1679  0.0854  0.1621
15759TIP3    H168768   6.316   6.389   1.760 -3.0887 -0.5149  1.3251
15759TIP3    H268769   6.408   6.451   1.862 -0.0187 -1.6844 -0.5928
15760TIP3   OH268770   3.458   1.889  17.117 -0.4422 -0.3003  0.2645
15760TIP3    H168771   3.397   1.948  17.161  0.6683  0.7771  0.3916
15760TIP3    H268772   3.508   1.849  17.188  2.1007  2.2459  0.0838
15761TIP3   OH268773   3.647   4.890  11.802  0.1336 -0.1496 -0.1799
15761TIP3    H168774   3.551   4.892  11.795  0.0832  0.2830  0.5917
15761TIP3    H268775   3.677   4.884  11.712 -0.7058 -3.8727 -0.3789
15762TIP3   OH268776   3.999   1.290   0.078  0.5387  0.2469 -0.9470
15762TIP3    H168777   3.938   1.278   0.150 -0.1886  0.1083 -1.5743
15762TIP3    H268778   4.079   1.245   0.105 -0.1365 -0.8388 -0.7352
15763TIP3   OH268779   5.452   6.613  12.669  0.0488 -0.9715 -0.2701
15763TIP3    H168780   5.485   6.698  12.641  0.0607 -0.8840  0.0088
15763TIP3    H268781   5.362   6.610  12.638  0.1513 -0.9907 -0.5642
15764TIP3   OH268782   1.575   2.595  12.773  0.8989  0.5683 -0.1493
15764TIP3    H168783   1.651   2.571  12.825  0.4506 -1.4218 -0.3246
15764TIP3    H268784   1.521   2.515  12.770 -0.5598  1.5299 -1.1042
15765TIP3   OH268785   5.617   1.649   1.015 -0.1254  0.1870 -0.3023
15765TIP3    H168786   5.619   1.564   1.059  0.5937  0.4472  0.1813
15765TIP3    H268787   5.523   1.666   1.002 -0.2564 -1.0370 -1.1399
15766TIP3   OH268788   0.999   4.097  17.271  0.3424  0.4222 -0.1148
15766TIP3    H168789   0.911   4.099  17.310  0.6054 -0.6052  0.5633
15766TIP3    H268790   1.055   4.064  17.341  1.2157  0.7477 -0.6552
15767TIP3   OH268791   1.416   3.832  13.502  0.3333 -0.1875 -0.3196
15767TIP3    H168792   1.326   3.843  13.470  0.4386 -1.2011 -1.0191
15767TIP3    H268793   1.452   3.762  13.448  0.7148 -1.6117  1.6458
15768TIP3   OH268794   6.242   5.103   4.754  0.1372 -0.4290 -0.2376
15768TIP3    H168795   6.225   5.021   4.707 -3.7312  0.4103 -0.6266
15768TIP3    H268796   6.238   5.078   4.847  2.2099 -1.1367 -0.2904
15769TIP3   OH268797   1.814   2.455   2.416  0.2837 -0.0195 -0.4204
15769TIP3    H168798   1.756   2.529   2.434 -0.5358 -0.8615  0.5487
15769TIP3    H268799   1.772   2.407   2.345  0.8539  0.4842 -1.1004
15770TIP3   OH268800   5.747   0.123  12.610  0.0139  0.0473  0.5805
15770TIP3    H168801   5.653   0.132  12.592  0.1970  3.8806  0.5716
15770TIP3    H268802   5.752   0.099  12.702 -0.9616 -1.0733  0.3602
15771TIP3   OH268803   5.891   5.825   5.979  0.5284 -0.0880  0.0217
15771TIP3    H168804   5.933   5.749   5.937 -0.7752 -0.6435 -0.3454
15771TIP3    H268805   5.797   5.809   5.967  0.2022  1.0066  0.9825
15772TIP3   OH268806   0.366   0.967   1.948  0.4160  0.4243 -0.3581
15772TIP3    H168807   0.286   0.962   1.999  1.2969 -1.0436  0.9865
15772TIP3    H268808   0.366   1.055   1.910 -2.8129 -0.1992 -2.1439
15773TIP3   OH268809   3.408   0.697  15.720 -0.0248 -0.5268  0.2854
15773TIP3    H168810   3.325   0.650  15.706  0.4252 -1.5333  0.8348
15773TIP3    H268811   3.445   0.656  15.798  0.3583  0.8375  0.8421
15774TIP3   OH268812   5.076   1.945  14.091  0.3055  0.4975  0.0869
15774TIP3    H168813   5.103   1.868  14.141  2.2237  2.0668  1.6456
15774TIP3    H268814   5.000   1.979  14.138  0.0490  0.1240 -0.0460
15775TIP3   OH268815   2.613   6.303  13.013  0.7395 -0.2502 -0.3848
15775TIP3    H168816   2.624   6.398  13.019 -1.0965  0.0434 -1.0706
15775TIP3    H268817   2.652   6.270  13.094  0.9741  1.1303  0.1035
15776TIP3   OH268818   3.480   0.766  14.234 -0.1596 -0.4703  0.5635
15776TIP3    H168819   3.473   0.784  14.328 -2.2811 -0.2668  0.4181
15776TIP3    H268820   3.437   0.840  14.192  3.4884  1.0963 -0.8467
15777TIP3   OH268821   3.816   1.186  13.346 -0.1739  0.3129  0.3444
15777TIP3    H168822   3.740   1.140  13.312 -0.7563  0.6215  1.2105
15777TIP3    H268823   3.793   1.279  13.341  0.1132  0.4074  0.6804
15778TIP3   OH268824   0.335   5.666  17.461 -0.2323  0.1191 -0.3886
15778TIP3    H168825   0.326   5.722  17.538  1.5591  1.3202 -0.9715
15778TIP3    H268826   0.428   5.644  17.459 -0.7284 -2.1190 -0.7436
15779TIP3   OH268827   3.545   0.539  13.244 -0.1664  0.4404 -0.2775
15779TIP3    H168828   3.528   0.606  13.310  2.1275  1.6880 -0.8306
15779TIP3    H268829   3.568   0.461  13.294 -0.6557  0.7187  0.3903
15780TIP3   OH268830   5.169   1.224   5.734 -0.1359  0.3362  0.6127
15780TIP3    H168831   5.215   1.299   5.773 -1.3059  0.8088  1.1086
15780TIP3    H268832   5.096   1.207   5.793 -0.8012 -0.1946 -0.3442
15781TIP3   OH268833   1.475   5.721  12.983  0.0918 -0.4445 -0.2477
15781TIP3    H168834   1.382   5.729  12.959 -0.2961  2.2653  1.6776
15781TIP3    H268835   1.523   5.752  12.907 -0.6125 -0.8421 -0.8656
15782TIP3   OH268836   0.938   5.365   5.664 -0.2502  0.0335 -0.5605
15782TIP3    H168837   0.980   5.381   5.579  0.8039 -3.9745 -1.0006
15782TIP3    H268838   1.003   5.391   5.729  0.2129  0.1512 -1.0663
15783TIP3   OH268839   0.484   4.443   0.394  0.3086  0.3949  0.0476
15783TIP3    H168840   0.398   4.484   0.384  1.0455  1.7549 -1.2787
15783TIP3    H268841   0.543   4.501   0.346  1.7216 -1.3368 -0.4048
15784TIP3   OH268842   1.530   0.252  13.836 -0.1670 -0.8123 -0.1598
15784TIP3    H168843   1.550   0.196  13.911 -1.0724 -2.1083 -0.8335
15784TIP3    H268844   1.455   0.304  13.864  0.1199 -0.5688  0.1662
15785TIP3   OH268845   3.670   0.451   2.585  0.2617 -0.1114 -0.4055
15785TIP3    H168846   3.629   0.524   2.632 -1.3123 -2.2199  1.8042
15785TIP3    H268847   3.643   0.463   2.494  0.0061  2.0029 -0.1057
15786TIP3   OH268848   6.608   3.174   0.774  0.3892 -0.2519 -0.4167
15786TIP3    H168849   6.682   3.115   0.763  0.5497 -0.0705 -0.3208
15786TIP3    H268850   6.534   3.117   0.793  0.3937 -0.4738 -1.0463
15787TIP3   OH268851   4.582   4.328   5.549  0.6197 -0.4299 -0.0275
15787TIP3    H168852   4.551   4.388   5.481  1.4471 -0.5922 -0.5663
15787TIP3    H268853   4.549   4.365   5.631 -1.2421 -0.7559 -0.5688
15788TIP3   OH268854   0.264   4.989   0.958 -0.0159  0.4671 -0.1226
15788TIP3    H168855   0.244   4.958   0.870  1.8370 -0.3521 -0.2862
15788TIP3    H268856   0.305   4.914   1.001  1.9195  1.7733  0.4280
15789TIP3   OH268857   6.650   3.276  14.350  0.3272 -0.4240 -0.5073
15789TIP3    H168858   6.708   3.282  14.426  0.8421 -0.7741 -0.8604
15789TIP3    H268859   6.689   3.207  14.296  0.1405  0.0250 -1.2292
15790TIP3   OH268860   3.749   1.766  13.644  0.2388 -0.2626  0.2083
15790TIP3    H168861   3.786   1.749  13.557  0.8418  1.7505  0.0075
15790TIP3    H268862   3.668   1.813  13.627 -0.8055 -1.8030  0.7332
15791TIP3   OH268863   1.552   4.435   4.684 -0.3175  0.2782  0.6504
15791TIP3    H168864   1.616   4.494   4.646 -0.6192  0.1280 -0.1180
15791TIP3    H268865   1.508   4.487   4.752 -0.4618  0.8878  0.1026
15792TIP3   OH268866   1.872   2.081   5.872  0.5456  0.7809 -0.3875
15792TIP3    H168867   1.880   2.092   5.967  1.5371  0.1453 -0.3893
15792TIP3    H268868   1.791   2.128   5.850 -1.1814 -1.2213  1.1510
15793TIP3   OH268869   5.340   6.489  11.502  1.2492  0.3669 -0.1382
15793TIP3    H168870   5.434   6.508  11.511  1.4753 -0.7497  0.0288
15793TIP3    H268871   5.333   6.395  11.522 -0.1172  0.7404  1.3356
15794TIP3   OH268872   1.322   5.023  14.720  0.4215 -0.3634  0.0979
15794TIP3    H168873   1.373   4.944  14.699  0.5309 -0.2233 -0.1660
15794TIP3    H268874   1.386   5.083  14.759 -0.2415 -1.5643  3.3059
15795TIP3   OH268875   2.333   3.933   2.589  0.2588  0.6171  0.5087
15795TIP3    H168876   2.415   3.937   2.637  0.4461 -0.5043  0.3088
15795TIP3    H268877   2.270   3.898   2.652  0.2398  0.2481  0.2900
15796TIP3   OH268878   1.808   3.482   2.817  0.3724  0.9788  0.5569
15796TIP3    H168879   1.890   3.433   2.811  1.6247  3.1088 -1.6495
15796TIP3    H268880   1.812   3.525   2.902  0.7807 -0.1412  1.1201
15797TIP3   OH268881   2.287   1.840  13.828 -0.3880  0.5037 -0.7126
15797TIP3    H168882   2.367   1.827  13.777  0.6776  0.0597  0.9996
15797TIP3    H268883   2.238   1.758  13.819  0.5063 -0.1372  0.1706
15798TIP3   OH268884   5.286   6.005   0.355  0.5343  0.0913  0.9347
15798TIP3    H168885   5.341   6.017   0.432 -0.3737 -0.0801  1.6226
15798TIP3    H268886   5.306   5.916   0.325  3.0937  1.1447 -0.8367
15799TIP3   OH268887   3.355   0.750   4.002 -0.2729 -0.2092  0.5225
15799TIP3    H168888   3.437   0.731   3.956 -0.5678 -0.4966  0.1023
15799TIP3    H268889   3.379   0.754   4.094  0.3737  0.6083  0.3315
15800TIP3   OH268890   2.152   0.708  17.336  0.2380 -0.3995  0.0029
15800TIP3    H168891   2.143   0.796  17.371 -3.1969 -1.5892  2.7377
15800TIP3    H268892   2.104   0.710  17.253 -0.8197  0.0764  0.6121
15801TIP3   OH268893   3.652   3.390  16.903 -0.2623  0.5098 -0.1167
15801TIP3    H168894   3.569   3.354  16.873 -1.2162  1.7819  0.8655
15801TIP3    H268895   3.706   3.393  16.824 -0.4412 -2.0536 -0.4381
15802TIP3   OH268896   1.233   3.217   3.136  0.7607  0.9131 -0.1163
15802TIP3    H168897   1.270   3.264   3.211  1.1671  1.6469 -0.7615
15802TIP3    H268898   1.283   3.135   3.132 -0.3163  0.1543  1.3400
15803TIP3   OH268899   6.313   0.512   5.097  0.6727 -0.0321  0.5820
15803TIP3    H168900   6.377   0.507   5.167  1.3319  0.1932  0.0048
15803TIP3    H268901   6.343   0.448   5.032 -0.0205 -0.3599  0.5734
15804TIP3   OH268902   1.394   6.618  16.579  0.2302 -0.3685 -0.7339
15804TIP3    H168903   1.480   6.593  16.547  0.9753  0.5228  0.4814
15804TIP3    H268904   1.381   6.566  16.658  1.3522  2.0917  1.2275
15805TIP3   OH268905   1.204   4.765   4.822  0.1347  0.0997 -0.1968
15805TIP3    H168906   1.162   4.702   4.763  0.7566  1.0597 -1.7059
15805TIP3    H268907   1.192   4.727   4.909 -1.3654 -1.0430 -0.8588
15806TIP3   OH268908   3.049   0.963  11.683  0.0616  0.6838  0.3347
15806TIP3    H168909   3.125   1.009  11.720  0.4662  2.0795 -2.0164
15806TIP3    H268910   3.087   0.895  11.627 -0.5258 -1.1754  2.0991
15807TIP3   OH268911   0.689   5.597  11.149 -0.0950  0.3485  0.0795
15807TIP3    H168912   0.605   5.604  11.195  0.2353 -2.0441  1.1903
15807TIP3    H268913   0.665   5.572  11.059 -0.5873 -0.3338  0.3915
15808TIP3   OH268914   4.740   4.475  13.385 -0.8933  0.0587  0.1844
15808TIP3    H168915   4.809   4.421  13.348  0.0504  3.3829 -3.5314
15808TIP3    H268916   4.785   4.553  13.419 -2.5815  2.6308 -2.9435
15809TIP3   OH268917   4.137   5.579   2.489 -0.1511 -0.4194 -0.5608
15809TIP3    H168918   4.178   5.663   2.512 -0.0134 -0.1953 -1.5781
15809TIP3    H268919   4.208   5.515   2.496 -0.0234 -0.2960 -0.7336
15810TIP3   OH268920   3.540   2.032  16.328 -0.2261  0.1079  0.4876
15810TIP3    H168921   3.519   2.070  16.243 -0.6186 -0.0865  0.4984
15810TIP3    H268922   3.513   2.099  16.391 -3.1012 -1.0635  0.6427
15811TIP3   OH268923   4.899   0.088   3.201  0.5066 -0.3665  0.1128
15811TIP3    H168924   4.986   0.086   3.162  0.6192  0.6237  0.3017
15811TIP3    H268925   4.889   0.177   3.235 -0.3769 -0.6179  0.5522
15812TIP3   OH268926   1.745   5.741  15.900  0.0878 -0.2833 -0.0503
15812TIP3    H168927   1.779   5.774  15.984 -0.6936 -0.4042  0.3249
15812TIP3    H268928   1.718   5.820  15.853  0.7682 -0.1971 -0.2960
15813TIP3   OH268929   3.452   4.253  15.833 -0.1431 -0.1908  0.0567
15813TIP3    H168930   3.517   4.318  15.861 -0.1865  0.4967 -1.3671
15813TIP3    H268931   3.470   4.176  15.888  1.9825 -0.0839 -0.4021
15814TIP3   OH268932   2.855   1.819  15.494  0.0693 -0.0615 -0.4042
15814TIP3    H168933   2.830   1.895  15.442 -0.7127 -0.9725 -1.4041
15814TIP3    H268934   2.791   1.816  15.565  0.4657  0.5373 -0.0077
15815TIP3   OH268935   6.313   5.305   2.981 -0.1022 -0.0682  0.1113
15815TIP3    H168936   6.408   5.300   2.969  0.0246 -0.1083  1.0743
15815TIP3    H268937   6.288   5.389   2.942  0.1967 -0.4145 -0.8730
15816TIP3   OH268938   5.765   1.033  17.159 -0.4105  0.1286  0.6539
15816TIP3    H168939   5.771   1.104  17.096 -1.3129  0.8450  1.3610
15816TIP3    H268940   5.799   1.070  17.241 -1.4386 -0.0525  1.1760
15817TIP3   OH268941   0.770   4.909  12.483  0.1918 -0.2261 -0.0457
15817TIP3    H168942   0.763   4.817  12.456  1.1380 -0.6957  1.1908
15817TIP3    H268943   0.755   4.959  12.403  0.7814 -1.4996 -0.9849
15818TIP3   OH268944   4.503   2.109  14.194  0.4267 -0.6590 -1.0234
15818TIP3    H168945   4.436   2.050  14.158 -0.5876 -0.1654 -0.0334
15818TIP3    H268946   4.544   2.057  14.263  0.2166 -0.5587 -0.8192
15819TIP3   OH268947   1.855   4.869   2.122  0.0391 -0.0656 -0.2554
15819TIP3    H168948   1.906   4.833   2.194 -0.7680 -1.2661 -0.2542
15819TIP3    H268949   1.843   4.961   2.145 -0.0438 -0.3827  1.0628
15820TIP3   OH268950   5.389   0.394   1.468 -0.1644 -0.0045 -0.3396
15820TIP3    H168951   5.478   0.429   1.465  0.6240 -1.5327  1.8859
15820TIP3    H268952   5.365   0.380   1.377  2.8039 -1.6502 -0.9849
15821TIP3   OH268953   4.483   4.835   3.094  0.6481  0.8842 -0.2633
15821TIP3    H168954   4.508   4.784   3.018  0.3815  0.8756 -0.3465
15821TIP3    H268955   4.566   4.865   3.132  0.7674  1.1236 -0.7151
15822TIP3   OH268956   2.517   3.424  16.857  0.0020  0.8441  0.0106
15822TIP3    H168957   2.546   3.411  16.767 -1.3228  1.8752 -0.6018
15822TIP3    H268958   2.597   3.450  16.904  0.7926 -0.1130 -0.7567
15823TIP3   OH268959   2.151   3.208  11.387  0.2489 -0.4896 -0.3418
15823TIP3    H168960   2.152   3.115  11.365  2.0494 -0.9984  1.4954
15823TIP3    H268961   2.238   3.224  11.425 -0.4378  1.6651  0.4652
15824TIP3   OH268962   2.223   4.971  16.067 -0.0052  0.4103 -0.1605
15824TIP3    H168963   2.185   4.900  16.119 -1.0399  0.9003 -0.2192
15824TIP3    H268964   2.185   4.960  15.980  0.9139  0.2138 -0.5432
15825TIP3   OH268965   1.871   6.096  13.466 -0.3058 -0.2062  0.2187
15825TIP3    H168966   1.946   6.037  13.474  0.1283  0.5291  1.8206
15825TIP3    H268967   1.844   6.114  13.556  0.0579  2.6276 -0.1538
15826TIP3   OH268968   5.125   5.144   4.816  0.2757  0.0348  0.0425
15826TIP3    H168969   5.157   5.123   4.728 -0.7731 -3.7474  0.3833
15826TIP3    H268970   5.203   5.139   4.871  0.9291  2.3612 -0.5326
15827TIP3   OH268971   6.268   3.223   0.824 -0.1471  0.3879  0.0065
15827TIP3    H168972   6.176   3.203   0.840 -0.1318  0.8248  0.6965
15827TIP3    H268973   6.276   3.224   0.729 -0.5252 -1.1167 -0.0731
15828TIP3   OH268974   4.820   4.570   0.979 -1.0910  0.1771  0.0336
15828TIP3    H168975   4.820   4.557   0.884  1.5339  2.6878 -0.4525
15828TIP3    H268976   4.886   4.508   1.011 -0.8083  0.4532 -0.0108
15829TIP3   OH268977   6.353   3.977   5.367  0.3259 -0.1425 -0.5118
15829TIP3    H168978   6.433   3.982   5.314  1.4069  0.4176  1.0945
15829TIP3    H268979   6.344   3.885   5.390  1.4401 -0.0008  0.6045
15830TIP3   OH268980   6.643   0.025  16.798 -0.2116 -1.0680 -0.3108
15830TIP3    H168981   6.653   0.083  16.722 -0.3787 -1.1958 -0.4320
15830TIP3    H268982   6.711  -0.041  16.786 -0.2016 -1.0559 -0.3198
15831TIP3   OH268983   2.961   1.863   5.755  0.0304 -0.1085  0.2225
15831TIP3    H168984   2.962   1.794   5.689  3.6852  1.5899 -1.8166
15831TIP3    H268985   3.023   1.834   5.822  1.2823  0.8807 -0.4460
15832TIP3   OH268986   2.211   1.372   2.666 -0.0588 -0.1384 -0.4225
15832TIP3    H168987   2.271   1.365   2.741 -0.2190 -1.2731 -0.3858
15832TIP3    H268988   2.135   1.420   2.701  0.6685  1.0424 -0.3901
15833TIP3   OH268989   3.293   1.568   2.067  0.3094 -0.1886 -0.3395
15833TIP3    H168990   3.386   1.552   2.054  0.4550  0.3306  0.0494
15833TIP3    H268991   3.271   1.635   2.003  0.3267  0.0758 -0.0730
15834TIP3   OH268992   2.849   2.240  15.162 -0.3629  0.0228  0.1729
15834TIP3    H168993   2.778   2.302  15.147 -0.4897 -0.3251 -0.7712
15834TIP3    H268994   2.915   2.263  15.097  0.6535  0.7005  1.4048
15835TIP3   OH268995   5.331   0.313  16.376  0.1112  0.2751  0.0559
15835TIP3    H168996   5.254   0.357  16.413  0.0828  2.2670 -2.1258
15835TIP3    H268997   5.379   0.384  16.333  1.5036 -1.4645 -1.3591
15836TIP3   OH268998   1.191   3.747   5.640  0.2746  0.0464 -0.9886
15836TIP3    H168999   1.280   3.735   5.673 -0.0304 -0.0943 -0.1844
15836TIP3    H269000   1.136   3.699   5.702 -0.2859 -0.5851 -1.9494
15837TIP3   OH269001   2.106   3.159   4.811  0.0704 -0.6157 -0.4341
15837TIP3    H169002   2.105   3.063   4.812  0.9414 -0.6316 -0.2412
15837TIP3    H269003   2.180   3.182   4.754 -0.7159 -0.0423 -1.2518
15838TIP3   OH269004   3.362   6.582   0.033  0.6043 -0.1325  0.7058
15838TIP3    H169005   3.427   6.638   0.075  2.0939 -0.0903 -1.4933
15838TIP3    H269006   3.337   6.628  -0.047  0.1157 -1.5260  0.0120
15839TIP3   OH269007   1.790   3.701   1.269 -0.0376 -0.3403  0.1649
15839TIP3    H169008   1.696   3.684   1.261 -0.0875 -0.7564  1.4365
15839TIP3    H269009   1.831   3.616   1.252  0.1082 -0.2136 -0.1354
15840TIP3   OH269010   0.915   5.065   0.771 -0.0186 -0.4100  0.4985
15840TIP3    H169011   0.994   5.078   0.717  0.0512  1.6066  1.0149
15840TIP3    H269012   0.932   5.116   0.850 -1.3399 -0.9957  1.1849
15841TIP3   OH269013   2.690   6.676  17.131 -0.3415 -0.0348  0.0460
15841TIP3    H169014   2.742   6.611  17.084 -0.1432  0.1950 -0.0568
15841TIP3    H269015   2.604   6.674  17.088  0.2073  1.0625 -1.1780
15842TIP3   OH269016   0.007   2.174  12.765  0.3625 -0.5880 -0.3919
15842TIP3    H169017   0.044   2.248  12.814 -1.4475  0.8429 -1.0956
15842TIP3    H269018  -0.019   2.211  12.681  0.1571 -2.2211 -1.0817
15843TIP3   OH269019   5.759   6.264  11.637 -0.4453 -0.7096  0.0371
15843TIP3    H169020   5.671   6.293  11.613 -1.1866 -2.1890  0.8347
15843TIP3    H269021   5.789   6.330  11.700 -0.9686 -0.1807 -0.2495
15844TIP3   OH269022   0.187   1.439  15.702  0.0112  0.8057  0.0432
15844TIP3    H169023   0.224   1.380  15.768  1.2785  0.8328 -0.6155
15844TIP3    H269024   0.178   1.522  15.748  0.8947  0.8295  0.1997
15845TIP3   OH269025   4.791   1.772  17.099  0.3797 -0.0616 -0.3982
15845TIP3    H169026   4.810   1.839  17.033  0.4092 -0.7578 -1.1019
15845TIP3    H269027   4.866   1.713  17.097  0.4874  0.0327  0.4250
15846TIP3   OH269028   0.105   6.225   2.517 -0.4377 -0.3293  0.1077
15846TIP3    H169029   0.086   6.289   2.448  0.3769  0.2936  0.4394
15846TIP3    H269030   0.042   6.246   2.587 -0.3871 -0.0993  0.0851
15847TIP3   OH269031   4.000   0.955   5.202 -0.5306  0.4551 -0.3105
15847TIP3    H169032   4.091   0.984   5.209 -0.5146  0.7090 -1.3980
15847TIP3    H269033   3.952   1.009   5.266  0.1256  0.0640  0.5288
15848TIP3   OH269034   1.507   2.423   5.523  0.0716 -0.8707 -0.0979
15848TIP3    H169035   1.438   2.437   5.587 -1.0411  0.5522 -1.5177
15848TIP3    H269036   1.564   2.499   5.532 -0.6700 -0.1033 -1.4137
15849TIP3   OH269037   3.724   4.421  13.746 -0.2160 -0.8072 -0.0659
15849TIP3    H169038   3.736   4.478  13.822 -0.2870  2.0895 -2.0898
15849TIP3    H269039   3.812   4.387  13.728  0.1065 -0.2091  0.3416
15850TIP3   OH269040   2.853   1.780   4.861  0.1622  0.0129  0.6810
15850TIP3    H169041   2.855   1.724   4.939 -2.0992  1.4529  1.9188
15850TIP3    H269042   2.861   1.869   4.896  2.0936  0.5991 -1.0706
15851TIP3   OH269043   3.252   1.388  14.195  0.6736 -0.1117 -0.2338
15851TIP3    H169044   3.199   1.310  14.212  2.3245 -1.0873  0.8196
15851TIP3    H269045   3.325   1.381  14.257  0.8575  2.3285 -0.0738
15852TIP3   OH269046   4.700   6.489   6.451 -0.2260  0.0342 -0.2113
15852TIP3    H169047   4.683   6.458   6.362 -0.8292  1.7184 -0.7192
15852TIP3    H269048   4.768   6.555   6.440  0.5393 -0.5679  0.7494
15853TIP3   OH269049   0.921   6.568  16.868  0.0858 -0.5795  0.1826
15853TIP3    H169050   0.970   6.642  16.904 -1.9209  0.4336  0.9893
15853TIP3    H269051   0.929   6.578  16.773 -0.6000  1.0390  0.2597
15854TIP3   OH269052   2.398   1.412   5.639 -0.3796 -0.4493  0.0040
15854TIP3    H169053   2.485   1.373   5.637  0.5638  1.5522 -1.5385
15854TIP3    H269054   2.338   1.339   5.620  1.0694 -1.5893 -0.3365
15855TIP3   OH269055   1.951   3.826  16.514  0.5866  0.9811 -0.0686
15855TIP3    H169056   1.887   3.881  16.559  1.5947  0.9068  1.5107
15855TIP3    H269057   2.022   3.885  16.491  1.4639  0.4530  1.2201
15856TIP3   OH269058   2.885   0.077   2.962 -0.4008  0.0240  0.8146
15856TIP3    H169059   2.897   0.083   2.867  2.0060  0.9218  1.1037
15856TIP3    H269060   2.911   0.163   2.995  1.2201 -1.0116  2.4538
15857TIP3   OH269061   0.895   2.481   3.161  0.0628  0.8749  0.2156
15857TIP3    H169062   0.825   2.496   3.223 -1.1609 -0.2107 -0.8534
15857TIP3    H269063   0.895   2.387   3.146  2.1095  0.7640  0.5721
15858TIP3   OH269064   0.549   5.473   0.505 -0.3200 -0.0361  0.2197
15858TIP3    H169065   0.560   5.547   0.445  0.2103 -0.3291 -0.0584
15858TIP3    H269066   0.536   5.398   0.447 -1.9719 -0.0174  0.5025
15859TIP3   OH269067   3.253   0.143  16.304 -0.3527  0.0633 -0.0873
15859TIP3    H169068   3.238   0.208  16.373 -0.4647  0.1396 -0.1841
15859TIP3    H269069   3.278   0.195  16.227 -0.0497 -0.0331 -0.0547
15860TIP3   OH269070   3.290   0.681   1.071 -0.4097 -0.0120  0.7137
15860TIP3    H169071   3.349   0.607   1.088 -0.8182 -0.6160 -0.4077
15860TIP3    H269072   3.282   0.684   0.976 -0.7911  1.1837  0.7671
15861TIP3   OH269073   3.364   0.296   4.302  0.3425 -0.0753  0.3559
15861TIP3    H169074   3.433   0.355   4.273  0.1486 -0.2910 -0.5549
15861TIP3    H269075   3.314   0.275   4.223 -1.5854  1.1280  1.1679
15862TIP3   OH269076   1.560   4.241  15.854  0.3360  0.3337  0.8151
15862TIP3    H169077   1.472   4.277  15.866 -0.4667 -1.7282  1.5846
15862TIP3    H269078   1.550   4.147  15.871  2.1765 -0.4036 -1.6208
15863TIP3   OH269079   6.502   0.411   4.406 -0.2504  0.3030 -0.3366
15863TIP3    H169080   6.418   0.439   4.443 -1.8285 -2.7045 -1.2776
15863TIP3    H269081   6.499   0.441   4.315 -0.4318  0.0135 -0.4289
15864TIP3   OH269082   0.046   0.026  13.151 -0.2339  0.3574  0.7787
15864TIP3    H169083   0.092   0.016  13.235 -1.0257  0.0794  1.1884
15864TIP3    H269084  -0.030  -0.032  13.158 -0.4735  0.5600 -0.0173
15865TIP3   OH269085   3.156   0.806   0.529  0.0508 -0.1610 -0.1305
15865TIP3    H169086   3.126   0.732   0.581  2.1773 -2.1217 -1.5077
15865TIP3    H269087   3.177   0.874   0.594 -0.8025 -1.1698  1.2652
15866TIP3   OH269088   4.390   0.258  14.207 -0.1617 -0.4621 -0.0317
15866TIP3    H169089   4.459   0.231  14.146  0.5159 -1.0377  0.9640
15866TIP3    H269090   4.324   0.301  14.151  0.8175 -0.2343 -1.0512
15867TIP3   OH269091   3.627   6.653  15.437 -0.0900 -0.4272 -0.2040
15867TIP3    H169092   3.649   6.676  15.347  1.7344  3.1391  0.9648
15867TIP3    H269093   3.534   6.676  15.446  0.2949  1.5073 -0.6337
15868TIP3   OH269094   1.960   4.123  11.115  0.0946  0.0732  0.1416
15868TIP3    H169095   1.922   4.070  11.044 -1.1676  1.4755 -0.2748
15868TIP3    H269096   2.045   4.151  11.080 -0.6438  1.0028 -0.9693
15869TIP3   OH269097   2.962   5.772   3.917 -0.2911 -0.4005  0.0805
15869TIP3    H169098   3.003   5.685   3.908 -0.0372 -0.6030  2.5753
15869TIP3    H269099   3.032   5.833   3.894 -0.0954 -0.8181 -0.4751
15870TIP3   OH269100   2.445   1.469   1.065  0.0624  0.3336  0.4362
15870TIP3    H169101   2.486   1.424   0.992 -0.4388 -0.5035  0.6623
15870TIP3    H269102   2.513   1.530   1.097  1.5070 -1.6854  1.4180
15871TIP3   OH269103   2.676   5.233   5.342  0.0157 -0.7011  0.0542
15871TIP3    H169104   2.759   5.214   5.297  0.2124 -0.1657  0.1792
15871TIP3    H269105   2.688   5.321   5.378 -1.8504  0.8958 -2.8294
15872TIP3   OH269106   4.643   5.040   2.497 -0.1789 -0.4721 -0.0426
15872TIP3    H169107   4.593   4.961   2.478  0.4273 -0.7608 -0.4844
15872TIP3    H269108   4.591   5.111   2.460 -0.4492 -0.7310 -0.1597
15873TIP3   OH269109   4.405   1.463   1.990  0.2116  0.7779  0.1594
15873TIP3    H169110   4.472   1.471   2.059 -0.5916 -2.0974  1.4018
15873TIP3    H269111   4.326   1.438   2.037 -0.9230  0.8397 -1.6524
15874TIP3   OH269112   6.734   5.044   5.993  0.0200 -0.8949  0.4243
15874TIP3    H169113   6.714   5.032   6.085 -0.5708 -0.2680  0.3836
15874TIP3    H269114   6.815   5.096   5.993  0.0371 -0.9201  0.5846
15875TIP3   OH269115   2.672   1.715   2.026  0.2988 -0.2435 -0.2992
15875TIP3    H169116   2.737   1.650   2.000  0.5162 -0.3263  0.4222
15875TIP3    H269117   2.588   1.669   2.020  0.5799 -1.1354  1.7729
15876TIP3   OH269118   6.171   1.553  15.911 -0.2312 -0.8024 -0.3233
15876TIP3    H169119   6.117   1.605  15.971  0.1717 -0.5257 -0.2010
15876TIP3    H269120   6.256   1.546  15.954 -0.2493 -1.4827 -0.3831
15877TIP3   OH269121   5.779   2.974  13.644 -0.2053 -0.4501  0.2128
15877TIP3    H169122   5.809   2.990  13.555 -0.9928  1.5254  0.2613
15877TIP3    H269123   5.698   3.024  13.652  1.3015  1.8964  2.8857
15878TIP3   OH269124   5.544   1.991   1.190  1.0764  0.2961  0.3306
15878TIP3    H169125   5.508   2.015   1.105 -0.4426 -1.1323  0.5105
15878TIP3    H269126   5.591   2.069   1.219 -0.0254  1.5013 -0.9533
15879TIP3   OH269127   2.528   2.617   4.204 -0.0301  0.0242 -0.2335
15879TIP3    H169128   2.609   2.647   4.164 -1.1755  2.1405 -1.1516
15879TIP3    H269129   2.548   2.530   4.237  3.1297  1.1580  1.2319
15880TIP3   OH269130   6.500   2.224  11.562 -0.6948 -0.3165 -0.5883
15880TIP3    H169131   6.448   2.178  11.497 -0.5156  0.2411 -1.1409
15880TIP3    H269132   6.549   2.289  11.511  2.1354 -2.1651 -0.4007
15881TIP3   OH269133   2.011   1.859   4.359  0.1108 -0.1301 -0.1689
15881TIP3    H169134   2.006   1.908   4.277  2.3647  0.2292 -0.1547
15881TIP3    H269135   2.079   1.793   4.343  0.0329 -0.5574  1.1478
15882TIP3   OH269136   1.383   6.681   1.021  0.2176  0.0002  0.0838
15882TIP3    H169137   1.420   6.619   0.958 -0.4331 -1.3299  0.9666
15882TIP3    H269138   1.452   6.692   1.087 -0.3037 -1.2085  0.8658
15883TIP3   OH269139   4.395   0.053  13.298  0.1295 -0.4613  0.2587
15883TIP3    H169140   4.457   0.087  13.233  0.8710 -1.2306  0.5369
15883TIP3    H269141   4.309   0.069  13.259  0.5594 -1.0931 -1.0291
15884TIP3   OH269142   0.216   3.134  12.095  0.0124  0.3051  0.8256
15884TIP3    H169143   0.178   3.217  12.123 -0.0816  0.4629  0.2489
15884TIP3    H269144   0.293   3.123  12.151 -0.5581  0.2614  1.6066
15885TIP3   OH269145   1.711   4.722   1.340  0.4304  0.1224 -0.8957
15885TIP3    H169146   1.775   4.663   1.300  0.7323  1.2716 -2.2055
15885TIP3    H269147   1.652   4.745   1.269 -1.1240 -0.4639  0.1652
15886TIP3   OH269148   0.352   1.227  13.321 -0.0277 -0.1486 -0.2392
15886TIP3    H169149   0.396   1.216  13.237  2.5662 -0.2260  1.0212
15886TIP3    H269150   0.338   1.322  13.328  1.6641  0.1083  0.0828
15887TIP3   OH269151   1.610   1.685   2.638 -0.8269  0.0297 -0.2638
15887TIP3    H169152   1.697   1.700   2.674 -0.6105 -0.7095 -0.4565
15887TIP3    H269153   1.582   1.601   2.676 -1.4336  0.2352 -0.2399
15888TIP3   OH269154   2.821   5.869  12.991 -0.2939  0.1206  0.1482
15888TIP3    H169155   2.803   5.876  13.085  1.0036  2.2279  0.3026
15888TIP3    H269156   2.758   5.929  12.950  1.0524  1.4690 -0.0203
15889TIP3   OH269157   4.286   0.367  11.685  0.4466 -0.7158  0.0433
15889TIP3    H169158   4.254   0.439  11.630  1.7364 -0.3433 -0.2561
15889TIP3    H269159   4.308   0.298  11.623  1.3112 -0.5304  0.1397
15890TIP3   OH269160   5.614   6.626   4.966 -0.0613 -0.1952 -0.6024
15890TIP3    H169161   5.598   6.699   5.025  1.9589 -0.5948  0.5328
15890TIP3    H269162   5.526   6.593   4.944 -0.9171  0.9606  0.8951
15891TIP3   OH269163   5.786   2.927   2.667 -0.1147 -0.8977 -0.9970
15891TIP3    H169164   5.711   2.916   2.609 -0.7262 -0.6199 -0.2656
15891TIP3    H269165   5.807   2.838   2.696 -1.4999 -0.8013  0.4492
15892TIP3   OH269166   0.885   0.788   3.616 -0.3719 -0.1353  0.1686
15892TIP3    H169167   0.822   0.801   3.687 -3.8259 -1.1145 -2.4576
15892TIP3    H269168   0.831   0.771   3.539  3.1853 -1.9254 -2.1793
15893TIP3   OH269169   1.856   2.999   4.125  0.3891 -0.1047 -0.0256
15893TIP3    H169170   1.938   2.987   4.077 -0.0659  0.3879 -0.9340
15893TIP3    H269171   1.841   3.093   4.125 -0.5479 -0.2436 -0.4918
15894TIP3   OH269172   2.561   5.391   4.102 -0.5611  0.4145  0.8325
15894TIP3    H169173   2.566   5.389   4.198 -0.4362 -1.0594  0.8225
15894TIP3    H269174   2.605   5.311   4.075  0.5687  1.4516 -0.5321
15895TIP3   OH269175   2.174   2.182   0.229 -0.1912  0.1419  0.1517
15895TIP3    H169176   2.173   2.154   0.138  1.4597 -0.6619  0.3514
15895TIP3    H269177   2.159   2.102   0.279 -2.0148  0.7114  0.6089
15896TIP3   OH269178   1.190   5.674   2.439  0.4054  0.7674 -0.5934
15896TIP3    H169179   1.096   5.663   2.423  0.5320  0.6171 -1.2451
15896TIP3    H269180   1.233   5.630   2.366  1.0318 -0.7196  0.5879
15897TIP3   OH269181   2.207   5.770   4.544  0.0552  0.2093  0.3907
15897TIP3    H169182   2.144   5.828   4.587 -0.1669 -1.2027  2.0585
15897TIP3    H269183   2.153   5.711   4.491 -0.0336 -0.7517  1.5169
15898TIP3   OH269184   2.850   5.769   4.196  0.2187  0.2414  0.0599
15898TIP3    H169185   2.817   5.684   4.166  0.3410 -0.2475  1.2560
15898TIP3    H269186   2.907   5.799   4.125 -1.3055  0.2365 -1.2209
15899TIP3   OH269187   5.332   0.079   4.452 -0.2225  0.7900 -0.2910
15899TIP3    H169188   5.313   0.109   4.541 -1.0044 -0.7249  0.0776
15899TIP3    H269189   5.296   0.148   4.396 -0.1392  1.5351  0.5419
15900TIP3   OH269190   0.200   6.455  14.976  0.1975 -0.5077 -0.1927
15900TIP3    H169191   0.218   6.540  15.018 -0.3147 -0.2741 -0.4446
15900TIP3    H269192   0.105   6.446  14.980  0.3800 -2.1783  1.9889
15901TIP3   OH269193   5.475   0.245  15.861 -0.1385 -0.2674 -0.0679
15901TIP3    H169194   5.533   0.309  15.902  0.0841 -0.4066 -0.1610
15901TIP3    H269195   5.387   0.273  15.885 -0.0030 -0.4791  0.6874
15902TIP3   OH269196   4.585   4.491  14.046 -0.5186 -0.5696  0.3451
15902TIP3    H169197   4.635   4.410  14.036 -0.5207 -0.6011  0.5858
15902TIP3    H269198   4.614   4.526  14.130 -2.6531 -1.8182  1.6774
15903TIP3   OH269199   4.692   2.095  17.320 -0.0847  0.7393 -0.2449
15903TIP3    H169200   4.777   2.109  17.279  0.5537 -2.3027 -0.2418
15903TIP3    H269201   4.704   2.124  17.411  1.1196  0.0589 -0.1540
15904TIP3   OH269202   4.095   3.179  16.437  0.0948  0.0516 -0.0888
15904TIP3    H169203   4.184   3.212  16.428 -0.3534  1.2470 -0.3193
15904TIP3    H269204   4.039   3.257  16.431 -1.0321 -0.7897 -0.9782
15905TIP3   OH269205   5.985   3.409   5.747  0.2238 -0.3004  0.3140
15905TIP3    H169206   6.002   3.319   5.718  3.4289 -0.5921  2.5639
15905TIP3    H269207   6.055   3.461   5.708 -2.4783  1.7505 -2.3312
15906TIP3   OH269208   3.360   4.349   0.596  0.2473  0.3849 -0.6133
15906TIP3    H169209   3.355   4.435   0.556  0.5274  0.1533 -1.1544
15906TIP3    H269210   3.452   4.337   0.618  0.2308  0.1720 -0.6546
15907TIP3   OH269211   5.592   5.832   5.935 -0.2806  0.3633 -0.4174
15907TIP3    H169212   5.550   5.797   6.013 -0.0079  0.1213 -0.3732
15907TIP3    H269213   5.529   5.818   5.865 -1.1085  1.8584 -0.0102
15908TIP3   OH269214   5.724   5.582  13.083 -0.4792  0.3322 -1.0274
15908TIP3    H169215   5.780   5.509  13.059 -1.1856 -0.0870 -1.4325
15908TIP3    H269216   5.728   5.642  13.008  0.5648  1.0129 -0.4562
15909TIP3   OH269217   4.636   5.628   3.304  0.3982 -0.8932 -0.3606
15909TIP3    H169218   4.647   5.567   3.231 -1.2228 -0.8385 -0.6956
15909TIP3    H269219   4.672   5.710   3.272  0.9559 -1.2101 -0.5723
15910TIP3   OH269220   3.879   6.683   2.035 -0.0198  0.1222  0.4753
15910TIP3    H169221   3.824   6.618   1.991  0.4547 -0.4439  0.7118
15910TIP3    H269222   3.868   6.763   1.983 -0.1873 -0.2861 -0.1233
15911TIP3   OH269223   1.508   2.883   2.545  0.2990 -0.0292 -0.4381
15911TIP3    H169224   1.538   2.796   2.522  0.3239 -1.0241  2.9195
15911TIP3    H269225   1.419   2.870   2.579 -0.9395  1.7529 -2.6449
15912TIP3   OH269226   5.260   3.432   1.909  0.3929 -0.0557 -0.5564
15912TIP3    H169227   5.260   3.502   1.844 -0.6131  1.1521  0.6860
15912TIP3    H269228   5.335   3.377   1.885  0.9196  1.1720 -1.8558
15913TIP3   OH269229   5.187   4.520  13.387  0.1002 -0.1802  0.2273
15913TIP3    H169230   5.130   4.453  13.350 -0.6772  0.5498  0.0801
15913TIP3    H269231   5.224   4.565  13.311 -0.6793  0.6350  0.3179
15914TIP3   OH269232   6.206   3.409  12.585 -0.5547 -0.1975 -1.0512
15914TIP3    H169233   6.204   3.352  12.662 -1.8504 -0.7958 -1.4954
15914TIP3    H269234   6.298   3.411  12.559 -0.2051 -0.5750  0.0754
15915TIP3   OH269235   5.057   5.480   5.536  0.3570 -0.2518 -0.2072
15915TIP3    H169236   5.134   5.422   5.533  0.0553 -0.6224 -1.2581
15915TIP3    H269237   4.994   5.433   5.590  1.7622  1.2529  3.0483
15916TIP3   OH269238   5.466   0.663  15.691 -0.8348 -0.2858  0.0783
15916TIP3    H169239   5.555   0.656  15.725 -0.8320  0.4274  0.2366
15916TIP3    H269240   5.411   0.665  15.769 -0.8636  0.8730  0.0510
15917TIP3   OH269241   4.954   1.901  12.353 -0.0133 -0.3430  0.8036
15917TIP3    H169242   5.020   1.937  12.412  0.3026 -2.5163  1.8828
15917TIP3    H269243   4.973   1.940  12.268  0.7898  1.3141  1.7011
15918TIP3   OH269244   6.166   0.872  13.395  0.7720 -0.3548  0.1162
15918TIP3    H169245   6.138   0.942  13.336  0.4158 -0.7213 -0.1496
15918TIP3    H269246   6.227   0.915  13.455  1.6034 -0.1131 -0.8864
15919TIP3   OH269247   0.285   4.641   3.795  0.0317 -0.2609  0.1184
15919TIP3    H169248   0.339   4.697   3.851 -0.7708  1.7979 -1.0669
15919TIP3    H269249   0.309   4.665   3.706 -0.6251 -1.5518 -0.4343
15920TIP3   OH269250   3.626   6.136   2.946 -0.4450 -0.1929 -0.6861
15920TIP3    H169251   3.532   6.125   2.929 -0.3974 -1.3423 -0.2749
15920TIP3    H269252   3.659   6.182   2.869 -1.0825 -1.0885 -1.5114
15921TIP3   OH269253   0.548   6.603  16.751  0.1967  0.8795  1.1602
15921TIP3    H169254   0.588   6.542  16.813  3.8991  0.9123 -0.8799
15921TIP3    H269255   0.603   6.681  16.755 -1.4055  2.1205  0.1229
15922TIP3   OH269256   2.229   4.875  15.493  0.4340 -0.0204  0.3172
15922TIP3    H169257   2.199   4.965  15.501 -0.7648 -0.1736 -1.8928
15922TIP3    H269258   2.316   4.882  15.454  0.0204  0.1816 -0.5936
15923TIP3   OH269259   6.508   0.917   2.357  0.2549 -0.1121 -0.2462
15923TIP3    H169260   6.487   1.004   2.323 -0.5037 -1.1307 -2.5459
15923TIP3    H269261   6.423   0.875   2.369  0.5938 -0.4189  1.2853
15924TIP3   OH269262   6.585   0.431  15.434 -0.1318 -0.0496 -0.2429
15924TIP3    H169263   6.497   0.404  15.461 -1.0709 -0.6624 -3.4760
15924TIP3    H269264   6.577   0.525  15.417 -0.1417 -0.0774 -0.3974
15925TIP3   OH269265   1.670   2.247  14.132 -0.2832  0.2167 -0.5288
15925TIP3    H169266   1.729   2.237  14.057  0.8388 -1.7227  0.5377
15925TIP3    H269267   1.634   2.159  14.146 -1.5058  0.8384  0.4092
15926TIP3   OH269268   0.254   6.316   3.704 -0.1187  0.4124  0.2995
15926TIP3    H169269   0.238   6.315   3.798 -0.4701  0.3194  0.2399
15926TIP3    H269270   0.168   6.328   3.665  0.2471  2.6664  0.0447
15927TIP3   OH269271   0.782   1.342  17.186 -0.3988  0.0503 -0.6859
15927TIP3    H169272   0.693   1.370  17.207  0.5683  1.5501  1.7851
15927TIP3    H269273   0.821   1.418  17.144 -0.3076 -0.6890 -1.9943
15928TIP3   OH269274   3.397   6.032  11.180  0.3791 -0.4087 -0.3431
15928TIP3    H169275   3.337   5.958  11.167  0.9967 -0.9880  0.0405
15928TIP3    H269276   3.392   6.082  11.098  0.6751 -1.4131 -0.9895
15929TIP3   OH269277   0.052   4.130  16.349  0.0581 -0.0644 -0.2672
15929TIP3    H169278   0.061   4.165  16.260  0.5329  0.9579  0.1744
15929TIP3    H269279   0.119   4.061  16.354  0.1695  0.0128 -0.6282
15930TIP3   OH269280   6.548   2.794  11.624 -0.0049  0.2555  0.4986
15930TIP3    H169281   6.608   2.720  11.637  1.4035  0.4860 -3.2769
15930TIP3    H269282   6.461   2.756  11.635  0.7102 -0.9337  2.6764
15931TIP3   OH269283   5.124   5.081  16.195  0.9278 -0.0406  0.1513
15931TIP3    H169284   5.126   5.010  16.131 -1.7201 -1.7775  1.8066
15931TIP3    H269285   5.200   5.067  16.250 -0.9436 -3.4423  2.1420
15932TIP3   OH269286   1.416   0.368  12.470 -0.8154  0.5209  0.5654
15932TIP3    H169287   1.508   0.353  12.495 -0.3108  0.2545 -1.2863
15932TIP3    H269288   1.378   0.281  12.463 -1.3552  0.6493  1.7795
15933TIP3   OH269289   4.323   5.951  11.602  0.5102  0.3566  0.0024
15933TIP3    H169290   4.327   5.902  11.520 -1.7716  0.9133 -0.5097
15933TIP3    H269291   4.401   5.922  11.651  0.4047 -2.1656 -1.1441
15934TIP3   OH269292   0.535   0.151   2.897  0.2874  0.2893 -0.6182
15934TIP3    H169293   0.620   0.191   2.876  0.7114  0.1720  0.7794
15934TIP3    H269294   0.476   0.226   2.909  0.1430  0.3681 -1.7351
15935TIP3   OH269295   4.031   5.730  12.999 -0.1281  0.0029 -0.1620
15935TIP3    H169296   4.119   5.730  12.961  0.3956 -0.6450  0.9943
15935TIP3    H269297   3.990   5.650  12.967  0.4196 -0.6951  0.8362
15936TIP3   OH269298   6.220   1.140  13.908 -0.1666 -0.0585  0.2260
15936TIP3    H169299   6.286   1.137  13.977  2.4178  0.9414 -2.0174
15936TIP3    H269300   6.205   1.234  13.893 -2.7687 -0.2325  1.1544
15937TIP3   OH269301   3.436   3.873  12.019  0.1854 -0.3402 -0.1347
15937TIP3    H169302   3.512   3.886  11.963 -0.8240  2.3257 -1.0567
15937TIP3    H269303   3.361   3.874  11.959 -0.9361  2.7073  1.1205
15938TIP3   OH269304   0.304   3.298  16.593 -0.4103  0.0556 -0.0239
15938TIP3    H169305   0.259   3.272  16.673 -0.3504 -0.4306 -0.1449
15938TIP3    H269306   0.395   3.272  16.606 -0.2739  0.5338 -0.0036
15939TIP3   OH269307   0.291   3.831  17.019 -0.3041  0.2980  0.2352
15939TIP3    H169308   0.216   3.829  17.079  0.8749  0.6678  1.7938
15939TIP3    H269309   0.257   3.797  16.937 -1.4550 -2.5278  1.7246
15940TIP3   OH269310   5.838   4.077  16.139 -0.0180 -0.0033  0.4543
15940TIP3    H169311   5.854   3.995  16.092 -0.2057 -0.7703  1.6804
15940TIP3    H269312   5.768   4.119  16.089  1.7430  0.6367 -1.6176
15941TIP3   OH269313   2.528   3.352   1.192 -0.3387 -0.1578  0.0221
15941TIP3    H169314   2.528   3.438   1.151  1.4068  0.0376  0.3639
15941TIP3    H269315   2.614   3.316   1.173 -0.7719 -1.5330  0.5188
15942TIP3   OH269316   6.273   1.335  13.467  0.3478 -0.0003 -0.7133
15942TIP3    H169317   6.327   1.268  13.426  0.6228 -1.2707  1.5602
15942TIP3    H269318   6.329   1.373  13.535 -0.1852  1.8075 -1.2130
15943TIP3   OH269319   0.826   6.268  15.243 -0.5324 -0.1288  0.4677
15943TIP3    H169320   0.759   6.295  15.306 -2.1547 -0.0708 -1.2068
15943TIP3    H269321   0.789   6.288  15.157  0.0516 -3.3818 -0.7165
15944TIP3   OH269322   6.529   3.954  12.898 -0.0949 -0.4087  0.2651
15944TIP3    H169323   6.606   3.989  12.941  0.1456  3.1445 -2.5870
15944TIP3    H269324   6.460   3.957  12.965  0.9999  1.5620  1.3846
15945TIP3   OH269325   4.205   3.074   0.948 -0.4128  0.1666  0.1159
15945TIP3    H169326   4.202   3.166   0.920 -2.3124  0.1384  0.1216
15945TIP3    H269327   4.161   3.073   1.032 -4.9360 -1.3626 -1.9585
15946TIP3   OH269328   0.490   1.585   3.359 -0.2879 -0.4886 -0.1396
15946TIP3    H169329   0.568   1.632   3.332  1.0010 -1.8735  0.9863
15946TIP3    H269330   0.446   1.643   3.420  0.7764 -0.3419  0.5092
15947TIP3   OH269331   2.679   0.442   1.063 -0.6141  0.3432  0.8201
15947TIP3    H169332   2.722   0.357   1.059  0.0092  0.6583  0.6397
15947TIP3    H269333   2.589   0.425   1.034  0.0104  0.0812 -1.0994
15948TIP3   OH269334   5.388   4.886   1.519  0.1163 -0.8116  0.1433
15948TIP3    H169335   5.374   4.791   1.521  0.1378 -0.8224 -0.1161
15948TIP3    H269336   5.397   4.911   1.611  1.2809 -1.2339  0.1649
15949TIP3   OH269337   6.325   2.955   5.953 -0.7925  0.1515 -0.1775
15949TIP3    H169338   6.393   2.895   5.922  0.8233  0.6723  2.0700
15949TIP3    H269339   6.287   2.912   6.030 -0.9650  1.1235  0.3085
15950TIP3   OH269340   5.714   1.455  11.729 -0.0255  0.6089 -0.5507
15950TIP3    H169341   5.705   1.550  11.733 -0.8796  0.5175  2.6678
15950TIP3    H269342   5.755   1.431  11.813 -0.9563 -1.9231 -0.7149
15951TIP3   OH269343   5.812   1.955  15.574 -0.0050 -0.4827 -0.1778
15951TIP3    H169344   5.867   2.025  15.610 -0.3595 -0.0650 -0.4381
15951TIP3    H269345   5.757   1.999  15.509 -1.5871 -0.6476  1.0078
15952TIP3   OH269346   0.290   0.826  14.189  0.0821  0.2551  0.2927
15952TIP3    H169347   0.376   0.826  14.148 -1.2610  1.5478 -2.8482
15952TIP3    H269348   0.282   0.740  14.229  2.3784 -0.3100 -0.3238
15953TIP3   OH269349   2.783   6.484   4.872  0.6855  0.3890 -0.0489
15953TIP3    H169350   2.855   6.502   4.933  0.2974  0.4798  0.3832
15953TIP3    H269351   2.817   6.512   4.786  1.5649 -0.5659 -0.0295
15954TIP3   OH269352   0.218   0.713  15.230  0.4216  0.4759  0.2286
15954TIP3    H169353   0.155   0.691  15.299  0.0983  0.9156  0.0806
15954TIP3    H269354   0.298   0.665  15.253  0.3168  0.6297  0.9129
15955TIP3   OH269355   4.572   4.370   4.846  0.3798 -0.4397  0.1689
15955TIP3    H169356   4.589   4.460   4.819 -0.2322 -0.3510  0.0635
15955TIP3    H269357   4.658   4.328   4.845  0.4243 -0.3703 -1.6192
15956TIP3   OH269358   3.163   5.784  13.742 -0.5256  0.0062  0.0375
15956TIP3    H169359   3.148   5.825  13.827 -0.3056  1.0046 -0.3922
15956TIP3    H269360   3.112   5.836  13.681  0.8656  0.5273 -0.7288
15957TIP3   OH269361   2.408   3.719   2.191  0.2997 -0.0423  0.0973
15957TIP3    H169362   2.395   3.645   2.250  0.6702 -1.5167 -1.5734
15957TIP3    H269363   2.353   3.698   2.115  1.4998  0.6949 -0.9968
15958TIP3   OH269364   0.730   4.095   0.899  0.6294  0.2835 -0.2912
15958TIP3    H169365   0.814   4.141   0.896 -0.1054  1.6028 -2.2052
15958TIP3    H269366   0.693   4.119   0.984  2.3057 -0.6157  0.7453
15959TIP3   OH269367   1.183   1.184  13.399 -0.3708 -0.3527  0.1212
15959TIP3    H169368   1.114   1.235  13.358 -1.5863 -1.6715  0.4148
15959TIP3    H269369   1.243   1.162  13.328 -0.6412  0.1912 -0.2809
15960TIP3   OH269370   6.287   2.652   3.639 -0.4431 -0.3194 -0.0758
15960TIP3    H169371   6.348   2.582   3.617  0.5982  0.4253  0.3539
15960TIP3    H269372   6.342   2.719   3.680 -1.6223  0.1741  0.7522
15961TIP3   OH269373   3.587   3.762  12.327 -0.1483  0.5068  0.3495
15961TIP3    H169374   3.609   3.693  12.264  2.4475  1.7231 -0.1721
15961TIP3    H269375   3.529   3.820  12.280 -0.4008 -0.0240 -0.0040
15962TIP3   OH269376   0.232   6.651   1.895  0.1308  0.3487 -0.0580
15962TIP3    H169377   0.170   6.602   1.841 -0.2370 -1.2007  1.6735
15962TIP3    H269378   0.197   6.741   1.896 -0.0299  0.3520 -2.0397
15963TIP3   OH269379   5.416   5.455   5.819 -0.1734 -0.2474 -0.3508
15963TIP3    H169380   5.369   5.378   5.852 -0.1644 -0.3466 -0.5667
15963TIP3    H269381   5.347   5.518   5.798 -0.1488  0.0603  0.4596
15964TIP3   OH269382   2.453   5.956  14.363  0.0364  0.2233  0.5989
15964TIP3    H169383   2.379   5.913  14.321 -0.5200  1.4857  0.2399
15964TIP3    H269384   2.420   5.983  14.449  1.0018 -1.8563  1.6867
15965TIP3   OH269385   1.399   6.353  13.251  0.0471 -0.1257 -0.2800
15965TIP3    H169386   1.334   6.285  13.272 -1.7768  1.7358  0.4605
15965TIP3    H269387   1.359   6.402  13.179 -0.0932  1.9429  1.1438
15966TIP3   OH269388   1.820   0.913  16.117  0.0482 -0.2122 -0.0586
15966TIP3    H169389   1.883   0.863  16.064  0.9652  1.9452 -1.1082
15966TIP3    H269390   1.875   0.975  16.166 -1.0215 -0.4526  1.5146
15967TIP3   OH269391   4.735   4.325   6.162 -0.1186  0.1619 -0.2398
15967TIP3    H169392   4.784   4.343   6.242  0.7263 -1.2546 -0.4000
15967TIP3    H269393   4.759   4.396   6.103  1.8368 -0.5068 -0.3286
15968TIP3   OH269394   6.597   4.179  11.861  0.4161  0.5129 -0.0550
15968TIP3    H169395   6.575   4.147  11.773  1.1760 -1.1133  0.3089
15968TIP3    H269396   6.532   4.247  11.878 -0.0151  0.5578 -1.7031
15969TIP3   OH269397   1.291   2.589   2.837  0.5812 -0.0633 -0.0169
15969TIP3    H169398   1.311   2.670   2.884  0.1463  0.2692 -0.3935
15969TIP3    H269399   1.207   2.561   2.871  0.1708  0.2828 -0.7140
15970TIP3   OH269400   4.864   4.487   0.197  0.0326 -0.4094  0.5448
15970TIP3    H169401   4.900   4.473   0.284  1.1247 -1.8962 -0.1112
15970TIP3    H269402   4.894   4.412   0.146  0.8001  1.2215 -1.5504
15971TIP3   OH269403   2.172   3.722   6.311  0.1278 -0.6689  0.7553
15971TIP3    H169404   2.115   3.661   6.263  1.4039 -1.8398  0.6787
15971TIP3    H269405   2.254   3.675   6.322  1.2914  1.1649  0.4133
15972TIP3   OH269406   4.507   3.597  12.168 -0.2514 -0.4731  0.1156
15972TIP3    H169407   4.491   3.550  12.250  2.1925  0.6395  1.3477
15972TIP3    H269408   4.577   3.548  12.125 -0.1214  0.0749 -0.3115
15973TIP3   OH269409   4.822   1.158   1.028 -0.3283  0.2406  0.0903
15973TIP3    H169410   4.781   1.079   0.994 -0.5064  0.3325  0.0908
15973TIP3    H269411   4.812   1.223   0.958  0.6045  0.0106 -0.2709
15974TIP3   OH269412   3.628   3.785  13.764  0.5894 -0.0473 -0.7276
15974TIP3    H169413   3.566   3.718  13.735 -1.2694  1.8624 -1.4221
15974TIP3    H269414   3.640   3.841  13.688  0.8689  1.2976  0.2656
15975TIP3   OH269415   1.636   4.013  15.403 -0.3865 -0.2996  0.6576
15975TIP3    H169416   1.549   3.995  15.439 -0.5732  1.2502  1.0317
15975TIP3    H269417   1.694   3.952  15.449 -1.1521 -0.7815  1.0005
15976TIP3   OH269418   6.535   0.812  10.989  0.0969  0.0295 -0.4578
15976TIP3    H169419   6.460   0.866  10.963 -0.8397 -0.2413  1.4844
15976TIP3    H269420   6.519   0.727  10.950 -0.0478  0.2704 -0.9275
15977TIP3   OH269421   6.224   5.766  16.873 -0.1648  0.2784  0.1007
15977TIP3    H169422   6.285   5.771  16.800  0.5160  0.3118  0.6657
15977TIP3    H269423   6.273   5.726  16.944 -0.5893  0.8948  0.7684
15978TIP3   OH269424   3.524   2.305   6.158  0.1306  0.3551  0.5411
15978TIP3    H169425   3.515   2.399   6.173 -0.3931  0.5594 -0.8768
15978TIP3    H269426   3.440   2.279   6.120  0.7433 -0.4057 -0.3381
15979TIP3   OH269427   1.730   5.903  15.665  0.5618 -0.4429  0.1273
15979TIP3    H169428   1.795   5.954  15.617  0.7910  0.8055  1.7009
15979TIP3    H269429   1.669   5.873  15.598  1.4953  0.2764 -1.0848
15980TIP3   OH269430   6.333   3.452   2.016 -0.1311 -0.6063 -0.5344
15980TIP3    H169431   6.323   3.412   2.102 -0.3905 -1.2959 -0.8680
15980TIP3    H269432   6.365   3.380   1.961 -2.0805 -0.8045 -1.5046
15981TIP3   OH269433   5.435   1.965  13.883 -0.4253 -0.5800 -0.6026
15981TIP3    H169434   5.413   1.950  13.791 -1.0774  0.3190 -0.6079
15981TIP3    H269435   5.525   1.999  13.881 -0.3922 -0.6845 -0.9035
15982TIP3   OH269436   3.253   1.885  11.915 -0.7860  0.6925 -0.3309
15982TIP3    H169437   3.173   1.853  11.874 -2.2361  0.7199  2.2622
15982TIP3    H269438   3.225   1.916  12.002  1.5892  3.1499 -0.2948
15983TIP3   OH269439   2.364   4.534   1.067 -0.7455  0.5197  0.0071
15983TIP3    H169440   2.443   4.569   1.108 -0.4818  1.1187 -0.9793
15983TIP3    H269441   2.388   4.443   1.045 -0.6328  0.4301  0.4983
15984TIP3   OH269442   3.395   5.786   4.732  0.3732  0.2619 -0.1988
15984TIP3    H169443   3.347   5.813   4.810  2.2511  1.0056  0.7813
15984TIP3    H269444   3.366   5.847   4.664 -1.0256 -0.1714 -0.0189
15985TIP3   OH269445   2.723   0.446  14.662  0.2034 -0.3702 -0.1945
15985TIP3    H169446   2.759   0.459  14.750  0.1190  4.2117 -0.5813
15985TIP3    H269447   2.799   0.424  14.608  0.7870 -0.2098  0.5382
15986TIP3   OH269448   0.669   6.506   0.576  0.4300 -0.1664  0.5544
15986TIP3    H169449   0.722   6.427   0.569 -0.7681 -0.9243 -0.3103
15986TIP3    H269450   0.647   6.529   0.485 -0.7166  0.1021  0.8764
15987TIP3   OH269451   3.567   3.743   0.377  0.3624 -0.1611  0.3600
15987TIP3    H169452   3.581   3.824   0.328  0.8172  0.0971  0.9015
15987TIP3    H269453   3.512   3.770   0.451 -0.8614 -0.6675 -0.3405
15988TIP3   OH269454   4.640   5.967   6.633  0.6537 -0.0637 -0.0928
15988TIP3    H169455   4.618   5.979   6.725  0.6046  0.5544 -0.1756
15988TIP3    H269456   4.675   5.878   6.627  1.2225  0.1030  0.6243
15989TIP3   OH269457   4.572   3.194   4.871  0.0295  0.3755  0.0869
15989TIP3    H169458   4.604   3.216   4.783 -1.7522  0.2104 -0.6428
15989TIP3    H269459   4.647   3.210   4.928  1.8350 -1.2553 -1.6659
15990TIP3   OH269460   3.868   1.305  12.610  0.2480  0.2906  0.0315
15990TIP3    H169461   3.777   1.334  12.618 -0.0297 -0.5525  0.0851
15990TIP3    H269462   3.885   1.256  12.691  0.8156  0.6170  0.1143
15991TIP3   OH269463   0.595   0.098   5.213  0.0456 -0.6233 -0.2918
15991TIP3    H169464   0.525   0.035   5.232  1.2729 -2.9619 -2.7882
15991TIP3    H269465   0.561   0.181   5.246 -2.5210 -2.1951  1.4462
15992TIP3   OH269466   3.808   1.919   0.105  0.4960 -0.9557  0.2736
15992TIP3    H169467   3.887   1.876   0.139  1.6548  0.5933 -0.3223
15992TIP3    H269468   3.822   1.923   0.010 -0.6492 -1.2839  0.0745
15993TIP3   OH269469   0.417   4.825   4.025 -0.1025 -0.1692 -0.0999
15993TIP3    H169470   0.432   4.919   4.035  1.0422 -0.2576 -0.7903
15993TIP3    H269471   0.471   4.785   4.093 -0.5979 -0.3394  0.2008
15994TIP3   OH269472   3.512   2.083  16.024  0.4098  0.2259 -0.3767
15994TIP3    H169473   3.416   2.085  16.017  0.2037 -1.4929  1.1999
15994TIP3    H269474   3.536   2.173  16.045 -0.7708  0.8258 -1.4038
15995TIP3   OH269475   0.348   4.432   1.655  0.0375 -0.3327 -0.2465
15995TIP3    H169476   0.333   4.414   1.748 -2.0706 -2.7238 -0.9432
15995TIP3    H269477   0.432   4.479   1.653  0.0814 -0.0874  2.8338
15996TIP3   OH269478   6.560   1.599   1.783 -0.2143 -0.2150 -0.1592
15996TIP3    H169479   6.514   1.528   1.739  0.5012 -0.5501 -0.3857
15996TIP3    H269480   6.624   1.630   1.719  0.1119  0.0077  0.2625
15997TIP3   OH269481   3.712   3.210  15.444  0.3669  0.2486  0.0025
15997TIP3    H169482   3.678   3.293  15.414  2.5293  2.0336  2.0483
15997TIP3    H269483   3.695   3.149  15.372  0.2723  2.8480 -2.3519
15998TIP3   OH269484   4.562   1.241  13.660 -0.0472 -0.0724 -0.2009
15998TIP3    H169485   4.573   1.325  13.704  2.0128  0.2535 -1.2229
15998TIP3    H269486   4.637   1.189  13.688  1.1213 -0.0019 -2.8720
15999TIP3   OH269487   2.107   1.124  16.909  0.0854  0.2151 -0.0694
15999TIP3    H169488   2.188   1.174  16.923  0.6358 -0.5797 -0.3462
15999TIP3    H269489   2.038   1.182  16.940  0.8227  0.6242  0.8810
16000TIP3   OH269490   0.361   1.440   2.088  0.2557  0.7463  0.2579
16000TIP3    H169491   0.420   1.432   2.013 -0.4001 -0.4535 -0.1586
16000TIP3    H269492   0.379   1.527   2.124  3.1288 -0.0003  0.8927
16001TIP3   OH269493   2.039   0.358   6.363 -0.1120  0.5461  0.1572
16001TIP3    H169494   2.006   0.427   6.305  1.2271  0.2020 -1.0693
16001TIP3    H269495   2.121   0.330   6.323 -0.0441 -0.9655  1.2718
16002TIP3   OH269496   4.162   3.846  14.457 -0.3467  0.2194  0.0017
16002TIP3    H169497   4.249   3.820  14.487  0.1485 -0.0016 -1.5208
16002TIP3    H269498   4.174   3.865  14.364 -1.7411  1.1002 -0.0248
16003TIP3   OH269499   0.421   1.289   4.750  0.4934  0.0342  0.0171
16003TIP3    H169500   0.434   1.280   4.656 -0.3476 -0.1324 -0.0941
16003TIP3    H269501   0.509   1.303   4.786  0.8161  0.1037 -0.7886
16004TIP3   OH269502   3.137   5.082  13.229 -0.6752  0.3321  0.1806
16004TIP3    H169503   3.195   5.130  13.289  3.5823 -2.0804 -1.5340
16004TIP3    H269504   3.129   5.138  13.153 -0.6138  0.7136  0.4548
16005TIP3   OH269505   5.902   3.147   0.352  1.2161  0.6527  0.2334
16005TIP3    H169506   5.952   3.073   0.318  0.1783 -0.6237  1.3399
16005TIP3    H269507   5.904   3.135   0.447 -2.3674 -0.3871  0.3257
16006TIP3   OH269508   2.425   0.619   1.712  0.2840  0.0014 -0.3045
16006TIP3    H169509   2.467   0.697   1.749  0.3295  0.3311 -1.0309
16006TIP3    H269510   2.436   0.552   1.779  2.3570 -0.0487 -0.6532
16007TIP3   OH269511   2.366   4.621  16.523 -0.4484  0.6384 -0.0696
16007TIP3    H169512   2.357   4.568  16.602  1.4267  1.4329  0.7131
16007TIP3    H269513   2.305   4.694  16.535 -0.3491  0.6239  0.5278
16008TIP3   OH269514   3.463   4.114   5.863  0.2653  0.1258 -0.7866
16008TIP3    H169515   3.371   4.137   5.878  0.0357 -0.3667 -1.4078
16008TIP3    H269516   3.510   4.196   5.875 -0.1622  0.2407  0.2799
16009TIP3   OH269517   1.012   5.898  16.582 -0.1886  0.4360  0.4063
16009TIP3    H169518   1.041   5.815  16.545  0.0162  0.2094  1.0650
16009TIP3    H269519   1.083   5.959  16.563 -0.4750  0.5495 -0.3545
16010TIP3   OH269520   5.064   2.225  14.372 -0.1374  0.2580 -0.3698
16010TIP3    H169521   4.986   2.195  14.418 -0.1543  0.1409 -0.4763
16010TIP3    H269522   5.130   2.158  14.390 -0.5688 -0.5738 -1.7659
16011TIP3   OH269523   5.435   2.182  10.750 -0.0459  0.4972 -0.9040
16011TIP3    H169524   5.512   2.180  10.693  0.4230 -0.9622 -0.2701
16011TIP3    H269525   5.468   2.213  10.834 -0.2172  0.2535 -0.7446
16012TIP3   OH269526   3.077   0.630   3.481  0.7070  0.4090 -0.0049
16012TIP3    H169527   3.133   0.646   3.556  1.1634  0.8554 -0.4353
16012TIP3    H269528   3.072   0.715   3.436  0.3569  0.1738 -0.4195
16013TIP3   OH269529   1.123   5.234   2.609 -0.0252  0.4774  0.0200
16013TIP3    H169530   1.045   5.212   2.659  0.0014  0.5751  0.1044
16013TIP3    H269531   1.152   5.317   2.645  0.2978  0.2868  0.1986
16014TIP3   OH269532   4.875   3.343  16.724  0.3877  0.5026  0.0071
16014TIP3    H169533   4.916   3.366  16.808  0.8908 -0.7511  0.1266
16014TIP3    H269534   4.853   3.250  16.733 -1.6270  0.8835 -0.4139
16015TIP3   OH269535   5.538   3.579  16.596  0.4173 -0.1402 -0.4349
16015TIP3    H169536   5.447   3.589  16.623  0.7649 -0.0976  0.7487
16015TIP3    H269537   5.590   3.606  16.672  1.4172 -0.9229 -0.8074
16016TIP3   OH269538   2.016   1.802  16.358  0.8816 -0.4632  0.1874
16016TIP3    H169539   2.049   1.884  16.394  2.7587 -0.7664 -0.7066
16016TIP3    H269540   2.095   1.753  16.335 -0.2033 -1.6407 -1.2389
16017TIP3   OH269541   0.591   0.728   2.155 -0.2123  0.5193  0.1635
16017TIP3    H169542   0.648   0.779   2.213  1.0365  0.1772 -0.7100
16017TIP3    H269543   0.577   0.646   2.201 -0.0205  0.6224  0.4056
16018TIP3   OH269544   6.730   3.386   2.585 -0.1584 -0.6649  0.6875
16018TIP3    H169545   6.763   3.441   2.656 -0.2622  0.4620 -0.0983
16018TIP3    H269546   6.807   3.341   2.550  0.2313  0.3172  0.2373
16019TIP3   OH269547   6.504   1.999  14.397  0.0592  0.2433  0.4641
16019TIP3    H169548   6.410   1.990  14.410 -0.0951  0.4373 -0.4190
16019TIP3    H269549   6.541   1.914  14.421 -0.5332 -0.3858 -0.7714
16020TIP3   OH269550   0.098   2.768  13.602  0.2421  0.4476  0.5107
16020TIP3    H169551   0.006   2.786  13.580  0.2777  0.9390  0.7427
16020TIP3    H269552   0.126   2.705  13.536  0.2378  1.6288 -0.6747
16021TIP3   OH269553   4.006   5.077   0.825 -0.2760 -0.1336  0.3379
16021TIP3    H169554   3.921   5.081   0.870 -1.0548 -0.0601 -1.0726
16021TIP3    H269555   4.039   4.989   0.844 -0.3231  0.0719  1.4614
16022TIP3   OH269556   1.233   1.330   2.297 -0.1913  0.1943  0.0514
16022TIP3    H169557   1.282   1.411   2.282  0.9835 -0.3299  0.8827
16022TIP3    H269558   1.237   1.284   2.213 -2.7849  1.9274 -1.1319
16023TIP3   OH269559   5.725   1.926   6.032 -0.6576 -0.7969  0.2009
16023TIP3    H169560   5.672   1.946   6.110 -0.9863  2.6327 -0.7571
16023TIP3    H269561   5.661   1.911   5.963 -0.3427 -2.1019  0.1635
16024TIP3   OH269562   2.851   5.991   5.245  0.3328 -0.0267 -0.1502
16024TIP3    H169563   2.822   6.047   5.173 -0.4762  0.7731  0.7673
16024TIP3    H269564   2.929   6.036   5.279 -0.3296  0.5805  0.6004
16025TIP3   OH269565   4.326   1.947  16.191 -0.0534  0.1646 -0.1294
16025TIP3    H169566   4.295   1.985  16.273  1.3473 -0.3272  0.6692
16025TIP3    H269567   4.246   1.928  16.142 -0.9875 -0.4960  1.5608
16026TIP3   OH269568   4.652   1.910  15.183 -0.4190  0.3956  0.6910
16026TIP3    H169569   4.589   1.964  15.232 -0.2550  0.9166  0.3333
16026TIP3    H269570   4.602   1.874  15.110 -1.0886 -1.6914  2.0893
16027TIP3   OH269571   4.730   2.773   4.747 -0.1625  0.0337  0.3441
16027TIP3    H169572   4.718   2.865   4.725 -1.6919 -0.3092 -0.3570
16027TIP3    H269573   4.789   2.739   4.680 -0.5596  0.2388 -0.1182
16028TIP3   OH269574   3.867   5.612   5.735 -0.5333  0.3793  0.5027
16028TIP3    H169575   3.924   5.556   5.682 -0.1677 -0.3235  1.5890
16028TIP3    H269576   3.927   5.667   5.786 -0.8283  0.1420  1.1245
16029TIP3   OH269577   4.721   4.534   1.892  1.1238  0.1955 -0.2923
16029TIP3    H169578   4.714   4.448   1.933  0.9793  0.2624 -0.1766
16029TIP3    H269579   4.709   4.516   1.798 -0.7280  0.2952 -0.1086
16030TIP3   OH269580   4.136   3.575   0.025  0.4736 -0.1491  0.0149
16030TIP3    H169581   4.048   3.555   0.057  0.1047 -1.1797 -1.4963
16030TIP3    H269582   4.147   3.669   0.039 -1.1528  0.1326 -0.4124
16031TIP3   OH269583   0.744   4.821   3.950  0.4122 -0.3818 -0.1253
16031TIP3    H169584   0.664   4.871   3.934  0.6260  0.4939  1.3736
16031TIP3    H269585   0.815   4.883   3.935  0.8328 -1.0734 -1.1464
16032TIP3   OH269586   1.331   2.059   4.836  0.3224  0.7814 -0.3885
16032TIP3    H169587   1.385   2.090   4.909  2.1169  1.2352 -1.8323
16032TIP3    H269588   1.306   2.139   4.789  0.7172  0.4101 -1.2616
16033TIP3   OH269589   5.794   6.753   2.602  0.4547  0.0794 -0.4061
16033TIP3    H169590   5.729   6.821   2.586 -0.4245 -0.6561 -0.0705
16033TIP3    H269591   5.824   6.727   2.514  0.5994  0.7052 -0.5423
16034TIP3   OH269592   4.253   6.532  14.791 -0.3049  0.8478 -0.0882
16034TIP3    H169593   4.208   6.604  14.835  0.1084  0.7954  0.4430
16034TIP3    H269594   4.260   6.464  14.859  1.2186  1.1370  0.0801
16035TIP3   OH269595   3.240   6.041   1.432  0.5361  0.1254  0.1390
16035TIP3    H169596   3.181   5.987   1.380  1.6794  1.0695 -2.2822
16035TIP3    H269597   3.285   5.979   1.489  2.0542 -1.6680 -2.7643
16036TIP3   OH269598   0.527   4.127  14.596  0.0368 -0.1878 -0.6677
16036TIP3    H169599   0.562   4.137  14.507  0.5456 -0.0281 -0.4519
16036TIP3    H269600   0.536   4.034  14.615 -0.4489 -0.2922 -0.9349
16037TIP3   OH269601   4.499   0.526   6.452 -0.1590  0.2429  0.5718
16037TIP3    H169602   4.567   0.460   6.466 -0.3707  0.1547  1.1845
16037TIP3    H269603   4.416   0.479   6.462 -0.3730  0.0222 -1.5774
16038TIP3   OH269604   0.471   3.049  14.494 -0.7745 -0.3515  0.2569
16038TIP3    H169605   0.559   3.012  14.504 -0.8187 -0.7120 -0.5848
16038TIP3    H269606   0.447   3.078  14.582  0.8383  1.2749  0.2184
16039TIP3   OH269607   4.152   3.083  15.693  1.1268 -0.0289 -0.7200
16039TIP3    H169608   4.078   3.144  15.686  1.0240  0.1187  1.2173
16039TIP3    H269609   4.138   3.021  15.621 -1.9581 -1.0867  0.5690
16040TIP3   OH269610   4.569   6.060   3.157 -0.2530 -0.0236  0.5077
16040TIP3    H169611   4.569   6.107   3.241 -0.4648  0.0408  0.4722
16040TIP3    H269612   4.596   6.126   3.093  1.6227 -0.4908  0.7490
16041TIP3   OH269613   0.810   5.317  12.493 -0.0419 -0.0193  0.6788
16041TIP3    H169614   0.779   5.291  12.406 -0.7493 -1.4736  1.3411
16041TIP3    H269615   0.745   5.380  12.523 -0.1571 -0.0151  0.4301
16042TIP3   OH269616   0.664   0.695  14.356  0.3546 -0.0272 -0.0162
16042TIP3    H169617   0.745   0.675  14.404  0.2144 -1.1038 -0.2059
16042TIP3    H269618   0.673   0.646  14.274 -0.7947 -0.7172  0.2582
16043TIP3   OH269619   2.310   1.948  11.917  0.2485  0.2919 -0.1828
16043TIP3    H169620   2.347   1.973  11.832 -1.2151 -1.6285 -1.4798
16043TIP3    H269621   2.223   1.988  11.917 -0.0054 -0.2454  0.0879
16044TIP3   OH269622   2.720   5.080   2.529  0.0168 -0.3253  0.0362
16044TIP3    H169623   2.801   5.060   2.576 -0.5160  2.1584  2.2179
16044TIP3    H269624   2.651   5.074   2.595 -1.0147  1.6185 -0.7837
16045TIP3   OH269625   6.010   6.543   0.288  0.0470  0.1126 -0.2089
16045TIP3    H169626   6.097   6.552   0.327  1.4914  0.0643 -3.1548
16045TIP3    H269627   5.967   6.627   0.306  0.9337  0.3912  0.7080
16046TIP3   OH269628   0.320   5.197   1.498  0.4851  0.4472 -0.2041
16046TIP3    H169629   0.338   5.189   1.404  0.3276  2.7667 -0.5006
16046TIP3    H269630   0.224   5.202   1.503  0.4347 -0.6508  0.2139
16047TIP3   OH269631   2.313   3.661   4.013 -0.2978  0.1179 -0.1509
16047TIP3    H169632   2.272   3.579   3.985 -2.1740  0.9845 -0.1149
16047TIP3    H269633   2.261   3.729   3.971 -0.7137  1.3557  2.2242
16048TIP3   OH269634   6.132   0.186   0.556  0.0145  0.1637  0.0011
16048TIP3    H169635   6.210   0.185   0.612  0.7122  0.4794 -0.9355
16048TIP3    H269636   6.164   0.216   0.471 -0.7851 -1.3936 -0.9021
16049TIP3   OH269637   3.345   1.236   2.076 -0.1746  0.1718 -0.0082
16049TIP3    H169638   3.386   1.250   2.162 -1.4626 -1.7014  0.9979
16049TIP3    H269639   3.255   1.265   2.087 -0.2315  0.3479 -0.8761
16050TIP3   OH269640   4.990   6.537   3.279 -0.5984 -0.0354  0.1129
16050TIP3    H169641   5.033   6.619   3.255  0.2598 -0.6900 -0.6811
16050TIP3    H269642   5.000   6.481   3.202 -1.4480 -0.7786  0.5206
16051TIP3   OH269643   5.942   2.858   2.248  0.0299 -0.1077  0.4593
16051TIP3    H169644   6.003   2.784   2.241 -1.6766 -1.5731  0.2951
16051TIP3    H269645   5.959   2.895   2.334  0.1701 -1.4223  1.0233
16052TIP3   OH269646   4.848   6.491   3.498 -0.4350  0.2714  0.2573
16052TIP3    H169647   4.883   6.494   3.409 -0.6439 -0.6624  0.1336
16052TIP3    H269648   4.920   6.522   3.553 -0.4880  1.4058 -0.2669
16053TIP3   OH269649   4.083   4.007   5.194  0.1177  0.3841 -0.0900
16053TIP3    H169650   4.154   3.946   5.214 -0.0055 -0.3565 -1.7804
16053TIP3    H269651   4.128   4.091   5.181  0.2623  0.7897  2.4843
16054TIP3   OH269652   3.531   4.173   1.176 -0.1043 -0.6212 -0.3424
16054TIP3    H169653   3.556   4.237   1.243 -2.0936 -1.6863  1.5511
16054TIP3    H269654   3.497   4.226   1.104  1.4583  0.5390 -0.2759
16055TIP3   OH269655   0.598   2.366   3.990 -0.3765  0.3787  0.2308
16055TIP3    H169656   0.658   2.412   4.049 -0.4619  0.9011 -0.0797
16055TIP3    H269657   0.617   2.273   4.003  1.3302  0.5609 -0.7367
16056TIP3   OH269658   3.337   6.121   0.941 -0.2927  0.3521  0.3443
16056TIP3    H169659   3.371   6.059   1.004  0.7002  0.9449  0.4152
16056TIP3    H269660   3.261   6.077   0.902  0.2611 -0.8064  0.5336
16057TIP3   OH269661   2.572   4.471  16.835 -0.0869 -0.7913  0.7875
16057TIP3    H169662   2.648   4.413  16.832 -0.2136 -0.9356 -0.7953
16057TIP3    H269663   2.609   4.559  16.829 -0.0167 -0.8403  0.4838
16058TIP3   OH269664   6.701   2.791   0.968 -0.1045 -0.8734  0.8914
16058TIP3    H169665   6.673   2.813   1.056 -0.3767  0.9607  0.3949
16058TIP3    H269666   6.628   2.741   0.931 -1.4213  1.1208  0.6734
16059TIP3   OH269667   5.498   6.616   3.557  0.4901  1.1262 -0.2552
16059TIP3    H169668   5.577   6.622   3.503  0.2843 -0.2293 -0.7563
16059TIP3    H269669   5.451   6.540   3.522 -1.3311  2.2430 -0.3450
16060TIP3   OH269670   4.480   3.477   0.106 -0.1245 -0.4120  0.1637
16060TIP3    H169671   4.407   3.425   0.142  0.1375 -0.5534  0.4986
16060TIP3    H269672   4.534   3.497   0.182 -0.5532  0.8986  0.1457
16061TIP3   OH269673   3.750   1.603  16.483  0.1498  0.4410 -0.1354
16061TIP3    H169674   3.775   1.676  16.539 -0.9023  0.4728  0.3161
16061TIP3    H269675   3.712   1.644  16.405 -0.2262  0.3805  0.0162
16062TIP3   OH269676   6.763   0.010  11.985  0.4046 -0.7378  0.0397
16062TIP3    H169677   6.703   0.042  11.918  0.5602 -1.7251 -0.5923
16062TIP3    H269678   6.850   0.015  11.944  0.5970 -0.6007  0.4558
16063TIP3   OH269679   0.765   5.910  10.529  1.0946 -0.4855  0.1141
16063TIP3    H169680   0.799   5.996  10.555  3.0734 -1.0434 -0.4806
16063TIP3    H269681   0.800   5.896  10.441 -1.1310 -0.9314 -0.7776
16064TIP3   OH269682   4.299   2.723   3.656 -0.0340 -0.6072 -0.0950
16064TIP3    H169683   4.290   2.805   3.704  3.3888 -1.1107  1.6684
16064TIP3    H269684   4.324   2.750   3.567 -0.5309  0.2484  0.0118
16065TIP3   OH269685   4.506   6.631  11.948 -0.0083  0.0434 -0.0088
16065TIP3    H169686   4.427   6.579  11.963 -0.8204  1.3625  0.5934
16065TIP3    H269687   4.549   6.633  12.034  1.3125 -1.5942 -0.5908
16066TIP3   OH269688   0.415   0.388   4.503  0.3471  0.5851  0.1307
16066TIP3    H169689   0.334   0.359   4.545  0.5982  1.1079  0.9897
16066TIP3    H269690   0.403   0.365   4.411 -0.8515  0.7944  0.2119
16067TIP3   OH269691   0.383   4.959  14.715 -0.3434 -0.5767 -0.3815
16067TIP3    H169692   0.325   5.001  14.778 -0.9642 -0.7878 -0.8038
16067TIP3    H269693   0.372   5.010  14.635  0.4485 -0.3031 -0.3229
16068TIP3   OH269694   4.752   0.638   2.877 -0.7682 -0.4750 -0.5124
16068TIP3    H169695   4.813   0.574   2.913  1.5214  0.9459 -1.6085
16068TIP3    H269696   4.706   0.672   2.953 -0.8544 -2.2251  0.2611
16069TIP3   OH269697   6.402   3.927   2.198 -0.4327  0.2543 -0.0767
16069TIP3    H169698   6.473   3.973   2.154  0.2861 -1.2345 -0.5423
16069TIP3    H269699   6.377   3.856   2.138 -0.5314 -0.8309  1.1846
16070TIP3   OH269700   3.234   4.041   3.414 -0.0345  0.1542 -0.2569
16070TIP3    H169701   3.178   4.102   3.462 -2.0913  0.5320 -2.9121
16070TIP3    H269702   3.286   4.097   3.355  0.9362 -0.4224  0.0293
16071TIP3   OH269703   3.073   3.951  16.974 -0.0665  0.5448  0.4536
16071TIP3    H169704   3.120   4.021  17.021  1.5037 -0.4094  0.3723
16071TIP3    H269705   3.080   3.876  17.033 -0.1657 -0.0200 -0.2583
16072TIP3   OH269706   0.607   1.691  13.125  0.8182 -0.0739  0.0423
16072TIP3    H169707   0.564   1.612  13.160  1.6058 -0.6567 -0.2732
16072TIP3    H269708   0.538   1.734  13.073  1.1455 -2.2027 -2.3729
16073TIP3   OH269709   5.526   3.854   0.772 -0.3071  0.0874  0.2929
16073TIP3    H169710   5.440   3.844   0.812 -0.7185  0.7008 -0.4170
16073TIP3    H269711   5.525   3.942   0.735  0.4804 -0.0512 -0.0778
16074TIP3   OH269712   6.609   0.581  10.847 -0.3682  0.2679  0.2494
16074TIP3    H169713   6.650   0.554  10.765 -2.8703 -3.3466 -0.0357
16074TIP3    H269714   6.658   0.535  10.915 -1.8691 -1.5937  0.1559
16075TIP3   OH269715   1.695   2.144  16.887 -0.4293  0.1960  0.2996
16075TIP3    H169716   1.752   2.220  16.896  0.4454 -0.5862  1.5751
16075TIP3    H269717   1.653   2.135  16.973 -1.6502  0.0947 -0.2824
16076TIP3   OH269718   3.808   0.588   5.396 -0.2232 -0.3436 -0.2015
16076TIP3    H169719   3.758   0.600   5.314 -2.4006  0.8826  1.1929
16076TIP3    H269720   3.773   0.508   5.434 -0.3165 -0.0858  0.2559
16077TIP3   OH269721   5.654   0.683   2.606 -0.1093 -0.1092 -0.1162
16077TIP3    H169722   5.735   0.730   2.628 -0.4319 -0.6939  2.8052
16077TIP3    H269723   5.589   0.752   2.592 -0.1408  0.4535  2.2683
16078TIP3   OH269724   4.092   1.413   3.230 -0.1175  0.3220 -0.2007
16078TIP3    H169725   4.011   1.429   3.279  0.3504  3.3354 -0.2289
16078TIP3    H269726   4.162   1.442   3.289  0.7097  0.5937 -1.2779
16079TIP3   OH269727   6.276   2.467  12.107 -0.1072  0.1142 -0.0321
16079TIP3    H169728   6.189   2.440  12.076  0.7133 -0.1427 -2.2859
16079TIP3    H269729   6.288   2.555  12.071  0.7297 -0.0339 -0.1343
16080TIP3   OH269730   1.065   2.464  16.256 -0.5112 -0.7159 -0.3541
16080TIP3    H169731   1.002   2.444  16.187  0.1746 -0.8729 -0.9522
16080TIP3    H269732   1.045   2.400  16.325 -1.1624 -0.5992 -0.4294
16081TIP3   OH269733   0.474   3.706   1.480  0.2388 -0.4858 -0.2326
16081TIP3    H169734   0.450   3.798   1.491  0.0953 -0.7584  2.4299
16081TIP3    H269735   0.391   3.659   1.489  0.5124 -0.9460 -0.0980
16082TIP3   OH269736   0.604   5.593   4.490 -0.2767 -0.3124  0.4049
16082TIP3    H169737   0.627   5.643   4.568  0.2884 -0.5018  0.3686
16082TIP3    H269738   0.542   5.648   4.443 -1.6457 -0.7502  1.6299
16083TIP3   OH269739   5.416   0.604  13.737 -0.3345  0.0108  0.4461
16083TIP3    H169740   5.439   0.681  13.684 -1.2553  0.4846  0.7146
16083TIP3    H269741   5.438   0.530  13.681  0.6677  0.4592  0.2208
16084TIP3   OH269742   5.207   5.894  11.822  0.3686  0.2179  0.3747
16084TIP3    H169743   5.175   5.974  11.782  0.5532  0.5882  0.9511
16084TIP3    H269744   5.149   5.879  11.897 -2.1293 -2.2877 -1.8308
16085TIP3   OH269745   5.653   6.724   4.717  0.5770 -0.6051 -0.0533
16085TIP3    H169746   5.664   6.695   4.808 -1.8079 -2.5155 -0.2820
16085TIP3    H269747   5.732   6.774   4.699  1.4886 -0.7923  2.8264
16086TIP3   OH269748   4.693   3.314   4.643  0.6178  0.4235  0.3435
16086TIP3    H169749   4.691   3.351   4.555  0.3035 -1.7490 -0.6323
16086TIP3    H269750   4.731   3.383   4.697  1.2994  1.6451 -1.5754
16087TIP3   OH269751   2.249   6.730  11.118 -0.3993  0.4841  0.2306
16087TIP3    H169752   2.165   6.743  11.074 -1.4864  0.9369  2.3355
16087TIP3    H269753   2.310   6.787  11.071 -1.4176  0.7185 -0.8475
16088TIP3   OH269754   5.156   0.442   1.574 -0.1735 -0.1099 -1.0056
16088TIP3    H169755   5.173   0.534   1.556  1.7735  0.0429  1.1123
16088TIP3    H269756   5.229   0.395   1.533  0.7140 -0.3185  0.6875
16089TIP3   OH269757   3.862   5.879   2.417 -0.0650 -0.0794 -0.0992
16089TIP3    H169758   3.900   5.895   2.503  1.3100 -1.1479 -0.4860
16089TIP3    H269759   3.847   5.785   2.414 -0.7673  0.0432 -0.7689
16090TIP3   OH269760   3.717   0.314   5.969  0.4897 -0.5177  0.5220
16090TIP3    H169761   3.731   0.236   5.915  1.0940 -0.4914  0.6311
16090TIP3    H269762   3.725   0.388   5.908  0.3709 -0.5224  0.5011
16091TIP3   OH269763   2.628   5.054  16.064  0.0544  0.5401  0.6346
16091TIP3    H169764   2.604   4.966  16.034 -0.6385  0.6378  0.8862
16091TIP3    H269765   2.649   5.042  16.156  1.1662  0.4281  0.3850
16092TIP3   OH269766   0.099   2.835  15.287 -0.0436  0.3336  0.1490
16092TIP3    H169767   0.094   2.816  15.193  1.3001  0.0112  0.1190
16092TIP3    H269768   0.141   2.757  15.324  0.6540  1.0219  0.8236
16093TIP3   OH269769   6.284   2.501  12.378  0.0766  0.0031 -0.2263
16093TIP3    H169770   6.301   2.484  12.286  0.1352  1.0858 -0.4335
16093TIP3    H269771   6.239   2.422  12.409 -1.1243  0.1264 -1.5038
16094TIP3   OH269772   0.037   5.614   5.090 -0.8366 -0.5895  0.2614
16094TIP3    H169773   0.010   5.688   5.036  0.4231 -0.1175  0.2468
16094TIP3    H269774  -0.002   5.538   5.047 -2.1180  0.0452  0.2578
16095TIP3   OH269775   1.263   3.550   3.723 -0.4611  0.4576  0.1714
16095TIP3    H169776   1.286   3.637   3.690  0.3941  0.3928  0.5674
16095TIP3    H269777   1.227   3.566   3.810 -0.0921  0.4035  0.3368
16096TIP3   OH269778   0.613   3.427   2.373 -0.0127  0.4987 -0.1915
16096TIP3    H169779   0.671   3.390   2.440 -0.4637  0.2283  0.0594
16096TIP3    H269780   0.599   3.355   2.311 -0.6137  0.3466  0.1108
16097TIP3   OH269781   6.124   1.342  11.930 -0.1623 -0.4476  0.6966
16097TIP3    H169782   6.052   1.296  11.887 -0.3595 -0.9737  1.5548
16097TIP3    H269783   6.187   1.360  11.861 -0.8099 -0.6014  0.0592
16098TIP3   OH269784   1.660   1.138   3.039 -0.5339 -0.5148 -0.0825
16098TIP3    H169785   1.662   1.054   3.084 -2.0555 -0.8275 -0.5322
16098TIP3    H269786   1.583   1.132   2.982  1.6300 -0.4316 -3.2535
16099TIP3   OH269787   4.030   1.418  11.815  0.0337  0.6015 -0.2170
16099TIP3    H169788   3.949   1.368  11.824 -0.7006  1.9428  1.0816
16099TIP3    H269789   4.005   1.494  11.763  0.6812  0.5839 -0.5616
16100TIP3   OH269790   2.350   0.208   2.803 -0.3472 -0.3317 -0.1545
16100TIP3    H169791   2.314   0.251   2.725 -0.4760  0.0442  0.1132
16100TIP3    H269792   2.287   0.139   2.824 -2.6513  2.2657  2.1757
16101TIP3   OH269793   4.332   6.763  15.941 -0.3277  0.2168  0.2836
16101TIP3    H169794   4.300   6.743  15.853  2.4785  2.7447 -1.5143
16101TIP3    H269795   4.265   6.820  15.979 -0.6624  0.7456 -1.0563
16102TIP3   OH269796   6.416   3.819   4.778 -0.1505 -0.5573  0.0526
16102TIP3    H169797   6.368   3.847   4.856 -2.5306  0.3458 -1.6459
16102TIP3    H269798   6.352   3.820   4.708  2.5424  1.9725 -2.7021
16103TIP3   OH269799   4.932   3.005  13.440 -0.1669 -0.3771  0.1745
16103TIP3    H169800   4.915   3.100  13.436  0.2489 -0.2327  1.5229
16103TIP3    H269801   4.930   2.977  13.348 -2.2672  0.5793 -0.1329
16104TIP3   OH269802   1.087   1.027   0.810 -0.4937 -0.6584 -0.0963
16104TIP3    H169803   1.007   1.041   0.760 -1.2203 -0.0377  1.1937
16104TIP3    H269804   1.114   1.114   0.838 -0.5271 -1.0508  1.2167
16105TIP3   OH269805   0.736   1.546   1.624 -0.4500  0.2325 -0.3399
16105TIP3    H169806   0.642   1.542   1.607 -0.9023 -1.4972  2.0261
16105TIP3    H269807   0.742   1.579   1.714  1.0982 -0.9460  0.0340
16106TIP3   OH269808   4.810   3.379   2.169  0.2420  0.6571  0.5353
16106TIP3    H169809   4.818   3.283   2.172 -1.4201  0.5034  1.7236
16106TIP3    H269810   4.892   3.411   2.206  1.2997 -0.2524 -0.9315
16107TIP3   OH269811   3.540   1.117  13.335  0.1857  0.0396  0.0453
16107TIP3    H169812   3.453   1.108  13.375  0.0482  1.4049  0.1051
16107TIP3    H269813   3.527   1.182  13.265  1.0515 -0.1180 -0.2668
16108TIP3   OH269814   4.182   3.600   1.870 -0.0821  0.3001  0.2406
16108TIP3    H169815   4.155   3.607   1.962  1.0437 -1.5158  0.7651
16108TIP3    H269816   4.184   3.690   1.838  2.0293  1.2800  2.7659
16109TIP3   OH269817   1.306   5.884  13.215 -0.2343 -0.0120 -0.3043
16109TIP3    H169818   1.324   5.936  13.293  3.0059  0.7449 -1.4154
16109TIP3    H269819   1.324   5.793  13.242 -2.8647 -0.3064  0.7680
16110TIP3   OH269820   6.447   1.174   2.337  0.3615 -0.5803 -0.1477
16110TIP3    H169821   6.436   1.173   2.432  0.3019  2.3995 -0.0297
16110TIP3    H269822   6.508   1.246   2.321 -0.5055 -0.2849 -2.4332
16111TIP3   OH269823   6.421   6.463  12.194 -0.2529  0.5026 -0.4869
16111TIP3    H169824   6.396   6.484  12.104  2.5110 -0.8740 -1.7060
16111TIP3    H269825   6.394   6.371  12.206 -1.0028  0.8074  0.2821
16112TIP3   OH269826   4.242   0.867   4.736  0.2081  0.0844 -0.0784
16112TIP3    H169827   4.281   0.915   4.663  0.7189 -0.0074  0.1330
16112TIP3    H269828   4.317   0.834   4.786 -0.1052  0.9876  1.0561
16113TIP3   OH269829   0.296   3.125   1.538 -0.2037  0.4979  0.0849
16113TIP3    H169830   0.328   3.154   1.452 -0.6392  0.6552 -0.0245
16113TIP3    H269831   0.298   3.030   1.533  1.1101  0.4931  0.4002
16114TIP3   OH269832   2.084   1.378  13.074  0.1404 -0.2051  0.5100
16114TIP3    H169833   2.027   1.317  13.122  1.1780  0.0301  2.1363
16114TIP3    H269834   2.035   1.401  12.996 -0.8025 -2.1656  0.4700
16115TIP3   OH269835   3.599   0.453   2.305 -0.6878 -0.0606 -0.4912
16115TIP3    H169836   3.558   0.509   2.239  1.0140 -0.1053 -1.6591
16115TIP3    H269837   3.569   0.365   2.284  0.6362 -0.2113 -1.8958
16116TIP3   OH269838   5.239   5.099   6.522  0.2932  0.2421 -0.1668
16116TIP3    H169839   5.265   5.007   6.516  0.1523  0.0990  1.1999
16116TIP3    H269840   5.320   5.147   6.506  0.5180 -0.1276 -0.1721
16117TIP3   OH269841   5.742   3.368   2.130 -0.0434 -0.0632  0.1560
16117TIP3    H169842   5.655   3.405   2.147  0.4554 -0.1541  3.4083
16117TIP3    H269843   5.756   3.305   2.201  3.2617  1.0251  0.6187
16118TIP3   OH269844   6.159   1.919   0.416 -0.3674 -0.6376  0.6004
16118TIP3    H169845   6.103   1.992   0.441  0.2019  0.4458 -1.1198
16118TIP3    H269846   6.103   1.863   0.361 -0.7595 -1.4694  1.7964
16119TIP3   OH269847   6.133   6.321   6.596  0.1560 -0.4117  0.3849
16119TIP3    H169848   6.067   6.288   6.535  2.2235  0.7495 -2.7311
16119TIP3    H269849   6.109   6.413   6.609 -0.6812 -0.8189  2.0458
16120TIP3   OH269850   0.469   5.979  11.748  0.1980  0.0666  0.1860
16120TIP3    H169851   0.514   6.061  11.731  1.0992 -0.6677 -1.2375
16120TIP3    H269852   0.537   5.921  11.782 -0.1451 -0.4248  0.0411
16121TIP3   OH269853   4.444   4.637  12.028  0.3425 -0.4844  0.0982
16121TIP3    H169854   4.362   4.630  11.979  0.1108  1.3203  0.1604
16121TIP3    H269855   4.481   4.549  12.025 -1.1572 -1.1309 -0.6927
16122TIP3   OH269856   0.108   5.498   3.998 -0.2941 -0.6247 -0.5891
16122TIP3    H169857   0.155   5.431   4.049  1.2642 -1.0798 -2.4895
16122TIP3    H269858   0.153   5.580   4.021 -0.3597 -0.6555 -0.3506
16123TIP3   OH269859   5.046   2.993  15.370  0.6856  0.1466 -0.0994
16123TIP3    H169860   4.979   2.925  15.361  1.2208 -0.3781 -0.1615
16123TIP3    H269861   5.048   3.035  15.285 -0.0061  0.5857  0.0917
16124TIP3   OH269862   3.200   4.418  16.304 -0.2304  0.3922  0.2188
16124TIP3    H169863   3.234   4.408  16.216 -0.9400 -3.5286  0.2227
16124TIP3    H269864   3.109   4.447  16.292 -0.1191  0.5279 -0.3067
16125TIP3   OH269865   3.707   6.355   0.013 -0.7685 -0.1359  0.0547
16125TIP3    H169866   3.642   6.290  -0.014 -0.4199 -0.1398 -0.8103
16125TIP3    H269867   3.673   6.390   0.096 -1.2007 -1.0695  0.2874
16126TIP3   OH269868   2.961   2.593   0.152  0.0558  0.4427  0.0154
16126TIP3    H169869   2.997   2.651   0.084 -0.8503  0.3675 -0.5431
16126TIP3    H269870   2.963   2.506   0.112  1.1144  0.1146  0.7353
16127TIP3   OH269871   0.931   1.743   1.185  0.0198  0.2545 -0.2683
16127TIP3    H169872   0.896   1.658   1.161  0.8115  0.3122 -1.7508
16127TIP3    H269873   0.854   1.797   1.203 -0.4735 -0.9998  1.6945
16128TIP3   OH269874   2.581   3.094   2.866 -0.1731  0.3768 -0.8487
16128TIP3    H169875   2.488   3.117   2.863  0.2320  2.3382  0.2108
16128TIP3    H269876   2.621   3.161   2.921  1.8772 -0.4717 -1.2040
16129TIP3   OH269877   3.339   0.411  13.392 -0.1174 -0.4065 -0.0546
16129TIP3    H169878   3.273   0.468  13.352  0.9956 -0.0824 -1.5060
16129TIP3    H269879   3.299   0.383  13.475 -0.5560  2.7805  0.9289
16130TIP3   OH269880   1.954   1.536  14.780 -0.7638  0.3008  0.2799
16130TIP3    H169881   1.883   1.521  14.843  0.4303 -2.4895  1.1312
16130TIP3    H269882   2.030   1.558  14.834  0.4247 -2.6917  0.0485
16131TIP3   OH269883   6.726   6.700  12.883  0.6783  0.1402 -0.9832
16131TIP3    H169884   6.680   6.660  12.808 -1.2091 -0.2940  0.3261
16131TIP3    H269885   6.682   6.784  12.896 -2.8751 -1.9632  2.8248
16132TIP3   OH269886   4.187   2.811   1.631 -0.1633  0.0351 -0.0487
16132TIP3    H169887   4.239   2.851   1.700 -0.7449 -1.0348  1.0505
16132TIP3    H269888   4.157   2.728   1.669  0.4163 -1.1159 -1.9710
16133TIP3   OH269889   0.474   6.721  13.493 -0.5132 -0.3791  0.3170
16133TIP3    H169890   0.525   6.651  13.535 -1.0638 -0.0839  1.5278
16133TIP3    H269891   0.474   6.792  13.558  1.0381  1.2319 -1.3333
16134TIP3   OH269892   4.234   2.662  15.858 -0.5535  0.3062  0.4488
16134TIP3    H169893   4.275   2.693  15.778 -0.7016 -1.0753 -0.1897
16134TIP3    H269894   4.308   2.629  15.911 -0.6603 -0.9706 -0.1496
16135TIP3   OH269895   6.562   1.340  11.610  0.3102  0.4635  0.3353
16135TIP3    H169896   6.616   1.282  11.664 -0.2968 -0.2419  0.2074
16135TIP3    H269897   6.590   1.322  11.520 -0.5364 -0.3847  0.2082
16136TIP3   OH269898   5.833   2.008  12.362  0.1970 -0.2143  0.1933
16136TIP3    H169899   5.904   1.946  12.344  1.1527  0.5645  1.1657
16136TIP3    H269900   5.760   1.953  12.391 -0.0248 -1.1241 -1.9594
16137TIP3   OH269901   3.482   6.527  12.101 -0.0881 -0.1657  0.2403
16137TIP3    H169902   3.491   6.607  12.151  0.6316  0.4251 -0.7810
16137TIP3    H269903   3.469   6.458  12.166  0.8233  0.5718  1.2316
16138TIP3   OH269904   0.388   4.894   5.686 -0.1801  0.0220  0.3959
16138TIP3    H169905   0.378   4.843   5.606 -1.2863 -0.5997  0.9082
16138TIP3    H269906   0.298   4.916   5.711  0.2291  1.5320  0.6358
16139TIP3   OH269907   1.918   4.043  12.543 -0.2014  0.3390  0.2210
16139TIP3    H169908   1.825   4.059  12.534 -0.4453 -0.9232  0.3205
16139TIP3    H269909   1.949   4.028  12.454 -0.1846  0.3071  0.2317
16140TIP3   OH269910   2.012   5.921   0.747 -0.3245 -0.1997  0.6949
16140TIP3    H169911   1.930   5.877   0.727 -0.0169 -1.7356  2.5209
16140TIP3    H269912   2.075   5.851   0.759  0.8282  0.8645  1.0702
16141TIP3   OH269913   6.070   1.305   3.808  0.3354  0.3524  0.4868
16141TIP3    H169914   6.011   1.350   3.869  0.8472 -0.9196  2.0041
16141TIP3    H269915   6.158   1.336   3.832  0.3598  2.2099 -1.7340
16142TIP3   OH269916   5.804   4.234   0.003  0.0205 -0.2241  0.5830
16142TIP3    H169917   5.809   4.230  -0.092 -0.2288  1.9450  0.4220
16142TIP3    H269918   5.895   4.222   0.032  0.2786  0.2212 -0.0141
16143TIP3   OH269919   5.933   2.226  11.426  0.2939  0.0413 -0.8466
16143TIP3    H169920   6.018   2.186  11.442 -0.1107 -0.7905 -0.7133
16143TIP3    H269921   5.882   2.158  11.382 -0.3269  0.5003 -0.8607
16144TIP3   OH269922   1.629   5.197  14.570 -0.4079 -0.3013 -0.2898
16144TIP3    H169923   1.712   5.184  14.616  0.7718  0.9957 -1.9240
16144TIP3    H269924   1.565   5.216  14.639  0.6484 -1.2923  0.9966
16145TIP3   OH269925   3.718   0.607   0.509 -0.2148  0.2128  1.2780
16145TIP3    H169926   3.765   0.677   0.553  1.5354 -0.4447  0.5334
16145TIP3    H269927   3.772   0.529   0.522 -1.7533 -0.8832  1.4838
16146TIP3   OH269928   1.366   0.939  14.233  0.1880 -0.1963  0.4091
16146TIP3    H169929   1.277   0.908  14.253 -0.5648 -0.1712 -2.5156
16146TIP3    H269930   1.418   0.859  14.228 -0.0074 -0.3370  0.5892
16147TIP3   OH269931   1.512   0.841  16.857 -0.4701 -0.1072  0.1050
16147TIP3    H169932   1.532   0.762  16.807  1.2739 -0.5183  1.3944
16147TIP3    H269933   1.596   0.874  16.888 -1.3862  0.6374  2.0201
16148TIP3   OH269934   4.679   5.039  15.019 -1.0816  0.0397  0.4014
16148TIP3    H169935   4.635   5.047  15.103  2.9857 -0.8507  2.8705
16148TIP3    H269936   4.660   4.949  14.991 -0.4769 -0.4978  1.6652
16149TIP3   OH269937   3.559   2.747  11.641 -0.4628  0.1167 -0.3023
16149TIP3    H169938   3.613   2.801  11.699 -0.5391 -0.7019  0.5660
16149TIP3    H269939   3.598   2.660  11.647 -0.3979  0.0475 -1.6123
16150TIP3   OH269940   6.437   2.181   4.974 -0.4061 -0.1990 -0.0087
16150TIP3    H169941   6.472   2.098   5.006  1.0005  0.5588  0.5033
16150TIP3    H269942   6.355   2.193   5.023 -0.7910 -1.4215 -0.3281
16151TIP3   OH269943   4.289   4.723   0.246 -0.5779 -0.1070 -0.2723
16151TIP3    H169944   4.221   4.666   0.281  0.0168 -1.3642 -1.0821
16151TIP3    H269945   4.331   4.671   0.177 -0.5241  1.6147 -1.6041
16152TIP3   OH269946   0.428   0.188   0.922  0.1366 -0.1487  0.3649
16152TIP3    H169947   0.388   0.196   1.009  1.5176  2.5441  0.8395
16152TIP3    H269948   0.451   0.095   0.915 -0.3650 -0.5054  2.6913
16153TIP3   OH269949   4.360   5.052   6.122 -0.1875 -0.2389 -0.4422
16153TIP3    H169950   4.329   5.051   6.213  0.6561 -2.3944 -0.1029
16153TIP3    H269951   4.395   5.140   6.109 -0.6358  0.2226  1.1949
16154TIP3   OH269952   5.544   2.652  15.043  0.2987 -0.2472  0.0330
16154TIP3    H169953   5.559   2.742  15.013  1.3887 -0.2729  0.4392
16154TIP3    H269954   5.475   2.660  15.109 -2.3183 -0.2206 -2.5121
16155TIP3   OH269955   6.592   2.623  15.821  0.3312 -0.5998  0.2480
16155TIP3    H169956   6.624   2.694  15.877  0.1775  0.0130 -0.4312
16155TIP3    H269957   6.654   2.621  15.748 -1.4487  1.0049 -1.4119
16156TIP3   OH269958   4.198   1.787  12.224  0.8881  0.0295  0.4296
16156TIP3    H169959   4.163   1.795  12.135  1.4371  1.6710  0.3364
16156TIP3    H269960   4.181   1.872  12.264  1.6872 -0.3103  1.5274
16157TIP3   OH269961   1.447   5.483   5.444  0.5345  0.2688  0.2705
16157TIP3    H169962   1.488   5.495   5.358  1.7119  0.4745  0.8539
16157TIP3    H269963   1.450   5.388   5.459 -3.0079 -0.3239 -1.4900
16158TIP3   OH269964   5.624   5.064  16.527 -0.0275  0.2738 -0.4674
16158TIP3    H169965   5.615   5.147  16.575  0.1345  1.0289 -1.7084
16158TIP3    H269966   5.549   5.012  16.556  0.1336  0.6557  0.6896
16159TIP3   OH269967   3.582   3.820  13.188  0.3671  0.0799  0.4572
16159TIP3    H169968   3.584   3.783  13.276  0.3756  1.4788  1.0750
16159TIP3    H269969   3.674   3.835  13.166  0.3644 -0.2592  0.2084
16160TIP3   OH269970   0.950   5.421  13.886  0.1988  0.2418 -0.6165
16160TIP3    H169971   0.960   5.326  13.887  0.7209  0.2934  0.1035
16160TIP3    H269972   1.010   5.452  13.954  0.9615  1.1789 -1.6625
16161TIP3   OH269973   5.364   6.390   5.258 -0.1754  0.1349  0.1031
16161TIP3    H169974   5.303   6.375   5.330 -2.0281  0.7291 -1.2778
16161TIP3    H269975   5.422   6.460   5.289 -1.2920  0.7605  0.8193
16162TIP3   OH269976   2.836   6.247   5.134 -0.2506  0.3351 -0.1852
16162TIP3    H169977   2.820   6.227   5.042 -0.8227  0.7342 -0.1767
16162TIP3    H269978   2.921   6.291   5.134 -0.8982  1.6411 -0.7076
16163TIP3   OH269979   0.210   2.449   3.331 -0.1069 -0.2350  1.0493
16163TIP3    H169980   0.300   2.467   3.356 -0.3911  0.3255  1.7179
16163TIP3    H269981   0.211   2.448   3.235  0.5965 -0.1710  1.0540
16164TIP3   OH269982   0.028   1.206   4.207 -0.0809  0.2126  0.6490
16164TIP3    H169983   0.006   1.296   4.182 -1.8049 -0.6482 -1.2274
16164TIP3    H269984   0.118   1.195   4.176  0.0780  1.2018  0.7036
16165TIP3   OH269985   2.549   0.295  15.914 -0.2892  0.0246  0.2413
16165TIP3    H169986   2.533   0.202  15.900 -0.5605  0.3562 -2.0860
16165TIP3    H269987   2.482   0.340  15.862  1.0957  1.4821 -0.4128
16166TIP3   OH269988   5.643   4.385  12.758  0.1718 -0.9017  0.1539
16166TIP3    H169989   5.682   4.315  12.706  2.3891  0.6002 -0.3570
16166TIP3    H269990   5.678   4.371  12.847  0.5926 -0.4942  0.0575
16167TIP3   OH269991   0.006   5.363  11.201 -0.3056  0.0565 -0.0721
16167TIP3    H169992   0.065   5.289  11.211 -0.1991  0.2111  0.4986
16167TIP3    H269993  -0.081   5.324  11.197 -0.1450 -0.1923 -1.2397
16168TIP3   OH269994   1.780   1.743   4.023  0.0569  0.1954  0.3545
16168TIP3    H169995   1.860   1.732   3.971  2.0393  0.0079  3.1975
16168TIP3    H269996   1.756   1.655   4.049  1.2499  0.4848  2.6401
16169TIP3   OH269997   0.629   4.299   2.528 -0.4454 -0.3888  0.2873
16169TIP3    H169998   0.616   4.242   2.452 -0.5012 -0.9778  0.7353
16169TIP3    H269999   0.642   4.386   2.490 -0.3428 -0.6968 -0.4038
16170TIP3   OH270000   6.114   4.363  14.622  0.1074 -0.0217 -0.5787
16170TIP3    H170001   6.188   4.302  14.624  1.8935  2.0021 -1.4301
16170TIP3    H270002   6.118   4.402  14.535 -1.2252  1.0220 -0.1892
16171TIP3   OH270003   4.742   0.353  12.078 -0.4470  0.0719  0.0313
16171TIP3    H170004   4.693   0.342  12.159 -1.2149  0.8372 -0.3147
16171TIP3    H270005   4.820   0.299  12.090 -0.2786  0.5966  1.4951
16172TIP3   OH270006   4.160   5.612  16.881 -0.4398  0.4419 -0.3722
16172TIP3    H170007   4.115   5.544  16.932 -0.3867 -0.6751 -1.7684
16172TIP3    H270008   4.208   5.662  16.947 -2.6635  0.8902  1.0224
16173TIP3   OH270009   0.605   6.280  14.765 -0.5423  0.6267  0.3209
16173TIP3    H170010   0.645   6.216  14.706  1.3470  2.7041 -0.8020
16173TIP3    H270011   0.516   6.248  14.779 -0.0654 -1.5616 -1.1662
16174TIP3   OH270012   2.075   0.247   0.880 -0.4161  0.6475  0.2314
16174TIP3    H170013   2.034   0.323   0.923 -2.5802  0.4464 -1.3177
16174TIP3    H270014   2.003   0.185   0.869  0.9430 -0.8876 -0.1862
16175TIP3   OH270015   0.529   2.843   5.036  0.0820 -0.7591  0.6910
16175TIP3    H170016   0.539   2.877   4.947  2.9630 -0.5444  1.0062
16175TIP3    H270017   0.482   2.912   5.083  0.5413  0.1354 -0.1325
16176TIP3   OH270018   4.399   3.694  16.625 -0.0955  0.3777  0.4371
16176TIP3    H170019   4.349   3.646  16.691 -0.5501  1.2188  0.7250
16176TIP3    H270020   4.489   3.665  16.637 -0.2992 -0.0899  0.8770
16177TIP3   OH270021   1.163   3.165   3.507  0.6947 -0.0531 -0.2650
16177TIP3    H170022   1.243   3.179   3.457  0.8346 -0.3730 -0.1281
16177TIP3    H270023   1.168   3.229   3.579  0.5940  0.2608 -0.5375
16178TIP3   OH270024   2.290   6.713   5.736 -0.5112  0.2214  0.0747
16178TIP3    H170025   2.239   6.739   5.812 -0.5329  1.3455 -0.3032
16178TIP3    H270026   2.269   6.779   5.669 -2.8118 -2.3563 -1.9368
16179TIP3   OH270027   6.165   4.854  15.754  0.3039 -0.3194 -0.3252
16179TIP3    H170028   6.182   4.780  15.697 -0.5023 -2.0958  1.6099
16179TIP3    H270029   6.078   4.837  15.792  1.9814 -0.9928  3.7788
16180TIP3   OH270030   3.872   1.069  11.771  0.8279  0.0441  0.0388
16180TIP3    H170031   3.808   1.071  11.842  1.5025  1.9060  0.6445
16180TIP3    H270032   3.877   1.159  11.739  1.6614 -0.4552 -1.3766
16181TIP3   OH270033   1.372   1.628   3.411 -0.0737  0.0081 -0.4680
16181TIP3    H170034   1.277   1.626   3.402  0.0185  0.1025 -1.6076
16181TIP3    H270035   1.404   1.658   3.326  0.9423  0.7028  0.1276
16182TIP3   OH270036   6.271   0.842  11.445  0.4425  0.5763  0.0069
16182TIP3    H170037   6.325   0.827  11.523  0.4289 -1.9972 -0.3906
16182TIP3    H270038   6.328   0.817  11.372 -0.8292 -0.9433 -0.5033
16183TIP3   OH270039   1.526   3.240  15.856  0.1925 -0.2623  0.5232
16183TIP3    H170040   1.595   3.298  15.888  0.8303 -1.0454  0.6051
16183TIP3    H270041   1.482   3.210  15.936  0.6883 -0.8792  0.5765
16184TIP3   OH270042   1.181   2.021  15.574 -0.1216 -0.7695  0.1186
16184TIP3    H170043   1.109   2.024  15.511 -0.7450 -1.8179  0.7614
16184TIP3    H270044   1.260   2.029  15.520 -0.6897  0.1373 -0.6139
16185TIP3   OH270045   2.907   6.295  13.813  0.0605  0.6005  0.1225
16185TIP3    H170046   2.975   6.237  13.848 -1.2479 -0.2158  1.4539
16185TIP3    H270047   2.951   6.345  13.744  1.0889 -2.5287 -1.7213
16186TIP3   OH270048   6.481   0.916  13.829 -0.5283 -0.2307 -0.3394
16186TIP3    H170049   6.459   0.971  13.904 -1.5317  0.3176 -0.9973
16186TIP3    H270050   6.576   0.914  13.827 -0.4870  0.4539  0.4408
16187TIP3   OH270051   0.558   4.165   4.799  0.8424  0.2348 -0.4625
16187TIP3    H170052   0.574   4.259   4.808 -1.4546  0.7360 -0.8339
16187TIP3    H270053   0.463   4.156   4.809  1.0264 -2.1051 -0.1284
16188TIP3   OH270054   4.991   4.299   2.369 -0.6414 -0.7652  0.3727
16188TIP3    H170055   5.066   4.242   2.386  1.0419  1.8471  2.4242
16188TIP3    H270056   4.951   4.311   2.455  0.3291  2.6738  0.4864
16189TIP3   OH270057   4.795   1.117  17.029  0.3162 -0.4017 -0.1202
16189TIP3    H170058   4.706   1.108  16.996  0.5536  0.5094 -1.0778
16189TIP3    H270059   4.786   1.166  17.111 -0.2260 -2.1814  0.9354
16190TIP3   OH270060   5.669   0.369  13.832  0.4301 -0.4224 -0.0032
16190TIP3    H170061   5.690   0.453  13.792 -1.8685  0.7460  1.0848
16190TIP3    H270062   5.627   0.319  13.762 -2.3619  1.1152  0.4443
16191TIP3   OH270063   3.866   0.546   3.200  0.2285  0.3317 -0.3858
16191TIP3    H170064   3.803   0.473   3.203 -0.1254  0.3253 -4.0597
16191TIP3    H270065   3.949   0.504   3.176  0.3393  0.9679 -1.1289
16192TIP3   OH270066   0.581   5.411   5.883  0.3848 -0.3200  0.0384
16192TIP3    H170067   0.598   5.321   5.912  0.7273  0.2606  1.7569
16192TIP3    H270068   0.501   5.436   5.928  1.4089  0.9202  1.2483
16193TIP3   OH270069   1.491   6.049  14.515 -0.4999  0.0337 -0.0224
16193TIP3    H170070   1.578   6.085  14.498 -0.2270 -1.0185 -1.0269
16193TIP3    H270071   1.478   6.059  14.609  0.3564  0.9541  0.0054
16194TIP3   OH270072   3.748   6.202   2.709 -0.0861 -0.4850  0.2860
16194TIP3    H170073   3.779   6.292   2.704 -1.3257 -0.0304  0.5396
16194TIP3    H270074   3.828   6.150   2.714  0.6838  0.7720  3.4582
16195TIP3   OH270075   0.503   2.325   1.948 -0.1580  0.4003 -0.3299
16195TIP3    H170076   0.588   2.283   1.947 -0.2315 -0.1067 -4.4669
16195TIP3    H270077   0.504   2.380   2.026  3.2850 -0.7789  0.6342
16196TIP3   OH270078   2.163   0.149   2.041 -0.2789  0.2850 -0.6135
16196TIP3    H170079   2.190   0.201   1.965  0.0267  1.4256  0.2543
16196TIP3    H270080   2.202   0.194   2.116 -1.4379 -0.2191  0.3181
16197TIP3   OH270081   5.876   2.373  11.659 -0.0200  0.2091  0.5519
16197TIP3    H170082   5.880   2.337  11.570 -0.0314 -0.4197  0.8000
16197TIP3    H270083   5.960   2.349  11.698  0.2890  1.1318  0.4742
16198TIP3   OH270084   2.970   5.317   4.042 -0.3654  0.0720 -0.1702
16198TIP3    H170085   2.907   5.245   4.036 -0.9949  0.7337 -3.5564
16198TIP3    H270086   3.055   5.275   4.032 -0.4236 -0.5087  1.4479
16199TIP3   OH270087   5.159   6.771  15.737  0.6647 -0.1727 -0.1047
16199TIP3    H170088   5.250   6.796  15.726  0.6985 -0.1823  0.1388
16199TIP3    H270089   5.155   6.678  15.713  0.7675 -0.2372  0.1299
16200TIP3   OH270090   5.351   2.824   5.348  0.3156  0.0106 -0.2792
16200TIP3    H170091   5.256   2.814   5.347  0.4002 -0.9610 -0.2150
16200TIP3    H270092   5.376   2.828   5.256  0.1171  1.4343 -0.2820
16201TIP3   OH270093   0.440   3.941  15.504 -1.1044  0.5647 -0.0919
16201TIP3    H170094   0.531   3.916  15.516 -0.6462  1.4692 -1.3810
16201TIP3    H270095   0.399   3.866  15.462 -0.5277  0.7425 -1.0080
16202TIP3   OH270096   5.980   1.054   4.579  0.1059 -0.8406 -0.2201
16202TIP3    H170097   5.965   0.966   4.616  0.1781 -0.2602  1.2428
16202TIP3    H270098   5.902   1.104   4.605  0.1438 -0.4166 -0.9031
16203TIP3   OH270099   4.155   1.640  11.953 -0.8198  0.4469  0.2671
16203TIP3    H170100   4.098   1.704  11.912 -2.7386 -1.3835 -0.1123
16203TIP3    H270101   4.162   1.569  11.889 -0.2516 -0.5140  1.3513
16204TIP3   OH270102   1.751   6.307  16.371  0.1125  0.6819 -0.4324
16204TIP3    H170103   1.691   6.306  16.297 -1.7167 -0.8277  0.9684
16204TIP3    H270104   1.713   6.245  16.434  1.6473  1.7788  1.7240
16205TIP3   OH270105   5.403   3.386   0.537 -0.2787  0.2627  0.0409
16205TIP3    H170106   5.442   3.358   0.620  1.2795  0.2545 -0.6490
16205TIP3    H270107   5.478   3.416   0.485 -0.8768 -1.7002 -2.1344
16206TIP3   OH270108   6.183   6.013  14.686 -0.1614  0.4242 -0.0395
16206TIP3    H170109   6.274   5.997  14.662  0.0365  2.1828 -0.6355
16206TIP3    H270110   6.140   6.033  14.603 -1.6925 -2.6380 -0.1200
16207TIP3   OH270111   1.947   6.690  12.628 -0.0999  1.0274  0.1424
16207TIP3    H170112   1.924   6.735  12.709  1.1216  0.1245  1.0217
16207TIP3    H270113   1.890   6.613  12.626 -1.9087  2.3094 -1.1650
16208TIP3   OH270114   2.228   1.282  14.898 -0.4446  0.5364 -0.2188
16208TIP3    H170115   2.192   1.369  14.914 -1.6375  0.0777 -0.3510
16208TIP3    H270116   2.303   1.275  14.958 -1.5054  0.9335  1.1874
16209TIP3   OH270117   0.515   1.357  17.220  0.2830  0.1836  0.1176
16209TIP3    H170118   0.444   1.319  17.272 -0.4292  0.7962 -0.3831
16209TIP3    H270119   0.478   1.369  17.133  2.2846 -3.5333 -1.4905
16210TIP3   OH270120   1.361   3.632   5.825 -0.5260  0.5975  0.2082
16210TIP3    H170121   1.420   3.588   5.886  1.2472  0.8119 -1.2895
16210TIP3    H270122   1.305   3.562   5.791 -0.3651  0.1918  0.7547
16211TIP3   OH270123   0.001   3.988  16.903 -0.2633  0.6122  0.4560
16211TIP3    H170124   0.012   3.936  16.982 -2.6728  0.8376  1.0230
16211TIP3    H270125  -0.093   3.987  16.887  0.0285  1.6915 -1.6608
16212TIP3   OH270126   5.583   3.205  14.966 -0.1201 -0.0633 -0.4533
16212TIP3    H170127   5.662   3.257  14.952 -0.0238 -0.0414  0.1515
16212TIP3    H270128   5.528   3.259  15.023  0.2902 -0.9169  0.7877
16213TIP3   OH270129   2.342   2.672  13.229 -0.0182 -0.0431  0.1226
16213TIP3    H170130   2.312   2.763  13.218  0.2676  0.0476  0.0706
16213TIP3    H270131   2.432   2.681  13.260 -0.9126 -0.2713  3.0467
16214TIP3   OH270132   1.235   1.205  12.491  0.5480  0.4222 -0.2749
16214TIP3    H170133   1.286   1.275  12.449 -0.3369  0.7170 -0.8987
16214TIP3    H270134   1.290   1.127  12.483 -0.0576  0.1576 -3.1577
16215TIP3   OH270135   6.102   4.042  13.457  0.2495  0.0168  0.2896
16215TIP3    H170136   6.015   4.080  13.443  0.1191  0.1143  1.2940
16215TIP3    H270137   6.131   4.015  13.369 -0.6579  0.2682 -0.0982
16216TIP3   OH270138   3.487   5.995   3.756 -0.2616  0.1052 -0.1823
16216TIP3    H170139   3.527   6.003   3.669  0.4207  1.6918  0.2392
16216TIP3    H270140   3.522   6.069   3.805 -0.8776 -0.5946  1.3654
16217TIP3   OH270141   5.958   0.875  17.063  0.6099  0.1231 -0.0581
16217TIP3    H170142   5.875   0.909  17.098  0.4796 -1.5845  1.4523
16217TIP3    H270143   6.021   0.888  17.133  1.6343  1.2464 -1.1341
16218TIP3   OH270144   2.488   1.997   4.798 -0.2366  0.9537  0.2552
16218TIP3    H170145   2.505   1.990   4.892  0.0455 -0.0024  0.1437
16218TIP3    H270146   2.395   2.019   4.792 -0.1291  1.6016  0.7620
16219TIP3   OH270147   1.509   4.640   2.514 -0.0719 -0.4134  0.1216
16219TIP3    H170148   1.472   4.571   2.460 -0.3331  0.0474 -0.2881
16219TIP3    H270149   1.563   4.691   2.454 -0.5842  0.2651  0.2302
16220TIP3   OH270150   0.256   5.032  14.486  0.2028 -0.7396 -0.2706
16220TIP3    H170151   0.311   5.073  14.419 -2.2686  2.2043 -0.7558
16220TIP3    H270152   0.205   4.967  14.438 -0.2664  0.0756 -0.9035
16221TIP3   OH270153   5.436   5.830   4.844 -0.0842  0.1930  0.3124
16221TIP3    H170154   5.412   5.779   4.767 -0.2098 -1.1107  1.1787
16221TIP3    H270155   5.485   5.905   4.810 -0.2263 -0.3106 -1.0274
16222TIP3   OH270156   5.412   1.733  11.666 -0.4484 -0.7123 -0.7162
16222TIP3    H170157   5.343   1.794  11.694 -0.6351  0.4341 -3.3775
16222TIP3    H270158   5.370   1.647  11.672 -0.6003 -0.5339  1.8858
16223TIP3   OH270159   0.358   3.124   4.277 -0.1278  0.4776 -0.1996
16223TIP3    H170160   0.401   3.208   4.261  1.7969 -0.4293 -0.1341
16223TIP3    H270161   0.390   3.067   4.207  0.4342 -0.8053  1.0510
16224TIP3   OH270162   5.557   1.139   4.875 -0.1708 -0.2193 -0.3799
16224TIP3    H170163   5.612   1.209   4.911  0.4056 -0.4562 -0.7878
16224TIP3    H270164   5.481   1.135   4.934  0.6743 -0.4855  0.7247
16225TIP3   OH270165   5.788   1.550  11.207  0.2808  0.1580  0.6822
16225TIP3    H170166   5.788   1.588  11.119  0.7668  0.9021  0.9934
16225TIP3    H270167   5.776   1.625  11.266  1.6101 -0.1005  1.3300
16226TIP3   OH270168   6.214   0.038  13.042  0.4857 -0.2117 -0.2729
16226TIP3    H170169   6.214   0.091  13.122  1.0400  0.8372 -0.9342
16226TIP3    H270170   6.295  -0.014  13.048  0.0340 -0.8546  0.2937
16227TIP3   OH270171   2.246   2.020   4.180 -0.2343  0.3564  0.9775
16227TIP3    H170172   2.167   2.074   4.180 -1.6983 -1.5484 -2.0756
16227TIP3    H270173   2.317   2.082   4.198 -2.2901  2.1883  3.4968
16228TIP3   OH270174   5.652   5.337  13.434 -0.0438  0.1409 -0.0825
16228TIP3    H170175   5.740   5.349  13.400  0.5674 -2.5961  0.3444
16228TIP3    H270176   5.645   5.401  13.505  2.0492 -0.3706  0.6608
16229TIP3   OH270177   3.686   6.142  15.999 -0.4087 -0.0058 -0.1004
16229TIP3    H170178   3.647   6.156  16.085 -0.6440 -0.7510 -0.0804
16229TIP3    H270179   3.614   6.109  15.945  0.0030 -0.6196 -0.2816
16230TIP3   OH270180   2.218   3.000   3.081  0.0978 -0.5247  0.4978
16230TIP3    H170181   2.141   2.978   3.133 -1.5617  0.8691 -1.1979
16230TIP3    H270182   2.212   2.942   3.005  1.1682 -0.9296  0.7076
16231TIP3   OH270183   0.639   5.445  10.909  0.3163  0.0810  0.3126
16231TIP3    H170184   0.718   5.403  10.875 -0.5846 -0.1301 -1.6591
16231TIP3    H270185   0.569   5.411  10.853 -1.3766 -0.6748  2.7416
16232TIP3   OH270186   5.469   2.131  16.135 -0.4891 -0.4400 -0.1778
16232TIP3    H170187   5.416   2.210  16.145 -0.1271 -0.3627  1.4356
16232TIP3    H270188   5.446   2.097  16.049 -2.1915  0.3066 -0.0503
16233TIP3   OH270189   3.800   1.089  16.685  0.3045 -0.7874 -0.4028
16233TIP3    H170190   3.726   1.132  16.642  0.3288 -0.9663 -0.6265
16233TIP3    H270191   3.878   1.129  16.646  0.3392  0.0837  0.5126
16234TIP3   OH270192   2.721   5.485  12.268 -0.1303 -0.9114  0.5036
16234TIP3    H170193   2.732   5.516  12.178 -2.5455 -0.8115  0.1685
16234TIP3    H270194   2.654   5.417  12.261 -1.5398  0.1910  2.4039
16235TIP3   OH270195   0.349   1.602  16.568 -0.6744  0.1532  0.0232
16235TIP3    H170196   0.277   1.577  16.626 -0.2128 -1.0563  0.1014
16235TIP3    H270197   0.427   1.568  16.611 -0.3688 -1.3621 -1.5858
16236TIP3   OH270198   3.578   2.949   1.584 -0.6724  0.1267  0.3481
16236TIP3    H170199   3.540   2.873   1.628 -1.0499  0.0011 -0.1832
16236TIP3    H270200   3.504   3.008   1.568 -0.4164  0.5177  0.5723
16237TIP3   OH270201   1.273   0.619  16.749 -0.1845 -0.4026 -0.4255
16237TIP3    H170202   1.281   0.670  16.830  0.3834 -1.1613  0.0074
16237TIP3    H270203   1.240   0.682  16.685  2.6132  1.1718 -0.5009
16238TIP3   OH270204   1.480   3.877   0.044 -0.5330 -0.0754  0.0551
16238TIP3    H170205   1.510   3.787   0.031 -0.6685  0.1248 -1.9788
16238TIP3    H270206   1.535   3.911   0.115  1.8307 -0.7628 -1.3362
16239TIP3   OH270207   2.291   0.236   3.419 -0.0698 -0.4752 -0.4986
16239TIP3    H170208   2.307   0.168   3.485 -0.2493  1.2259  1.3851
16239TIP3    H270209   2.375   0.282   3.412 -0.1498 -0.4281 -1.2465
16240TIP3   OH270210   0.026   6.647  12.290  0.3372  0.2734 -0.4608
16240TIP3    H170211   0.004   6.711  12.358  0.0122 -1.0712  0.7530
16240TIP3    H270212  -0.010   6.683  12.209 -2.5547  0.2192  0.6961
16241TIP3   OH270213   0.537   4.234   4.198 -0.0350  0.2362  0.0369
16241TIP3    H170214   0.557   4.303   4.135  1.2747  0.9532  1.1796
16241TIP3    H270215   0.562   4.153   4.153  0.4315  0.6917 -0.5465
16242TIP3   OH270216   5.321   3.914  14.953  0.4440 -0.3345  0.8047
16242TIP3    H170217   5.377   3.991  14.945  0.4023 -0.5317 -2.4154
16242TIP3    H270218   5.237   3.949  14.982  1.2772  0.3521  2.5573
16243TIP3   OH270219   5.222   2.340  11.039  0.1752  0.2043  0.1143
16243TIP3    H170220   5.142   2.301  11.003 -0.4003  1.6679 -0.2669
16243TIP3    H270221   5.247   2.407  10.975  2.0490 -0.5998 -0.0633
16244TIP3   OH270222   0.408   5.539  11.178  0.0832  0.1323 -0.4572
16244TIP3    H170223   0.398   5.552  11.272  0.8300  0.2512 -0.3904
16244TIP3    H270224   0.380   5.449  11.163  0.8688 -0.1971  0.0259
16245TIP3   OH270225   5.566   2.083  11.871  0.2566 -0.2497 -0.6098
16245TIP3    H170226   5.474   2.058  11.887 -0.4637  0.4727 -3.2125
16245TIP3    H270227   5.609   2.068  11.955 -1.4568 -3.9575 -0.1718
16246TIP3   OH270228   0.795   2.437   4.189 -0.1947 -0.2179 -0.1618
16246TIP3    H170229   0.838   2.494   4.252 -2.3554  0.8900  0.4370
16246TIP3    H270230   0.840   2.455   4.106 -0.2369  1.7613  0.1822
16247TIP3   OH270231   1.779   6.490  16.055  0.0066  0.1072 -0.6075
16247TIP3    H170232   1.866   6.451  16.069  0.3121  0.9770 -0.0297
16247TIP3    H270233   1.723   6.415  16.034  1.0461 -0.3814 -1.7686
16248TIP3   OH270234   4.984   2.092   5.008 -0.4623 -0.3381 -0.3010
16248TIP3    H170235   5.050   2.042   5.056  0.0591 -0.1456 -0.7969
16248TIP3    H270236   4.959   2.034   4.935  1.3537  0.7120 -1.8461
16249TIP3   OH270237   4.883   3.787  17.380 -0.3824 -0.1629 -0.1758
16249TIP3    H170238   4.892   3.695  17.356  1.3335 -0.2195  0.5551
16249TIP3    H270239   4.809   3.788  17.441  0.3449 -1.2810  0.7800
16250TIP3   OH270240   1.032   2.041  16.175 -0.4561 -0.1090 -0.3734
16250TIP3    H170241   0.939   2.048  16.194 -0.4111 -0.6189  0.0499
16250TIP3    H270242   1.069   1.998  16.252  0.4772  2.0534  0.4515
16251TIP3   OH270243   4.616   1.667  15.390  0.2570 -0.1161  0.2272
16251TIP3    H170244   4.590   1.615  15.466  0.3617  0.9262  0.9999
16251TIP3    H270245   4.646   1.602  15.326 -0.1487 -1.0371  0.9378
16252TIP3   OH270246   5.372   5.713  16.047  0.0461  0.4261  0.2077
16252TIP3    H170247   5.304   5.673  15.992  0.2953  1.4005 -0.8584
16252TIP3    H270248   5.454   5.686  16.005  0.2249  1.6348 -0.2558
16253TIP3   OH270249   6.755   1.840  13.121  0.0808 -0.2693  0.1253
16253TIP3    H170250   6.707   1.900  13.177  0.6860  0.6026 -0.2655
16253TIP3    H270251   6.795   1.778  13.182 -0.8340 -0.5015  0.5085
16254TIP3   OH270252   1.087   3.181  17.204  0.1832 -0.2208 -0.2587
16254TIP3    H170253   0.995   3.176  17.178  0.4102 -0.2762 -1.0539
16254TIP3    H270254   1.085   3.227  17.289 -0.4953  0.6563 -0.7344
16255TIP3   OH270255   2.145   0.966  14.563  0.4399  0.1208  0.4171
16255TIP3    H170256   2.219   1.011  14.522  1.6766 -1.2116  1.0595
16255TIP3    H270257   2.099   1.034  14.611 -0.5851  1.5859 -2.4062
16256TIP3   OH270258   0.174   1.228   1.861  0.4880  0.1709  0.3459
16256TIP3    H170259   0.242   1.231   1.794  0.2210 -1.2035 -0.0159
16256TIP3    H270260   0.105   1.173   1.824  0.0591 -0.1153  1.5108
16257TIP3   OH270261   1.107   6.312   4.933 -0.5165 -0.2320 -0.3315
16257TIP3    H170262   1.197   6.306   4.967 -0.8892  2.6026  1.4524
16257TIP3    H270263   1.053   6.274   5.003 -0.8384 -0.1502 -0.5335
16258TIP3   OH270264   3.843   5.849   1.804  0.2839  0.2198 -0.3808
16258TIP3    H170265   3.902   5.876   1.733  0.2447  0.4355 -0.3326
16258TIP3    H270266   3.756   5.851   1.764  0.4004 -1.0745 -0.7395
16259TIP3   OH270267   2.035   0.971  15.149  0.0204  0.1309 -0.5092
16259TIP3    H170268   2.115   0.952  15.199 -1.3703 -0.9706  1.4724
16259TIP3    H270269   2.019   0.890  15.100 -0.1853  0.1221 -0.4283
16260TIP3   OH270270   4.226   5.018   0.202  0.1379 -1.1486  0.4472
16260TIP3    H170271   4.158   5.082   0.225 -0.5542 -1.4645 -0.6741
16260TIP3    H270272   4.254   4.982   0.287  0.9334  0.9915  1.1652
16261TIP3   OH270273   5.583   4.170  14.710  0.3723 -0.1215  0.2740
16261TIP3    H170274   5.558   4.159  14.802 -4.9942  0.8968 -0.7566
16261TIP3    H270275   5.582   4.265  14.696 -2.1606 -0.3005 -1.3876
16262TIP3   OH270276   3.041   2.286  15.921 -0.5699 -0.2677 -0.1023
16262TIP3    H170277   2.988   2.271  16.000 -1.7694 -0.1674 -0.8494
16262TIP3    H270278   3.000   2.230  15.854  0.8985 -0.9379 -0.4680
16263TIP3   OH270279   2.301   6.546   3.008  0.2374 -0.3938  0.3295
16263TIP3    H170280   2.396   6.548   2.995  0.0349  1.2188 -1.3775
16263TIP3    H270281   2.270   6.628   2.970 -2.2463 -2.6017 -2.9538
16264TIP3   OH270282   4.512   4.616   0.533 -0.0185  0.2867 -0.3140
16264TIP3    H170283   4.564   4.563   0.593 -2.6323 -2.4806 -0.2527
16264TIP3    H270284   4.540   4.588   0.446  0.7318  1.1079 -0.3479
16265TIP3   OH270285   0.958   3.133  11.674 -0.3299 -0.3931 -0.3269
16265TIP3    H170286   0.970   3.058  11.616 -2.8491  0.2581 -1.8453
16265TIP3    H270287   0.949   3.208  11.616  2.7132  1.3392  1.1687
16266TIP3   OH270288   1.530   0.617   2.190 -0.6256  0.1786  0.4329
16266TIP3    H170289   1.492   0.559   2.256 -0.8372  0.0794  0.2271
16266TIP3    H270290   1.476   0.603   2.112 -0.5964  0.5549  0.3423
16267TIP3   OH270291   5.241   3.993  13.400  0.4318 -0.1316 -0.0058
16267TIP3    H170292   5.194   4.048  13.337 -0.8662 -0.8118  0.3535
16267TIP3    H270293   5.333   4.020  13.391 -0.2543  2.6621  0.7551
16268TIP3   OH270294   3.933   0.582  12.504  0.5764  0.4232  0.4081
16268TIP3    H170295   3.927   0.486  12.509 -0.8150  0.5252  1.0360
16268TIP3    H270296   3.901   0.613  12.588  0.4700  1.4594  0.0029
16269TIP3   OH270297   6.097   4.177  17.449 -0.2438  0.4944  0.5886
16269TIP3    H170298   6.072   4.090  17.481  0.5963 -0.0115 -0.1091
16269TIP3    H270299   6.181   4.196  17.492  1.4358 -0.6328 -1.9793
16270TIP3   OH270300   0.276   0.804  15.629  0.2396  0.5551 -0.7015
16270TIP3    H170301   0.229   0.743  15.572  0.4675  0.9783 -1.3600
16270TIP3    H270302   0.234   0.795  15.714 -1.3160  1.2231 -1.3699
16271TIP3   OH270303   6.518   5.182  11.698 -0.1463 -0.1265 -0.2695
16271TIP3    H170304   6.431   5.153  11.728 -0.3980 -0.2783 -1.1120
16271TIP3    H270305   6.579   5.124  11.744 -0.5522 -0.7272 -0.4635
16272TIP3   OH270306   2.812   6.509  16.936 -0.5437 -0.3199  0.0899
16272TIP3    H170307   2.894   6.546  16.903 -1.4581  1.2660 -0.5597
16272TIP3    H270308   2.772   6.467  16.860  0.3799 -2.5637  0.7775
16273TIP3   OH270309   2.588   3.470  13.503  0.1481  0.3216  0.1016
16273TIP3    H170310   2.520   3.432  13.559 -1.9959  0.2434 -2.3553
16273TIP3    H270311   2.670   3.455  13.551 -1.4609 -0.0098  3.0020
16274TIP3   OH270312   3.716   0.957  11.988 -0.6390  0.2917 -0.0339
16274TIP3    H170313   3.722   1.024  12.056 -0.4058 -0.4590  0.6889
16274TIP3    H270314   3.622   0.945  11.974 -0.6912  0.2804  0.3213
16275TIP3   OH270315   6.624   0.841   3.751 -0.2750 -0.3496  0.0278
16275TIP3    H170316   6.530   0.858   3.743 -0.2588 -1.0374 -2.5665
16275TIP3    H270317   6.639   0.766   3.693  1.5188 -1.8390  2.2369
16276TIP3   OH270318   4.174   0.862  14.073  0.5439 -0.1413  0.6771
16276TIP3    H170319   4.104   0.856  14.139  0.0279 -1.6791  0.0497
16276TIP3    H270320   4.207   0.951  14.081 -1.9952  0.9069  0.5073
16277TIP3   OH270321   4.490   2.140  15.535  0.1500 -0.4031  0.7859
16277TIP3    H170322   4.478   2.196  15.612 -0.8397  0.2532  0.1767
16277TIP3    H270323   4.498   2.052  15.570  2.8671  0.1785  1.8658
16278TIP3   OH270324   3.984   2.646   2.284 -0.4344 -0.1252 -0.5024
16278TIP3    H170325   4.043   2.599   2.343 -2.6460 -1.9900  0.3633
16278TIP3    H270326   3.983   2.736   2.317  2.6933  0.2871 -1.2422
16279TIP3   OH270327   0.349   3.295  14.064  0.8485  0.1491 -0.5619
16279TIP3    H170328   0.388   3.207  14.064 -1.3818 -0.9934  1.7319
16279TIP3    H270329   0.309   3.304  13.978 -1.9528 -2.7222  0.2543
16280TIP3   OH270330   2.525   4.802  11.287  0.3831  0.6201 -0.4704
16280TIP3    H170331   2.434   4.800  11.258  0.0860  1.0826  0.3897
16280TIP3    H270332   2.575   4.771  11.212 -0.4901  0.2918 -0.9264
16281TIP3   OH270333   4.375   5.927   5.296 -0.2873  0.3065  0.6609
16281TIP3    H170334   4.448   5.876   5.261  0.0153  0.7761  0.6030
16281TIP3    H270335   4.298   5.871   5.282 -0.4740  1.1435 -2.3901
16282TIP3   OH270336   0.832   4.554   3.973  0.4366  0.0440  0.5071
16282TIP3    H170337   0.907   4.556   4.032 -0.6188  1.4919  1.9007
16282TIP3    H270338   0.830   4.641   3.934  0.0951 -0.3251 -0.3174
16283TIP3   OH270339   5.815   2.125   5.559  0.1115 -0.4127  0.3980
16283TIP3    H170340   5.768   2.208   5.552 -0.1105 -0.4320  1.5300
16283TIP3    H270341   5.747   2.058   5.562  0.2894 -0.6528 -0.5073
16284TIP3   OH270342   3.277   6.712   1.984  0.3926 -0.6658 -0.0419
16284TIP3    H170343   3.181   6.720   1.985  0.4639  1.1556 -1.5587
16284TIP3    H270344   3.297   6.665   1.904  0.7599 -1.9686  0.7893
16285TIP3   OH270345   5.615   4.348   2.062 -0.2477 -0.4184 -0.7822
16285TIP3    H170346   5.556   4.349   2.137  1.7950  0.4670  0.9339
16285TIP3    H270347   5.674   4.275   2.078  3.0684  2.3637  1.0224
16286TIP3   OH270348   0.103   3.923   3.456  0.3135  0.1928 -0.3152
16286TIP3    H170349   0.091   3.872   3.536 -0.9030  3.9122  2.1063
16286TIP3    H270350   0.198   3.929   3.446  0.4807 -1.2483  0.1411
16287TIP3   OH270351   2.254   2.157   3.436 -0.4653  0.3220  0.4284
16287TIP3    H170352   2.340   2.127   3.464 -0.8562 -0.4699  0.8111
16287TIP3    H270353   2.194   2.089   3.465 -1.2339  0.8964  0.2249
16288TIP3   OH270354   2.864   2.111  13.035 -0.2822 -0.6168  0.3899
16288TIP3    H170355   2.794   2.166  13.070  1.0226 -0.1842  2.4513
16288TIP3    H270356   2.875   2.041  13.100  0.3973 -1.3724 -0.5041
16289TIP3   OH270357   1.972   0.210  12.054 -0.0967 -0.1659  0.3334
16289TIP3    H170358   2.021   0.270  12.110 -0.6689  0.4435  0.2045
16289TIP3    H270359   1.987   0.242  11.966 -1.3543  0.5364  0.3449
16290TIP3   OH270360   6.176   4.426  14.120  0.0960 -0.3085  0.1383
16290TIP3    H170361   6.238   4.423  14.193 -0.9439 -0.0515  1.0559
16290TIP3    H270362   6.109   4.489  14.148 -0.8433 -0.9541 -0.6034
16291TIP3   OH270363   0.719   6.114  11.351  0.1425 -0.0818  0.4751
16291TIP3    H170364   0.737   6.058  11.426 -0.0906 -0.3789  0.3135
16291TIP3    H270365   0.624   6.113  11.343  0.1700 -0.1060  0.1384
16292TIP3   OH270366   0.470   0.658  13.049  0.1419 -0.1705  0.0949
16292TIP3    H170367   0.564   0.643  13.040  0.0888 -0.7665  0.4667
16292TIP3    H270368   0.440   0.674  12.959  0.7394  0.9801  0.0787
16293TIP3   OH270369   5.490   1.732   5.533 -0.1966  0.0531  0.8405
16293TIP3    H170370   5.440   1.762   5.457  1.3032  0.3569 -0.0584
16293TIP3    H270371   5.438   1.660   5.569 -0.4312 -0.8088 -1.1083
16294TIP3   OH270372   0.019   4.394   2.006  0.0379 -0.4033  1.0181
16294TIP3    H170373  -0.038   4.319   1.987  0.6496 -0.9039  1.1343
16294TIP3    H270374   0.003   4.414   2.098 -1.4400  0.7496  0.5455
16295TIP3   OH270375   3.122   2.281  11.760 -0.1571  0.2033  0.8559
16295TIP3    H170376   3.124   2.349  11.693  1.4233  0.1444  0.8185
16295TIP3    H270377   3.060   2.216  11.725  1.5591 -0.4455 -1.2073
16296TIP3   OH270378   6.156   5.934  14.979 -0.2741 -0.5041  0.2036
16296TIP3    H170379   6.141   5.844  14.952 -0.5103 -0.4057  0.0140
16296TIP3    H270380   6.197   5.976  14.904 -3.1296  0.4233 -0.9677
16297TIP3   OH270381   1.265   3.359   5.826 -0.6992  0.2820  0.4489
16297TIP3    H170382   1.210   3.287   5.797  0.4080 -0.0940 -0.8216
16297TIP3    H270383   1.234   3.380   5.914 -1.2702 -1.5136  0.7029
16298TIP3   OH270384   1.236   1.787   2.389 -0.0245  0.1424 -0.1976
16298TIP3    H170385   1.178   1.795   2.314  0.0114 -1.4130 -0.4225
16298TIP3    H270386   1.292   1.865   2.385 -1.3162  1.0759 -0.6324
16299TIP3   OH270387   3.383   3.112  11.790 -0.2529 -0.0078 -0.4543
16299TIP3    H170388   3.416   3.048  11.853  0.1399  0.1354 -0.5117
16299TIP3    H270389   3.460   3.161  11.763 -0.6574  0.9827  0.1397
16300TIP3   OH270390   3.401   6.514   6.002 -0.1698  0.0722  0.5835
16300TIP3    H170391   3.493   6.538   5.989  0.5069 -2.0803  0.9749
16300TIP3    H270392   3.353   6.597   5.996  1.6033  1.0522 -1.1892
16301TIP3   OH270393   4.208   3.498  12.019 -0.1721  0.0638 -0.1107
16301TIP3    H170394   4.232   3.406  12.029  1.4938  0.5104  0.2342
16301TIP3    H270395   4.207   3.532  12.109  1.5723  0.9160 -0.3741
16302TIP3   OH270396   5.553   4.288  17.102 -0.3057  0.0687 -0.2171
16302TIP3    H170397   5.610   4.213  17.087 -0.5808 -0.2795  0.4185
16302TIP3    H270398   5.524   4.278  17.193  0.1103  1.2670  0.0616
16303TIP3   OH270399   0.669   2.208  11.964 -0.7865 -0.1049 -0.0097
16303TIP3    H170400   0.752   2.160  11.971  0.7042  2.0764 -1.6187
16303TIP3    H270401   0.642   2.221  12.055  0.5712 -0.9659  0.5517
16304TIP3   OH270402   6.540   2.658  10.768 -0.2928 -0.6014 -0.2905
16304TIP3    H170403   6.574   2.712  10.697 -0.1998  0.0044  0.2034
16304TIP3    H270404   6.485   2.717  10.820  0.6035 -0.6989  0.8271
16305TIP3   OH270405   0.305   1.165   1.180 -0.8449  0.2045  0.1307
16305TIP3    H170406   0.226   1.219   1.181  0.1144  1.6709  0.0178
16305TIP3    H270407   0.356   1.199   1.106  1.9903  2.5430  2.8681
16306TIP3   OH270408   3.258   2.725   0.605  0.1266 -0.1010  0.4465
16306TIP3    H170409   3.186   2.771   0.648  0.9944  1.3725  0.3951
16306TIP3    H270410   3.270   2.771   0.522  1.0586 -0.3920  0.4072
16307TIP3   OH270411   0.786   1.210   4.446  0.2280 -1.0220  0.7535
16307TIP3    H170412   0.785   1.249   4.358 -0.2162 -1.3921  0.5863
16307TIP3    H270413   0.728   1.265   4.498  2.4158  0.7064  1.5132
16308TIP3   OH270414   2.840   1.875   4.011  0.1420  0.2546 -0.3362
16308TIP3    H170415   2.840   1.845   3.920 -0.0022 -0.8202 -0.0001
16308TIP3    H270416   2.765   1.934   4.016  0.2853  0.5009 -0.9656
16309TIP3   OH270417   0.581   4.723   0.418  0.0202 -0.3170  0.3970
16309TIP3    H170418   0.505   4.769   0.381 -0.5544 -2.1431 -0.8821
16309TIP3    H270419   0.553   4.699   0.506  0.0272  1.0277  0.7886
16310TIP3   OH270420   1.705   3.983   5.418 -0.0175 -0.1248  0.6944
16310TIP3    H170421   1.741   4.047   5.356  1.2604 -2.0307 -0.6441
16310TIP3    H270422   1.766   3.909   5.414 -0.8034 -0.9900  3.0432
16311TIP3   OH270423   4.022   3.531   1.404 -0.2509 -0.3018  0.6897
16311TIP3    H170424   3.995   3.440   1.395 -2.1219  0.2413  0.3499
16311TIP3    H270425   3.955   3.581   1.356 -0.5095  1.4028  2.6475
16312TIP3   OH270426   1.340   4.274   3.088  0.1885  0.0172 -0.3516
16312TIP3    H170427   1.297   4.247   3.169 -2.6457 -1.6134 -2.2120
16312TIP3    H270428   1.294   4.354   3.062 -0.8058 -0.9025 -1.5885
16313TIP3   OH270429   0.378   3.975   3.447  0.4906 -0.2799  0.2537
16313TIP3    H170430   0.417   4.049   3.493  1.3212  0.0363 -0.9400
16313TIP3    H270431   0.448   3.939   3.393 -0.5774 -0.3114 -1.1858
16314TIP3   OH270432   2.653   4.782   2.656 -0.4617  0.5298  0.3786
16314TIP3    H170433   2.748   4.774   2.654 -0.5416 -0.9022  1.0172
16314TIP3    H270434   2.634   4.818   2.743 -0.6004 -1.3520  1.1642
16315TIP3   OH270435   1.803   2.410   3.034 -0.0325  0.2104  0.4121
16315TIP3    H170436   1.762   2.379   3.115 -0.2827 -1.6669 -0.3837
16315TIP3    H270437   1.750   2.371   2.964  1.5637 -0.1103 -0.6545
16316TIP3   OH270438   4.644   6.211   3.643 -0.2656  0.0575  0.0798
16316TIP3    H170439   4.614   6.296   3.611  0.9258  0.9442  1.2041
16316TIP3    H270440   4.738   6.209   3.621 -0.3977 -1.2390 -0.4671
16317TIP3   OH270441   0.773   4.101  12.782  0.2610  0.2511  0.2695
16317TIP3    H170442   0.705   4.161  12.751  1.0152  0.2563 -1.4690
16317TIP3    H270443   0.854   4.151  12.777  0.5861 -0.1768  1.0480
16318TIP3   OH270444   0.711   3.637  11.147  0.4422  0.1328 -0.0502
16318TIP3    H170445   0.705   3.566  11.211 -0.2837 -0.5899 -0.8912
16318TIP3    H270446   0.804   3.657  11.143  0.4579  0.4918  1.5348
16319TIP3   OH270447   3.918   5.127  16.924 -0.1922 -0.3263 -0.0462
16319TIP3    H170448   3.990   5.116  16.986 -1.3551  2.2739  1.9592
16319TIP3    H270449   3.959   5.166  16.847  0.7579 -0.2112  0.4956
16320TIP3   OH270450   5.564   4.610   2.322 -0.1436 -0.3956 -0.7933
16320TIP3    H170451   5.559   4.617   2.417  1.3707 -1.3819 -0.6185
16320TIP3    H270452   5.515   4.531   2.300 -3.4203  1.5485 -1.2393
16321TIP3   OH270453   1.588   5.540  15.976 -0.2779 -0.4130  0.9093
16321TIP3    H170454   1.559   5.504  15.893 -0.7641  1.2038  0.3418
16321TIP3    H270455   1.666   5.592  15.954  0.1772 -0.7695  1.6300
16322TIP3   OH270456   1.681   0.370  16.681  0.3978  0.1160 -0.5747
16322TIP3    H170457   1.628   0.359  16.760  1.8617 -0.7992  0.3118
16322TIP3    H270458   1.676   0.285  16.637 -0.9368  0.8071 -1.8521
16323TIP3   OH270459   1.536   4.122   1.736 -0.0030 -0.8044 -0.5242
16323TIP3    H170460   1.565   4.196   1.790  1.1780 -0.7718 -1.1558
16323TIP3    H270461   1.534   4.048   1.796 -0.6202 -0.3914 -0.0166
16324TIP3   OH270462   2.756   1.647  13.621  0.2044  0.0776 -0.8511
16324TIP3    H170463   2.777   1.554  13.632  0.6452  0.2516 -0.1297
16324TIP3    H270464   2.817   1.692  13.679 -1.7262  0.6340  0.9037
16325TIP3   OH270465   3.948   4.228  15.352 -0.7845  0.1025 -0.1661
16325TIP3    H170466   3.917   4.172  15.423  0.1315  0.1574  0.2992
16325TIP3    H270467   3.870   4.272  15.320 -1.4507 -1.0605 -0.2123
16326TIP3   OH270468   4.558   4.350  11.052  0.1040  0.5980 -0.0422
16326TIP3    H170469   4.608   4.432  11.059  1.2886  0.1389 -2.3037
16326TIP3    H270470   4.606   4.289  11.107 -1.3149  1.5741  2.4305
16327TIP3   OH270471   6.614   5.442   3.213 -0.3454 -0.0111  0.1485
16327TIP3    H170472   6.582   5.522   3.170  1.0310 -0.4652 -1.8954
16327TIP3    H270473   6.709   5.455   3.217 -0.2802 -0.8047  1.4288
16328TIP3   OH270474   6.459   3.861  11.113  0.1520  0.3207 -0.0776
16328TIP3    H170475   6.540   3.858  11.061  0.4704  0.1548  0.4289
16328TIP3    H270476   6.392   3.826  11.054  0.6457 -0.5247 -0.1448
16329TIP3   OH270477   4.867   6.315  14.287  0.4751  0.0202  0.4425
16329TIP3    H170478   4.800   6.263  14.244 -0.4232 -0.0934  1.9245
16329TIP3    H270479   4.889   6.265  14.366 -0.5814  1.9271  2.0383
16330TIP3   OH270480   6.319   1.137  16.490  0.5982 -0.6787 -0.1843
16330TIP3    H170481   6.322   1.164  16.398 -0.2666 -2.4417 -0.7781
16330TIP3    H270482   6.245   1.076  16.494 -1.2397  1.4853  2.2842
16331TIP3   OH270483   3.846   3.072   4.458  0.2242  0.6330 -0.0652
16331TIP3    H170484   3.827   2.979   4.474  1.9137  0.1106 -0.8190
16331TIP3    H270485   3.902   3.098   4.532  0.9273  0.6385 -0.5928
16332TIP3   OH270486   3.462   2.507  11.270  0.5083 -0.8385 -0.1085
16332TIP3    H170487   3.421   2.427  11.238 -1.9723  0.6863 -1.1064
16332TIP3    H270488   3.391   2.555  11.313  2.1466  0.4023  1.3535
16333TIP3   OH270489   1.864   1.572  17.256  0.2948  0.1998 -0.0948
16333TIP3    H170490   1.775   1.546  17.232  1.0893 -2.3380 -0.6117
16333TIP3    H270491   1.910   1.578  17.172  0.7889  0.8101  0.2134
16334TIP3   OH270492   4.313   2.942  14.394  0.1038  0.0218 -0.3822
16334TIP3    H170493   4.373   3.015  14.379  1.0989 -1.0764 -2.0578
16334TIP3    H270494   4.367   2.873  14.432 -0.4413 -0.4378 -0.4279
16335TIP3   OH270495   4.794   6.327  15.003  0.1732 -0.1019 -0.7817
16335TIP3    H170496   4.759   6.375  15.078  0.5697  0.7558 -1.1281
16335TIP3    H270497   4.888   6.347  15.005  0.2858 -0.5892 -1.1386
16336TIP3   OH270498   0.859   3.727   2.694 -0.5733 -0.4517 -0.3403
16336TIP3    H170499   0.839   3.805   2.746 -0.4243 -1.7200  1.7208
16336TIP3    H270500   0.776   3.680   2.689 -0.5379 -0.4398 -1.1002
16337TIP3   OH270501   3.474   2.495  11.796  0.3760  0.3095  0.0646
16337TIP3    H170502   3.448   2.585  11.778 -2.9318 -0.7942 -1.3078
16337TIP3    H270503   3.563   2.489  11.760  0.7826  2.9948  0.3709
16338TIP3   OH270504   1.179   6.536   2.384 -0.1488  0.6555  0.1640
16338TIP3    H170505   1.136   6.552   2.468 -1.6900 -0.5149 -0.3584
16338TIP3    H270506   1.171   6.442   2.370  1.5955  0.5697 -0.5330
16339TIP3   OH270507   0.853   3.001  11.340 -0.1937  0.4577 -0.1765
16339TIP3    H170508   0.803   2.952  11.405 -1.8135  2.3200  0.0834
16339TIP3    H270509   0.873   2.937  11.271 -2.4005 -0.5509  0.0276
16340TIP3   OH270510   3.277   2.277   3.175 -0.3018  0.0671 -0.2686
16340TIP3    H170511   3.195   2.239   3.207 -0.6742  1.5417  0.6058
16340TIP3    H270512   3.345   2.218   3.208 -0.9249 -0.5252 -0.0050
16341TIP3   OH270513   1.981   2.124   5.244  0.5398 -0.1385  0.1625
16341TIP3    H170514   1.927   2.203   5.236  0.8427  0.1157  0.5700
16341TIP3    H270515   1.923   2.057   5.278  0.5990  0.2717  1.0978
16342TIP3   OH270516   3.039   3.893  14.140 -0.0479 -0.0202 -0.3427
16342TIP3    H170517   2.996   3.849  14.067 -1.2207  0.3592  0.1044
16342TIP3    H270518   3.015   3.985  14.131  1.0707  0.2899 -0.3457
16343TIP3   OH270519   5.420   1.372   2.299 -0.1784 -0.2712  0.7838
16343TIP3    H170520   5.461   1.411   2.222  0.4435  0.9107  1.6786
16343TIP3    H270521   5.329   1.356   2.272  0.0113  0.1726 -0.1646
16344TIP3   OH270522   2.857   0.444  16.788 -0.8523 -0.9435 -0.6139
16344TIP3    H170523   2.882   0.504  16.717 -0.3774 -0.8266 -0.3545
16344TIP3    H270524   2.909   0.473  16.863  0.3066 -2.4229 -0.7947
16345TIP3   OH270525   1.079   6.016   4.126 -0.2416 -0.3874 -0.0086
16345TIP3    H170526   1.046   5.998   4.213 -1.2352 -0.8782 -0.4783
16345TIP3    H270527   1.174   6.004   4.134 -0.4981 -2.5590  0.5158
16346TIP3   OH270528   0.379   4.088  17.053 -0.2352 -0.0931 -0.1728
16346TIP3    H170529   0.296   4.124  17.084 -0.1649  0.4239 -0.5811
16346TIP3    H270530   0.361   3.994  17.043 -0.1326 -0.3581  1.8039
16347TIP3   OH270531   5.630   6.323   3.444  0.2453  0.1403  0.5514
16347TIP3    H170532   5.618   6.316   3.349  1.6770 -0.0195  0.3565
16347TIP3    H270533   5.656   6.414   3.458  0.8978 -0.0619  0.6753
16348TIP3   OH270534   5.229   3.002   4.062 -0.2123  0.0448  0.6081
16348TIP3    H170535   5.145   2.957   4.066  1.2672 -3.0118  0.1029
16348TIP3    H270536   5.249   3.024   4.153 -1.0672 -0.1228  0.8432
16349TIP3   OH270537   6.007   0.010   2.032 -0.3567 -0.1357 -0.1342
16349TIP3    H170538   5.931   0.040   1.983 -0.5374  0.3802  0.4378
16349TIP3    H270539   6.054  -0.047   1.972 -1.6788 -1.2122 -0.2049
16350TIP3   OH270540   0.269   2.207  11.393  0.1610 -0.1193  0.1008
16350TIP3    H170541   0.313   2.183  11.475  0.2601 -0.3361 -0.0164
16350TIP3    H270542   0.176   2.209  11.416  0.2633  0.8689  0.4826
16351TIP3   OH270543   2.208   3.800  14.853  0.1912 -0.0070  0.4304
16351TIP3    H170544   2.251   3.759  14.928  1.2791 -0.4982 -0.4353
16351TIP3    H270545   2.249   3.759  14.777 -0.1527  1.2241 -0.4454
16352TIP3   OH270546   6.722   2.911  11.281  0.2826 -0.3307 -0.2720
16352TIP3    H170547   6.804   2.861  11.278  0.0132 -0.7447 -1.2783
16352TIP3    H270548   6.676   2.885  11.201 -0.9819 -0.3631  0.4486
16353TIP3   OH270549   4.787   0.414   6.097 -0.7154 -0.1331 -0.3951
16353TIP3    H170550   4.793   0.424   6.192  1.3607 -0.1034 -0.4781
16353TIP3    H270551   4.795   0.320   6.082  0.0339 -0.0517 -0.5669
16354TIP3   OH270552   1.203   3.102  14.130 -0.5806 -0.1871 -0.9541
16354TIP3    H170553   1.253   3.177  14.162 -0.4600 -0.3809 -0.6881
16354TIP3    H270554   1.263   3.057  14.070 -0.1701 -0.8269 -0.0847
16355TIP3   OH270555   1.205   4.855  11.025 -0.0670 -0.4305 -0.7197
16355TIP3    H170556   1.297   4.869  11.046  0.3006 -0.8143 -2.0058
16355TIP3    H270557   1.205   4.824  10.934 -1.5100  0.3482 -1.0218
16356TIP3   OH270558   5.312   3.899   5.052 -0.5449  0.6114 -0.2982
16356TIP3    H170559   5.311   3.994   5.061 -2.7651  0.7412 -1.2509
16356TIP3    H270560   5.330   3.884   4.959 -0.0145  0.0635 -0.1171
16357TIP3   OH270561   4.239   2.986  14.688 -0.5580 -0.3052 -0.5932
16357TIP3    H170562   4.236   2.968  14.594  2.3024 -0.2453 -0.7728
16357TIP3    H270563   4.300   3.059  14.697  1.0687 -1.8104  1.4407
16358TIP3   OH270564   6.289   3.319  17.251  0.2788  0.1256  0.1867
16358TIP3    H170565   6.194   3.319  17.240  0.3404 -0.7854 -0.3512
16358TIP3    H270566   6.323   3.280  17.171  1.2350  2.1801 -0.4839
16359TIP3   OH270567   1.311   5.118   2.242  0.3971  0.0875 -0.1939
16359TIP3    H170568   1.332   5.082   2.328 -0.2120  0.3022  0.0496
16359TIP3    H270569   1.251   5.190   2.260 -2.4082 -1.8802 -0.9518
16360TIP3   OH270570   5.905   5.072  15.760  0.5605  0.8403  0.1671
16360TIP3    H170571   5.892   4.996  15.816  1.0944  1.3679  1.0243
16360TIP3    H270572   5.872   5.146  15.812 -3.2696  0.8884 -1.9321
16361TIP3   OH270573   5.304   1.869   5.819 -0.7504 -0.1558  0.3718
16361TIP3    H170574   5.254   1.848   5.740 -0.8023  0.0144  0.3600
16361TIP3    H270575   5.305   1.787   5.868 -2.4313  0.2377  1.1530
16362TIP3   OH270576   1.220   4.245  11.521  0.3694  0.1271  0.2524
16362TIP3    H170577   1.201   4.174  11.582  1.3842 -0.1165  0.2922
16362TIP3    H270578   1.187   4.213  11.436 -0.3911  0.1728  0.5204
16363TIP3   OH270579   2.479   2.755  14.841  0.2556 -0.1472 -0.1508
16363TIP3    H170580   2.390   2.771  14.807 -0.4113 -0.8745  1.1967
16363TIP3    H270581   2.527   2.721  14.766 -0.5944  0.2603 -0.9048
16364TIP3   OH270582   0.608   4.151  15.886 -0.2260  0.0057  0.2820
16364TIP3    H170583   0.540   4.085  15.874 -0.6052  0.4122  0.1592
16364TIP3    H270584   0.560   4.232  15.905  0.2836 -0.1888  2.6960
16365TIP3   OH270585   1.590   5.396   4.773  0.0058  0.0648 -0.0870
16365TIP3    H170586   1.620   5.327   4.714  0.3654 -0.1499  0.3417
16365TIP3    H270587   1.662   5.408   4.835 -0.2958  0.4108  0.2051
16366TIP3   OH270588   4.493   2.106   2.442 -0.4928  0.1435  1.0726
16366TIP3    H170589   4.534   2.180   2.397  2.9391 -0.0598  3.4488
16366TIP3    H270590   4.507   2.031   2.383 -0.5947  0.7225  0.2978
16367TIP3   OH270591   2.871   1.507   1.998 -0.3424 -0.1993  0.2541
16367TIP3    H170592   2.956   1.470   1.976  0.9898  1.9993  1.2935
16367TIP3    H270593   2.851   1.472   2.085  0.2754  0.4292  0.6636
16368TIP3   OH270594   5.517   2.361   2.118 -0.5050 -0.3109  0.1987
16368TIP3    H170595   5.544   2.384   2.207  0.3206  1.9378 -0.5726
16368TIP3    H270596   5.429   2.397   2.110  0.1416  1.2498 -0.4505
16369TIP3   OH270597   2.322   1.646  16.330  0.3662 -0.4620 -0.6970
16369TIP3    H170598   2.259   1.584  16.366 -0.6373  2.1348  2.5015
16369TIP3    H270599   2.404   1.628  16.376 -0.4046  1.5545  1.7228
16370TIP3   OH270600   6.621   3.560   1.986  0.1554 -0.6728  0.5378
16370TIP3    H170601   6.668   3.530   1.908  0.2175  1.2740 -0.2183
16370TIP3    H270602   6.546   3.500   1.992 -2.1437  1.3469 -3.4171
16371TIP3   OH270603   1.697   0.522  15.542  0.2320  0.0593  0.3641
16371TIP3    H170604   1.671   0.438  15.578  0.7124 -0.2325  0.0334
16371TIP3    H270605   1.683   0.584  15.615  0.6539 -0.4352  0.8719
16372TIP3   OH270606   6.216   1.840   3.244 -0.0156 -0.8239  0.5379
16372TIP3    H170607   6.183   1.809   3.328 -0.5613  0.7424  0.9274
16372TIP3    H270608   6.141   1.834   3.185  0.0685 -0.8964  0.4374
16373TIP3   OH270609   0.607   2.137  14.553  0.5849 -0.4759  0.0806
16373TIP3    H170610   0.542   2.171  14.615 -0.4366 -2.2992  0.0581
16373TIP3    H270611   0.687   2.129  14.605  1.9910  4.8504 -0.5864
16374TIP3   OH270612   1.924   5.488   3.456  0.5039 -1.2630 -0.1050
16374TIP3    H170613   1.919   5.556   3.389  1.3328  0.4211  1.4506
16374TIP3    H270614   1.919   5.535   3.539  1.3790 -3.0823  1.0547
16375TIP3   OH270615   6.213   1.616  13.739  0.1805  0.0012 -0.3210
16375TIP3    H170616   6.233   1.541  13.795  0.2901  1.0825  1.1668
16375TIP3    H270617   6.176   1.578  13.659  1.1049 -1.6599  0.0011
16376TIP3   OH270618   2.863   0.788   1.573  0.3913 -0.4654  0.0510
16376TIP3    H170619   2.934   0.813   1.514 -0.6815 -1.6491 -1.8249
16376TIP3    H270620   2.889   0.702   1.607  0.1990 -0.5588 -0.0399
16377TIP3   OH270621   5.756   2.288  16.440  0.0808  0.0787  0.1973
16377TIP3    H170622   5.728   2.330  16.522 -1.7141  1.0413 -0.8646
16377TIP3    H270623   5.847   2.263  16.457 -0.4224 -0.3793  2.7308
16378TIP3   OH270624   6.109   0.049  12.795 -0.1114  0.0420 -0.5839
16378TIP3    H170625   6.150   0.042  12.881 -1.1817 -0.6799 -0.1176
16378TIP3    H270626   6.016   0.041  12.811 -0.2774 -1.0822 -1.9156
16379TIP3   OH270627   1.009   0.852  10.710  0.1974 -0.7849  0.0446
16379TIP3    H170628   1.101   0.878  10.708  0.1161 -0.2780  1.3618
16379TIP3    H270629   1.011   0.756  10.719  0.6319 -0.6956  1.0515
16380TIP3   OH270630   1.043   2.880  14.728 -0.1105 -0.0684 -0.4148
16380TIP3    H170631   0.968   2.843  14.775 -0.6132  1.1686 -0.2103
16380TIP3    H270632   1.053   2.825  14.651 -0.8756 -0.5798 -0.1601
16381TIP3   OH270633   4.280   6.392  14.277  0.6618 -0.3319 -0.4350
16381TIP3    H170634   4.205   6.380  14.218  1.3405 -0.3976 -1.3006
16381TIP3    H270635   4.245   6.442  14.350 -0.7014 -1.9578  0.1075
16382TIP3   OH270636   2.941   3.235  17.078  0.3630 -0.1335 -0.4290
16382TIP3    H170637   2.893   3.153  17.072 -2.0103  1.1760 -0.3923
16382TIP3    H270638   2.983   3.232  17.164 -0.6661 -0.8360  0.0682
16383TIP3   OH270639   0.984   1.986  15.046  0.0464 -0.1463 -0.5821
16383TIP3    H170640   0.903   1.962  15.091 -0.0474 -1.4248 -1.3905
16383TIP3    H270641   0.970   1.961  14.955  0.8522  0.8775 -1.0128
16384TIP3   OH270642   4.821   3.726   6.292 -1.2590 -0.2193  0.3875
16384TIP3    H170643   4.845   3.701   6.382  0.1498 -2.3974 -0.5016
16384TIP3    H270644   4.905   3.740   6.248 -1.8087 -1.4938 -1.1601
16385TIP3   OH270645   4.502   1.850  10.878 -0.6652  0.1139 -0.3356
16385TIP3    H170646   4.545   1.935  10.892  1.7045 -1.0621 -0.0021
16385TIP3    H270647   4.409   1.872  10.870 -0.1251  2.7468 -0.4175
16386TIP3   OH270648   5.973   2.011   6.501  0.1897 -0.2069  0.6146
16386TIP3    H170649   6.015   1.943   6.448  1.3175  0.3897  0.7072
16386TIP3    H270650   6.023   2.013   6.582  0.7890  1.3577  0.2416
16387TIP3   OH270651   6.638   4.867   3.227 -0.1559  0.4470 -0.0740
16387TIP3    H170652   6.672   4.782   3.199  1.0291  0.9619 -0.2498
16387TIP3    H270653   6.651   4.924   3.151  0.0512  1.0461  0.4075
16388TIP3   OH270654   3.328   2.034   5.892  0.4386 -0.2358 -0.3632
16388TIP3    H170655   3.247   2.003   5.931 -0.2925  2.2323  0.2777
16388TIP3    H270656   3.356   1.964   5.834 -0.6941 -2.2577  1.4208
16389TIP3   OH270657   1.834   5.197   3.447 -0.2850 -0.1797  0.5165
16389TIP3    H170658   1.816   5.182   3.354  2.7611 -0.5341 -0.1117
16389TIP3    H270659   1.872   5.285   3.450 -1.8360  0.4915  1.7043
16390TIP3   OH270660   3.750   5.453   6.082 -0.5991 -0.7819  0.0707
16390TIP3    H170661   3.777   5.362   6.096  1.7745 -0.1329  0.1611
16390TIP3    H270662   3.829   5.496   6.048 -2.5199  0.5636 -3.2097
16391TIP3   OH270663   2.704   6.057  11.642 -0.0517 -0.7056  0.4743
16391TIP3    H170664   2.798   6.075  11.636 -0.0025 -0.3515  1.9032
16391TIP3    H270665   2.699   5.962  11.653  0.1300 -0.7511  0.1672
16392TIP3   OH270666   1.751   5.818   0.768 -0.6678  0.0300 -0.3984
16392TIP3    H170667   1.700   5.879   0.714 -1.8363 -1.0800 -0.5932
16392TIP3    H270668   1.702   5.812   0.850 -1.2587 -1.5531 -0.8290
16393TIP3   OH270669   2.647   1.413   4.882  0.2414  0.4543  0.0329
16393TIP3    H170670   2.729   1.411   4.932  0.7935  0.9964 -0.8134
16393TIP3    H270671   2.630   1.507   4.870 -0.3853  0.3375  0.0088
16394TIP3   OH270672   0.789   5.778  15.419  0.8487  0.2793  0.2448
16394TIP3    H170673   0.802   5.870  15.396  2.4849 -0.3838 -1.6684
16394TIP3    H270674   0.715   5.750  15.365  0.2868  0.4664  0.8991
16395TIP3   OH270675   6.404   0.454   5.785 -0.3606  0.5186  0.1322
16395TIP3    H170676   6.406   0.443   5.690 -0.4286  2.2047 -0.0785
16395TIP3    H270677   6.355   0.378   5.816 -0.7062  0.1699 -1.2033
16396TIP3   OH270678   5.484   1.545   4.247 -0.3059 -0.2544 -0.2401
16396TIP3    H170679   5.519   1.578   4.164  1.2158 -1.3712 -0.0970
16396TIP3    H270680   5.493   1.450   4.241  0.3264 -0.3431  1.3763
16397TIP3   OH270681   0.190   6.465  15.536  0.5592  0.3291 -0.7710
16397TIP3    H170682   0.129   6.539  15.545  1.2860  0.9949 -1.1336
16397TIP3    H270683   0.135   6.390  15.516 -0.1412  0.9129 -1.0561
16398TIP3   OH270684   4.704   3.435  11.453  0.4110 -0.2156  0.0166
16398TIP3    H170685   4.768   3.421  11.523  0.3553 -1.1255 -0.1098
16398TIP3    H270686   4.747   3.403  11.374  0.0865 -0.1112 -0.2030
16399TIP3   OH270687   5.442   5.808   1.795 -0.4369  0.1911  0.4747
16399TIP3    H170688   5.480   5.762   1.870 -1.5027 -0.7108  0.4782
16399TIP3    H270689   5.381   5.871   1.833 -1.9982 -1.1929  0.3660
16400TIP3   OH270690   1.968   4.262   5.358 -0.0482  0.1438  0.4607
16400TIP3    H170691   1.981   4.202   5.432  0.6845 -1.0270 -0.5844
16400TIP3    H270692   2.046   4.250   5.304 -1.2259 -0.1041 -1.2508
16401TIP3   OH270693   6.081   3.432   1.446  0.0137 -0.1909  0.0679
16401TIP3    H170694   6.044   3.352   1.483  1.1498 -1.7824 -2.0088
16401TIP3    H270695   6.161   3.447   1.497  0.1071 -0.7493  0.0957
16402TIP3   OH270696   3.084   2.577  16.437 -0.0990 -0.2578 -0.0871
16402TIP3    H170697   3.098   2.619  16.522  0.3891 -0.1841 -0.1962
16402TIP3    H270698   3.172   2.572  16.399 -0.5418  1.7287 -1.5352
16403TIP3   OH270699   3.979   0.912   3.334 -0.2735  0.1365  0.1041
16403TIP3    H170700   4.063   0.888   3.295 -0.2096 -0.1835  0.4334
16403TIP3    H270701   3.917   0.849   3.299 -0.4257  0.5175 -0.3227
16404TIP3   OH270702   3.000   0.639   2.516 -0.6437 -0.3133  0.7494
16404TIP3    H170703   3.029   0.703   2.451 -1.8350  0.2825  0.7700
16404TIP3    H270704   2.923   0.599   2.477  0.3762 -2.1291  0.5200
16405TIP3   OH270705   6.023   1.908  14.979  0.2081 -0.3014  0.2506
16405TIP3    H170706   6.078   1.963  14.923 -0.1639 -0.7321 -0.5381
16405TIP3    H270707   6.061   1.920  15.067  1.0012  0.1110 -0.1316
16406TIP3   OH270708   2.520   4.853  14.911  0.0588 -0.5453 -0.6550
16406TIP3    H170709   2.564   4.934  14.936  2.3825 -0.8416 -3.3078
16406TIP3    H270710   2.500   4.810  14.993 -0.3063  2.2015  0.8135
16407TIP3   OH270711   5.477   5.710   5.086  0.5457 -0.3822 -0.2612
16407TIP3    H170712   5.466   5.772   5.014  1.4315  0.7432  0.5361
16407TIP3    H270713   5.433   5.751   5.160 -0.0205 -1.3501 -0.0417
16408TIP3   OH270714   3.712   2.280  15.244 -0.3576 -0.1272 -0.5895
16408TIP3    H170715   3.755   2.332  15.176 -0.1271  1.1134  0.4859
16408TIP3    H270716   3.775   2.276  15.315 -0.4011 -1.8448 -0.6091
16409TIP3   OH270717   3.894   3.334  12.842  0.1675 -0.6520 -0.1867
16409TIP3    H170718   3.851   3.416  12.866 -0.5439 -1.6159  2.1227
16409TIP3    H270719   3.964   3.324  12.906 -0.7515 -2.5759  0.5986
16410TIP3   OH270720   3.195   5.003   4.832 -0.1649  0.3882  0.5523
16410TIP3    H170721   3.151   4.928   4.792 -1.8277  1.6208 -0.0224
16410TIP3    H270722   3.248   4.965   4.902  0.9984 -1.5727 -1.2830
16411TIP3   OH270723   0.052   2.716   3.327 -0.0273 -0.9897 -0.8908
16411TIP3    H170724   0.009   2.645   3.374  1.8453 -1.9758 -0.5572
16411TIP3    H270725   0.066   2.784   3.393 -0.1553 -1.0825 -0.7688
16412TIP3   OH270726   2.410   4.345  12.413  0.1805 -0.5922 -0.3404
16412TIP3    H170727   2.337   4.323  12.470  0.1407  1.0932  0.3067
16412TIP3    H270728   2.432   4.436  12.435  3.1437 -1.3303  0.2596
16413TIP3   OH270729   2.614   3.385   4.468  0.3545  0.4272  0.2792
16413TIP3    H170730   2.684   3.331   4.503 -1.0109 -0.9768  0.9392
16413TIP3    H270731   2.581   3.434   4.543  0.0072  0.3708  0.1653
16414TIP3   OH270732   4.696   0.698   3.697 -0.2636  0.1181 -0.6330
16414TIP3    H170733   4.631   0.653   3.751  0.7332 -2.1431 -1.2052
16414TIP3    H270734   4.719   0.634   3.630  4.7994 -0.5593  1.2868
16415TIP3   OH270735   0.911   3.288  11.214 -0.1388  0.4383  0.1000
16415TIP3    H170736   0.888   3.205  11.172  1.8739  0.2663 -0.7295
16415TIP3    H270737   0.927   3.348  11.142 -2.4710  1.9034  0.6738
16416TIP3   OH270738   3.149   5.385   3.484 -0.0058  0.0750 -0.4039
16416TIP3    H170739   3.062   5.354   3.509 -0.6195  1.1328 -1.1376
16416TIP3    H270740   3.148   5.383   3.388  0.4683  0.8962 -0.4356
16417TIP3   OH270741   5.916   3.111   4.806 -0.2796 -0.5599 -0.2245
16417TIP3    H170742   5.989   3.169   4.825  1.1206 -2.0857 -0.7841
16417TIP3    H270743   5.840   3.155   4.845  0.7327  1.5260 -0.4539
16418TIP3   OH270744   5.929   0.449  16.060 -0.3627 -0.0481  0.1976
16418TIP3    H170745   5.928   0.354  16.072 -1.2462 -0.0243  0.3772
16418TIP3    H270746   6.021   0.470  16.045  0.2324 -0.6264  2.5851
16419TIP3   OH270747   5.972   6.244   1.056  0.2493 -0.0455 -0.5607
16419TIP3    H170748   5.877   6.235   1.050  0.2178  0.4218 -0.8819
16419TIP3    H270749   5.986   6.315   1.118  0.3276  0.9597 -1.6817
16420TIP3   OH270750   4.293   5.766  12.878 -0.4565 -0.7141  0.1745
16420TIP3    H170751   4.342   5.838  12.917 -1.4150 -0.8022  1.6369
16420TIP3    H270752   4.258   5.802  12.797 -0.9718  0.5279  0.9122
16421TIP3   OH270753   5.617   0.348  13.265  0.4390  0.0327  0.3077
16421TIP3    H170754   5.530   0.307  13.268  0.2355  0.4831  0.9110
16421TIP3    H270755   5.677   0.277  13.288  0.5331 -0.9619 -2.6212
16422TIP3   OH270756   2.933   3.990  12.441 -0.4315 -0.3398  0.0542
16422TIP3    H170757   2.909   4.063  12.498  0.4792  0.6096 -0.7408
16422TIP3    H270758   2.884   3.915  12.477 -1.9763  0.7911  0.4350
16423TIP3   OH270759   5.998   3.593  16.288  0.1171 -1.1973  0.5449
16423TIP3    H170760   6.059   3.635  16.348  0.1370 -0.7444  0.2166
16423TIP3    H270761   6.007   3.500  16.305  1.4548 -1.1935 -0.0189
16424TIP3   OH270762   6.605   6.252  16.995  0.6964  0.2181 -0.4987
16424TIP3    H170763   6.695   6.220  16.997  0.6473  0.1066  0.0480
16424TIP3    H270764   6.588   6.268  16.902  1.1620 -0.0870 -0.6427
16425TIP3   OH270765   2.785   6.318  12.653  0.2350  0.4052 -0.0196
16425TIP3    H170766   2.855   6.321  12.587  0.5736 -0.4458  0.2848
16425TIP3    H270767   2.829   6.289  12.733 -0.1552  1.5091  0.6206
16426TIP3   OH270768   5.107   6.403  13.258  0.2211 -0.2527  0.9201
16426TIP3    H170769   5.197   6.430  13.276 -0.5182  1.5494  2.2322
16426TIP3    H270770   5.094   6.421  13.165  2.0982 -3.4908 -0.1256
16427TIP3   OH270771   1.677   3.200   0.140 -0.1152  0.2503 -0.1012
16427TIP3    H170772   1.640   3.133   0.083  0.6427 -0.5674  0.3493
16427TIP3    H270773   1.692   3.156   0.223  1.4345  0.6689 -0.1299
16428TIP3   OH270774   3.797   3.616  13.400  0.4127 -0.1912  0.5239
16428TIP3    H170775   3.808   3.529  13.439 -0.3657 -0.4453  0.2017
16428TIP3    H270776   3.884   3.638  13.367  0.3162 -1.5009 -0.7073
16429TIP3   OH270777   4.696   6.146   4.357  0.1429 -0.0609 -0.4981
16429TIP3    H170778   4.757   6.170   4.427 -0.1618  1.3788 -0.6999
16429TIP3    H270779   4.751   6.142   4.279  0.3871 -1.1435 -0.2866
16430TIP3   OH270780   0.801   2.850   5.238  0.2306 -0.1624 -0.6594
16430TIP3    H170781   0.743   2.780   5.211 -0.2047  0.0830 -0.3711
16430TIP3    H270782   0.889   2.818   5.217 -0.0046 -0.5416 -1.0754
16431TIP3   OH270783   5.149   2.841   2.388  0.0614  0.1082  0.2629
16431TIP3    H170784   5.159   2.759   2.340 -0.1113 -0.0789  0.5466
16431TIP3    H270785   5.077   2.825   2.448  1.1649 -0.1530  1.5848
16432TIP3   OH270786   4.930   0.523  17.387  0.1238 -0.2536  0.7617
16432TIP3    H170787   4.883   0.597  17.424  0.6610  0.1682  0.6054
16432TIP3    H270788   5.017   0.526  17.426  0.1119 -0.8795  0.8548
16433TIP3   OH270789   0.686   4.563   5.245 -0.3166  0.0329  0.0269
16433TIP3    H170790   0.749   4.516   5.301 -0.0315  1.4065  0.9002
16433TIP3    H270791   0.623   4.496   5.218  0.2667 -0.9181  0.9593
16434TIP3   OH270792   6.342   1.724  11.803 -0.3486 -0.0895 -0.1045
16434TIP3    H170793   6.317   1.782  11.730 -0.9128 -1.0290 -0.6862
16434TIP3    H270794   6.419   1.679  11.771  0.0800  0.3181  0.3435
16435TIP3   OH270795   3.257   4.802  12.012  0.6934 -0.3360 -0.4258
16435TIP3    H170796   3.204   4.812  12.091  0.3169 -0.2739 -0.6826
16435TIP3    H270797   3.218   4.862  11.949  0.3785 -1.0920 -0.9738
16436TIP3   OH270798   1.305   2.501  16.669 -0.8175 -0.3061 -0.0981
16436TIP3    H170799   1.270   2.465  16.750 -1.7669 -1.9638 -1.1634
16436TIP3    H270800   1.365   2.433  16.637  1.5238  1.3891  0.4146
16437TIP3   OH270801   0.549   3.355   3.895 -0.7954  0.5928 -0.0485
16437TIP3    H170802   0.567   3.426   3.957 -0.7510 -0.8838  1.7239
16437TIP3    H270803   0.636   3.319   3.874 -0.8577  0.7191 -0.5426
16438TIP3   OH270804   4.943   3.992   5.830 -0.7465 -0.6503 -0.0728
16438TIP3    H170805   4.956   3.989   5.925  1.1821 -0.3231 -0.2879
16438TIP3    H270806   4.871   4.055   5.818  1.5205  2.4409  1.0506
16439TIP3   OH270807   0.864   4.849  16.159 -0.0155  0.3295  0.0849
16439TIP3    H170808   0.828   4.938  16.156  0.7844  0.8290  2.6475
16439TIP3    H270809   0.944   4.854  16.105  0.2869  1.3213  0.6001
16440TIP3   OH270810   6.541   5.863  11.989 -0.4596  0.4551 -0.0728
16440TIP3    H170811   6.522   5.865  11.895  0.8622 -0.7961 -0.4072
16440TIP3    H270812   6.636   5.874  11.994 -0.3516 -0.7407  1.0029
16441TIP3   OH270813   1.719   1.305   5.064 -0.2775 -0.2007  0.1808
16441TIP3    H170814   1.813   1.283   5.068 -0.0499  0.0539 -2.0991
16441TIP3    H270815   1.706   1.332   4.973 -2.5108  0.1051  0.5585
16442TIP3   OH270816   5.062   4.482   4.955  0.0391  1.0609  0.1299
16442TIP3    H170817   5.124   4.455   5.022  1.1998  1.9951 -0.5333
16442TIP3    H270818   5.018   4.559   4.991 -1.6848 -0.3079  1.1096
16443TIP3   OH270819   1.330   4.181   1.149  0.1003  0.9407  0.4470
16443TIP3    H170820   1.420   4.208   1.164  1.1870 -0.6168 -2.4933
16443TIP3    H270821   1.316   4.108   1.209  0.2042  2.1452  1.9959
16444TIP3   OH270822   0.146   0.896  16.433  0.1199  0.6229  0.0368
16444TIP3    H170823   0.213   0.963  16.425 -1.0273  1.8255  0.0615
16444TIP3    H270824   0.078   0.923  16.371 -0.3324 -0.5705 -0.0127
16445TIP3   OH270825   2.121   3.048  14.019  0.2566  0.2166 -0.3356
16445TIP3    H170826   2.106   2.961  14.056 -2.5786  0.2294 -1.1665
16445TIP3    H270827   2.152   3.031  13.930  1.6991  0.1374  0.1508
16446TIP3   OH270828   2.892   2.780  13.494 -0.6244  0.1247  0.1736
16446TIP3    H170829   2.839   2.859  13.506 -0.1316  0.3475  0.9490
16446TIP3    H270830   2.982   2.809  13.509 -0.5035 -0.7255  1.2239
16447TIP3   OH270831   4.695   5.185   4.777  0.3438 -0.5697  0.0204
16447TIP3    H170832   4.660   5.121   4.716  0.9140  0.5685 -1.5678
16447TIP3    H270833   4.621   5.208   4.834 -0.0782 -1.9750  0.0608
16448TIP3   OH270834   0.359   2.169  10.734 -0.4266  0.1661 -0.8463
16448TIP3    H170835   0.320   2.156  10.648 -2.3112  0.1831 -0.0324
16448TIP3    H270836   0.298   2.226  10.780  2.2483  3.1386 -0.6187
16449TIP3   OH270837   0.466   6.291  14.380 -0.2313  0.1430 -0.4221
16449TIP3    H170838   0.527   6.310  14.451 -1.1803 -0.4828  0.5904
16449TIP3    H270839   0.518   6.241  14.317  0.2463 -0.7042  0.5948
16450TIP3   OH270840   3.809   6.191   1.481  0.3760 -0.0020  0.2432
16450TIP3    H170841   3.795   6.097   1.474  1.9486 -0.4362  1.9869
16450TIP3    H270842   3.903   6.202   1.469  0.2094  1.3595  0.0185
16451TIP3   OH270843   1.381   5.621  15.233  0.0998  0.1397  0.5799
16451TIP3    H170844   1.413   5.559  15.168 -0.3960  1.9048 -1.4968
16451TIP3    H270845   1.314   5.573  15.281 -0.8093 -0.7533 -1.4481
16452TIP3   OH270846   3.387   3.360  16.164  0.3570 -0.5147  0.3011
16452TIP3    H170847   3.464   3.414  16.180 -0.2205  0.7981 -1.1439
16452TIP3    H270848   3.317   3.422  16.148 -0.3745 -1.6688 -1.2466
16453TIP3   OH270849   0.921   2.068  12.415  0.1731  0.0041  0.3966
16453TIP3    H170850   0.995   2.008  12.411  2.1091  2.1225  1.8989
16453TIP3    H270851   0.901   2.074  12.509 -0.2357  1.3419  0.2454
16454TIP3   OH270852   1.334   4.388  14.881  0.5027 -0.3097  0.2277
16454TIP3    H170853   1.339   4.364  14.973 -1.5676 -1.1019  0.2017
16454TIP3    H270854   1.331   4.304  14.835 -0.3991  0.0345 -0.3839
16455TIP3   OH270855   6.752   0.885  13.929 -0.3608  0.1020  0.1100
16455TIP3    H170856   6.777   0.793  13.937 -0.6749  0.0460  0.4939
16455TIP3    H270857   6.739   0.914  14.019 -0.0039  0.5983  0.0025
16456TIP3   OH270858   0.230   4.215  13.773 -0.4241 -0.5149  0.6887
16456TIP3    H170859   0.227   4.303  13.811 -1.8354 -1.1829  2.2464
16456TIP3    H270860   0.308   4.175  13.812 -0.3769 -0.3052  0.8098
16457TIP3   OH270861   2.679   6.087  16.511  0.6596  0.1376  0.4792
16457TIP3    H170862   2.635   6.003  16.522  0.7848 -0.2537 -1.5982
16457TIP3    H270863   2.619   6.151  16.550 -0.0236 -0.7663  0.9565
16458TIP3   OH270864   2.991   0.994   1.089  0.7568 -0.4099  0.1081
16458TIP3    H170865   2.964   0.920   1.143 -2.4734  0.1822 -0.4487
16458TIP3    H270866   2.968   0.969   1.000  0.7101  0.7680 -0.2355
16459TIP3   OH270867   6.563   5.932   1.276 -0.2503  0.7159  0.3794
16459TIP3    H170868   6.606   5.847   1.263  0.9609  0.9509  2.4447
16459TIP3    H270869   6.598   5.987   1.206  0.9228  0.2026  0.5374
16460TIP3   OH270870   4.286   4.965  12.596  0.7913 -0.3890  0.0552
16460TIP3    H170871   4.370   4.922  12.603  0.5857 -0.4997  3.9184
16460TIP3    H270872   4.305   5.058  12.610  0.3121 -0.4068  0.8860
16461TIP3   OH270873   4.361   3.513   5.419  0.4742 -0.5973  0.2990
16461TIP3    H170874   4.342   3.553   5.335 -0.5850  0.2649  0.9183
16461TIP3    H270875   4.316   3.428   5.416  0.3224 -0.5090  0.0442
16462TIP3   OH270876   4.525   3.735  13.414 -0.3616  0.3239 -0.3464
16462TIP3    H170877   4.504   3.665  13.352  1.8269 -1.1245  0.4543
16462TIP3    H270878   4.539   3.690  13.497 -3.1637  2.2105  1.3396
16463TIP3   OH270879   2.474   2.000  15.752 -0.2461  0.5299  0.1780
16463TIP3    H170880   2.424   2.081  15.762  1.6287  1.6334  1.1966
16463TIP3    H270881   2.530   2.016  15.676 -1.1163 -0.5546 -0.7332
16464TIP3   OH270882   3.997   4.326  10.574 -0.2560 -0.9126 -0.0039
16464TIP3    H170883   3.933   4.381  10.528  0.0316 -0.7154 -0.1718
16464TIP3    H270884   4.056   4.295  10.506  0.0883 -0.7347  0.2070
16465TIP3   OH270885   4.488   0.047   3.609  0.4873 -0.3844  0.2650
16465TIP3    H170886   4.548   0.029   3.682  0.5308 -1.4845 -0.0248
16465TIP3    H270887   4.522  -0.005   3.536 -0.1397 -0.0848 -0.2544
16466TIP3   OH270888   2.765   3.985   2.501 -0.3027 -0.2214  0.0938
16466TIP3    H170889   2.835   3.920   2.497  0.3157  0.4417 -0.0533
16466TIP3    H270890   2.688   3.939   2.467  0.2963 -0.6440 -0.7332
16467TIP3   OH270891   0.945   6.191   5.125  0.3409  0.2450 -0.1895
16467TIP3    H170892   0.909   6.218   5.210  1.0640  0.8033 -0.0528
16467TIP3    H270893   0.944   6.095   5.128 -1.0389  0.2427 -0.1603
16468TIP3   OH270894   0.057   2.200  14.962 -0.3686 -0.3904 -0.0794
16468TIP3    H170895   0.002   2.272  14.933  0.2465 -0.3257 -1.1408
16468TIP3    H270896   0.145   2.239  14.970 -0.4190 -0.5246  1.4235
16469TIP3   OH270897   5.051   3.151  12.648 -0.1533 -0.0967 -0.1217
16469TIP3    H170898   5.059   3.216  12.578 -0.4245 -1.7574 -1.7957
16469TIP3    H270899   4.958   3.127  12.648  0.1629 -1.4097 -0.4639
16470TIP3   OH270900   5.583   2.570   6.208 -0.6434  0.1010 -0.2499
16470TIP3    H170901   5.658   2.629   6.209  0.3906 -1.1611  1.0632
16470TIP3    H270902   5.507   2.627   6.212  0.3292  1.3542  2.0624
16471TIP3   OH270903   0.626   1.445   4.879 -0.0487  0.0789 -0.8027
16471TIP3    H170904   0.675   1.527   4.889  2.7589 -1.5556  0.0578
16471TIP3    H270905   0.589   1.429   4.966  0.3545 -0.0995 -0.6608
16472TIP3   OH270906   3.126   6.471  15.773 -0.1933 -0.2334  0.7922
16472TIP3    H170907   3.200   6.415  15.750 -1.6125 -1.4706 -1.1217
16472TIP3    H270908   3.111   6.524  15.695 -0.7505  0.6575  1.4864
16473TIP3   OH270909   0.633   3.469  11.345 -0.3475 -0.3046  0.4766
16473TIP3    H170910   0.687   3.398  11.380 -0.4031 -1.1836 -1.1463
16473TIP3    H270911   0.544   3.448  11.374 -0.0647  0.3350  1.8811
16474TIP3   OH270912   2.245   0.295   0.670  0.1109 -0.0160  0.3276
16474TIP3    H170913   2.226   0.245   0.590  2.1606 -0.1273 -0.1371
16474TIP3    H270914   2.194   0.251   0.738 -2.4550  0.6603 -1.0240
16475TIP3   OH270915   3.644   6.122   5.560  0.2086 -0.0476  0.3952
16475TIP3    H170916   3.644   6.045   5.616 -1.9832  0.6122  1.4454
16475TIP3    H270917   3.630   6.088   5.472 -3.3535 -0.8506  1.1109
16476TIP3   OH270918   0.988   0.515  15.385  0.0831 -0.0447 -0.3347
16476TIP3    H170919   0.924   0.449  15.410  0.5414 -0.1343  0.6465
16476TIP3    H270920   0.998   0.504  15.290  0.6744 -1.8752 -0.0960
16477TIP3   OH270921   6.467   3.549  14.252 -0.4872 -0.1377 -0.1932
16477TIP3    H170922   6.467   3.630  14.302  3.8371  1.0933 -1.6924
16477TIP3    H270923   6.512   3.486  14.309 -0.7706 -0.4553 -0.3189
16478TIP3   OH270924   1.525   6.358  10.996 -0.1468  0.6201  0.5992
16478TIP3    H170925   1.557   6.442  10.964 -1.1919  0.9598  0.4127
16478TIP3    H270926   1.448   6.379  11.049 -0.2256 -0.1849  0.8290
16479TIP3   OH270927   5.704   5.323  12.749  0.5155  0.3162 -0.2942
16479TIP3    H170928   5.698   5.242  12.700  0.5433 -0.0669  0.3289
16479TIP3    H270929   5.739   5.387  12.686 -0.6439  0.1549 -1.1410
16480TIP3   OH270930   1.755   1.591   2.316  0.0550  0.1854  0.3986
16480TIP3    H170931   1.782   1.568   2.405  1.3272  1.4081  0.3647
16480TIP3    H270932   1.687   1.657   2.329  0.0584  0.1767  0.4614
16481TIP3   OH270933   0.342   5.542  16.861 -0.5145  0.1842  0.3072
16481TIP3    H170934   0.312   5.469  16.915  0.5663 -2.0018 -1.8537
16481TIP3    H270935   0.437   5.530  16.856 -0.2914  1.8408 -0.0231
16482TIP3   OH270936   0.925   0.952  13.284 -0.1394 -0.9730  0.2218
16482TIP3    H170937   0.833   0.960  13.306 -0.0843 -1.0492  0.4865
16482TIP3    H270938   0.971   0.962  13.368  0.1293 -0.2623 -0.0016
16483TIP3   OH270939   3.159   3.735  13.027  0.1831 -0.3297  0.0820
16483TIP3    H170940   3.129   3.818  13.064 -0.9253 -0.6708 -0.0258
16483TIP3    H270941   3.213   3.760  12.952  0.6627  0.3065  0.6201
16484TIP3   OH270942   2.855   2.786   3.130 -0.7276 -0.2042  0.5226
16484TIP3    H170943   2.928   2.773   3.190  1.6534  0.2780 -2.0662
16484TIP3    H270944   2.825   2.875   3.148  1.0280  0.5308 -0.0371
16485TIP3   OH270945   3.634   1.500  13.450  0.2180  0.6341 -1.0502
16485TIP3    H170946   3.557   1.546  13.483  0.4005  1.5506 -1.8723
16485TIP3    H270947   3.705   1.563  13.458  1.5470 -1.0167  2.1997
16486TIP3   OH270948   0.103   6.037   3.468  0.1183  0.3549 -0.5689
16486TIP3    H170949   0.105   6.128   3.439 -0.5303  0.7298  0.5179
16486TIP3    H270950   0.168   6.033   3.538 -1.2133  0.4922  0.7360
16487TIP3   OH270951   3.059   6.687  11.349  0.1049 -0.2664 -0.0894
16487TIP3    H170952   3.004   6.617  11.384 -0.3513 -0.1981 -0.6640
16487TIP3    H270953   3.149   6.655  11.361 -0.1051 -1.0702 -0.5823
16488TIP3   OH270954   6.322   6.028  16.226 -0.3253  0.7332  0.5050
16488TIP3    H170955   6.342   6.120  16.209  1.5572  0.5302  1.4097
16488TIP3    H270956   6.351   5.982  16.147  0.2662  0.7449  0.7122
16489TIP3   OH270957   5.404   1.908  14.414  0.0466  0.6205  0.4229
16489TIP3    H170958   5.344   1.970  14.456  2.1719  1.6121  2.1258
16489TIP3    H270959   5.489   1.927  14.452  1.0562 -2.3680 -0.1368
16490TIP3   OH270960   3.168   5.671  14.726  0.4389 -0.1401  0.1084
16490TIP3    H170961   3.211   5.716  14.653 -0.2156 -0.9069 -0.7764
16490TIP3    H270962   3.074   5.680  14.707  0.2032  0.7902  1.5597
16491TIP3   OH270963   6.748   0.995  12.766  0.5534  0.0893  0.0227
16491TIP3    H170964   6.698   1.039  12.835 -0.1658 -0.2323 -0.2853
16491TIP3    H270965   6.695   0.920  12.742  0.9893 -0.0232 -0.6120
16492TIP3   OH270966   5.983   1.792  12.148 -0.3164  0.7887 -0.6645
16492TIP3    H170967   6.049   1.848  12.188 -0.9772 -0.5642  2.6164
16492TIP3    H270968   6.030   1.747  12.077  2.1494  0.4143  1.0786
16493TIP3   OH270969   0.507   2.424  14.019  0.0333  0.0033 -0.1052
16493TIP3    H170970   0.435   2.397  14.076  1.2693 -0.0987  1.4513
16493TIP3    H270971   0.542   2.503  14.060  1.4033 -0.4738 -0.3177
16494TIP3   OH270972   3.877   1.759  12.732  0.0016  0.3681  0.0292
16494TIP3    H170973   3.933   1.697  12.779 -0.6531 -0.7228 -0.5880
16494TIP3    H270974   3.829   1.705  12.670 -0.8926  1.4514 -0.2474
16495TIP3   OH270975   5.765   1.126  13.171  0.4069  0.1116  0.2965
16495TIP3    H170976   5.773   1.046  13.118  0.1770 -0.5536  1.2272
16495TIP3    H270977   5.849   1.170  13.160  0.1781  0.2495 -1.0115
16496TIP3   OH270978   1.028   0.348  13.028 -0.3504 -0.3356  0.8907
16496TIP3    H170979   1.103   0.359  12.969 -2.0405 -0.8452 -1.5490
16496TIP3    H270980   1.002   0.256  13.017  0.3499 -1.0087  3.9582
16497TIP3   OH270981   4.337   2.708   0.369  0.4344 -0.8199  0.7215
16497TIP3    H170982   4.353   2.652   0.445 -3.5084 -0.2455  2.2577
16497TIP3    H270983   4.314   2.793   0.407 -1.0899 -0.3522 -1.0881
16498TIP3   OH270984   2.741   3.649   3.778 -0.0191  0.2887  0.2820
16498TIP3    H170985   2.788   3.574   3.743 -0.3897 -0.4430  1.3218
16498TIP3    H270986   2.798   3.724   3.758  0.2442 -0.2209 -0.9596
16499TIP3   OH270987   0.271   1.271  13.641 -0.2360 -0.4837  0.5376
16499TIP3    H170988   0.264   1.365  13.624 -0.0092 -0.1640  2.1024
16499TIP3    H270989   0.252   1.230  13.556  1.8165  1.0223 -0.7386
16500TIP3   OH270990   0.087   4.929   3.894  0.7880 -0.1511 -0.4484
16500TIP3    H170991   0.158   4.993   3.887  0.9889 -0.3233 -0.0765
16500TIP3    H270992   0.116   4.870   3.964  1.0886 -1.2633 -1.4823
16501TIP3   OH270993   3.244   0.717   2.829  0.6961 -0.4390 -0.5859
16501TIP3    H170994   3.187   0.644   2.853 -0.3553  0.8475  1.0150
16501TIP3    H270995   3.322   0.705   2.884  2.4652 -2.6167 -3.2977
16502TIP3   OH270996   6.264   3.317   2.685 -0.0379  0.0182  0.1448
16502TIP3    H170997   6.350   3.358   2.674  0.1318 -0.1673  0.7492
16502TIP3    H270998   6.218   3.374   2.747 -0.5697  0.4329 -0.6091
16503TIP3   OH270999   5.787   1.968  12.743 -0.6437 -0.1130  0.0587
16503TIP3    H171000   5.725   1.896  12.728 -0.6707  0.0717 -0.7579
16503TIP3    H271001   5.735   2.036  12.786 -1.0711  0.1243 -0.8116
16504TIP3   OH271002   4.583   2.734  16.823  0.1790 -0.3692 -0.1476
16504TIP3    H171003   4.659   2.721  16.881  0.0604 -1.0201 -0.1347
16504TIP3    H271004   4.527   2.658  16.839 -0.2557 -0.1281 -0.5061
16505TIP3   OH271005   5.260   4.656  12.225 -0.4788 -0.3792  0.2526
16505TIP3    H171006   5.261   4.589  12.157 -0.6966 -0.3624  0.2315
16505TIP3    H271007   5.182   4.635  12.277  1.2862 -2.2380  2.3478
16506TIP3   OH271008   3.866   0.845   4.348  0.2304 -0.2933 -0.8659
16506TIP3    H171009   3.785   0.799   4.369  0.6853 -0.5257  0.4699
16506TIP3    H271010   3.920   0.780   4.304  0.8902 -1.1001  1.0592
16507TIP3   OH271011   2.007   4.739  11.457  0.1169 -0.5298  0.7486
16507TIP3    H171012   2.041   4.672  11.398  0.1081 -0.6286  0.8555
16507TIP3    H271013   2.084   4.773  11.503  0.4551  1.1879 -0.9829
16508TIP3   OH271014   0.123   2.920  13.261 -0.2554  0.1546  0.1063
16508TIP3    H171015   0.032   2.925  13.292 -0.2981  1.0473 -0.1397
16508TIP3    H271016   0.172   2.975  13.322  0.1792 -0.5675  0.4193
16509TIP3   OH271017   0.029   1.649   3.129  0.5423 -0.2817  0.0522
16509TIP3    H171018   0.026   1.724   3.069  1.0231 -0.3660 -0.0830
16509TIP3    H271019   0.067   1.579   3.077 -0.4245 -0.7851  0.0119
16510TIP3   OH271020   4.638   4.367  15.673 -0.0963 -0.0094  0.1789
16510TIP3    H171021   4.568   4.319  15.716  0.7750 -1.2143  0.2825
16510TIP3    H271022   4.652   4.444  15.729  0.7216 -1.3189  1.8411
16511TIP3   OH271023   6.396   2.152  17.441 -0.1731 -0.7123  0.5963
16511TIP3    H171024   6.332   2.110  17.500 -0.8052 -0.3182  0.2065
16511TIP3    H271025   6.475   2.100  17.451 -0.4672 -1.0438  1.3107
16512TIP3   OH271026   4.647   0.720  14.373 -0.3215  0.8072 -0.3927
16512TIP3    H171027   4.633   0.637  14.328 -1.3941  0.9767 -0.3924
16512TIP3    H271028   4.606   0.709  14.459  1.7688  0.4609  0.6308
16513TIP3   OH271029   3.713   6.708  13.446  0.1237  0.2012 -0.1667
16513TIP3    H171030   3.800   6.748  13.438  0.2402 -0.3482 -1.9278
16513TIP3    H271031   3.728   6.616  13.427 -1.1314  0.4219 -2.6067
16514TIP3   OH271032   2.159   4.187  16.781 -0.2465 -0.4296  0.0624
16514TIP3    H171033   2.115   4.163  16.863 -1.9223  0.1143 -0.6271
16514TIP3    H271034   2.197   4.105  16.751 -0.9346 -0.9772  0.6266
16515TIP3   OH271035   1.824   5.128  11.084 -0.7788 -0.0370  0.0909
16515TIP3    H171036   1.803   5.117  10.991  0.0149  0.2599 -0.1328
16515TIP3    H271037   1.842   5.039  11.115 -0.0655 -0.0413 -0.2967
16516TIP3   OH271038   3.352   1.599  15.375 -0.6547 -0.5810 -0.0530
16516TIP3    H171039   3.435   1.642  15.352 -1.1331 -0.1128 -0.9282
16516TIP3    H271040   3.322   1.559  15.294 -2.4237  1.1811 -0.3211
16517TIP3   OH271041   1.972   1.921   2.424  0.3447 -0.0066  0.7484
16517TIP3    H171042   2.011   1.999   2.466  0.7791  1.0725 -1.4985
16517TIP3    H271043   1.927   1.956   2.347  0.5801 -1.9836 -0.3432
16518TIP3   OH271044   6.112   1.828   5.633  0.3433 -0.1393  0.3369
16518TIP3    H171045   6.166   1.907   5.627 -1.5140  1.1471 -0.4096
16518TIP3    H271046   6.111   1.793   5.544 -0.3964  0.1139  0.2384
16519TIP3   OH271047   5.162   5.496  16.497 -0.2407 -0.3737 -0.3305
16519TIP3    H171048   5.161   5.527  16.407 -2.0965  0.6710  0.0014
16519TIP3    H271049   5.092   5.431  16.501 -0.9645  0.4265  0.5943
16520TIP3   OH271050   3.766   0.821  16.710  0.4035  0.4499  0.3435
16520TIP3    H171051   3.769   0.910  16.745  1.1044  0.3883  0.4499
16520TIP3    H271052   3.749   0.766  16.786 -1.1613  0.5777  0.1144
16521TIP3   OH271053   0.641   2.101   5.938  0.0332  0.4317  1.2328
16521TIP3    H171054   0.715   2.154   5.966  0.4272  0.3966  0.2799
16521TIP3    H271055   0.566   2.139   5.984  0.6044  0.6000  2.0364
16522TIP3   OH271056   2.553   5.278  13.690 -0.0886 -0.2964  0.7548
16522TIP3    H171057   2.647   5.294  13.696 -0.2248  0.5632  0.6896
16522TIP3    H271058   2.544   5.208  13.625  0.5449 -0.8679  1.2690
16523TIP3   OH271059   6.683   5.548  13.368 -0.3037 -0.0602  0.5557
16523TIP3    H171060   6.624   5.483  13.407 -3.4756 -0.1423 -3.6938
16523TIP3    H271061   6.754   5.496  13.329 -1.4898 -0.7962 -0.6833
16524TIP3   OH271062   3.953   3.202  14.172  0.2552  0.6169 -0.0334
16524TIP3    H171063   3.952   3.215  14.267 -0.9224  0.8372 -0.0633
16524TIP3    H271064   3.873   3.245  14.141 -0.5879 -1.4218 -0.8465
16525TIP3   OH271065   5.714   5.001  10.974 -0.3054  0.2294  0.3653
16525TIP3    H171066   5.628   4.983  11.013 -0.8481 -1.2480 -1.3958
16525TIP3    H271067   5.744   4.917  10.941  1.0165  1.0541 -0.6462
16526TIP3   OH271068   5.839   4.254  11.967  0.7276  0.4943 -0.0966
16526TIP3    H171069   5.809   4.309  12.040  0.8702  1.7436 -0.9457
16526TIP3    H271070   5.923   4.292  11.942  1.0988 -0.4748 -0.3595
16527TIP3   OH271071   1.087   2.235   3.641 -0.1930 -0.0490  0.0754
16527TIP3    H171072   1.145   2.311   3.646  0.0830 -0.1342 -1.4182
16527TIP3    H271073   1.037   2.248   3.561 -0.2584 -1.3490 -0.1173
16528TIP3   OH271074   4.756   6.341  12.647 -0.8429  0.7481  0.6234
16528TIP3    H171075   4.719   6.276  12.707  1.6492  0.1555  1.6728
16528TIP3    H271076   4.776   6.292  12.568  1.2443  0.0698  1.4951
16529TIP3   OH271077   0.147   4.789  14.658 -0.0491  0.1962 -0.2298
16529TIP3    H171078   0.228   4.830  14.630 -0.2266  0.0523 -0.9594
16529TIP3    H271079   0.080   4.825  14.601 -0.5473  0.4905  0.5158
16530TIP3   OH271080   1.778   1.914   5.355  0.6226 -0.4274 -0.4317
16530TIP3    H171081   1.847   1.849   5.367  3.0581  2.1778  0.8433
16530TIP3    H271082   1.756   1.944   5.443 -0.7404  0.1877 -0.9429
16531TIP3   OH271083   3.313   3.003   5.731  0.1187 -0.0234  0.5765
16531TIP3    H171084   3.387   2.946   5.712  0.2058  0.4414 -0.5033
16531TIP3    H271085   3.352   3.081   5.772  0.4757  1.0379 -1.6448
16532TIP3   OH271086   3.412   2.977  15.998  0.4063 -0.2450 -0.2689
16532TIP3    H171087   3.335   3.008  15.952  0.3188 -0.4444 -0.2600
16532TIP3    H271088   3.470   3.053  16.003 -0.7864  0.6027  1.8608
16533TIP3   OH271089   4.408   6.590   5.063 -0.2468 -0.0499  0.5828
16533TIP3    H171090   4.461   6.515   5.033  0.0255  0.4367 -0.1723
16533TIP3    H271091   4.471   6.648   5.105 -0.3200  0.1273  0.4491
16534TIP3   OH271092   3.139   2.669  16.678 -0.4900 -0.3428 -0.0470
16534TIP3    H171093   3.189   2.750  16.690 -2.6300  0.9243  0.7769
16534TIP3    H271094   3.085   2.662  16.756  0.5270 -3.2994  0.5137
16535TIP3   OH271095   2.514   0.603   4.475  0.2376  0.2666 -0.6456
16535TIP3    H171096   2.547   0.692   4.488  2.2979  0.0940 -3.6375
16535TIP3    H271097   2.483   0.577   4.561 -0.7198  3.9314  0.3015
16536TIP3   OH271098   3.602   1.841   1.440  0.3993 -0.6428 -0.5380
16536TIP3    H171099   3.586   1.933   1.421  1.0418 -0.1357  1.1432
16536TIP3    H271100   3.690   1.824   1.406  0.5073 -0.4708 -0.3466
16537TIP3   OH271101   4.601   0.892  14.108  0.4455 -0.7093 -0.3233
16537TIP3    H171102   4.628   0.807  14.143  1.0027 -0.8242 -1.0000
16537TIP3    H271103   4.520   0.873  14.060 -1.6340 -0.1541  2.7029
16538TIP3   OH271104   1.712   0.549   3.765 -0.3223 -0.1142  0.4115
16538TIP3    H171105   1.772   0.532   3.692  0.9651  0.0748  1.3921
16538TIP3    H271106   1.682   0.639   3.751 -1.6513 -0.7107 -0.9318
16539TIP3   OH271107   6.752   4.249   1.366  0.1071 -0.2308  0.0278
16539TIP3    H171108   6.834   4.226   1.410  1.1749  0.9261 -1.2549
16539TIP3    H271109   6.776   4.320   1.306 -2.4296  2.2257  1.6929
16540TIP3   OH271110   2.747   0.266   0.729  0.2922  0.2660 -0.1420
16540TIP3    H171111   2.768   0.256   0.822 -0.4438 -1.0754 -0.0946
16540TIP3    H271112   2.668   0.319   0.728  0.2494  0.2065 -0.0016
16541TIP3   OH271113   3.699   3.183  17.453  0.6405 -0.3370  0.2007
16541TIP3    H171114   3.723   3.247  17.386 -0.7213 -1.0641 -1.0441
16541TIP3    H271115   3.775   3.179  17.511  1.3402  1.2822 -0.5369
16542TIP3   OH271116   5.067   2.516   0.442 -0.2906 -0.0461  0.6371
16542TIP3    H171117   5.162   2.503   0.437 -0.3444 -0.1200 -0.6016
16542TIP3    H271118   5.038   2.452   0.506  0.5853  0.5479  1.6660
16543TIP3   OH271119   1.901   2.379   2.653  0.0967 -0.4634  0.1909
16543TIP3    H171120   1.886   2.412   2.565  2.3218  1.1678  0.3227
16543TIP3    H271121   1.864   2.291   2.653  0.4699 -0.6950 -2.5233
16544TIP3   OH271122   0.384   0.685  13.295 -0.0007  0.4745  0.1010
16544TIP3    H171123   0.313   0.748  13.280 -0.0056  0.9882  2.0871
16544TIP3    H271124   0.416   0.665  13.207 -2.4193  0.4112 -0.8580
16545TIP3   OH271125   6.041   5.483  14.383  0.1635 -0.3951 -0.2738
16545TIP3    H171126   5.970   5.478  14.446 -1.1731 -3.0707 -1.7906
16545TIP3    H271127   5.998   5.507  14.301  1.3829  0.0661 -0.8032
16546TIP3   OH271128   6.021   3.919  13.907 -0.4876 -0.6402  0.2216
16546TIP3    H171129   5.962   3.992  13.887  0.8677  0.2131 -0.8473
16546TIP3    H271130   6.107   3.961  13.919 -0.1750 -1.7653  2.3630
16547TIP3   OH271131   0.892   0.768   0.230 -0.0132  0.7450  0.2044
16547TIP3    H171132   0.987   0.759   0.231  0.0522  1.4006  0.4733
16547TIP3    H271133   0.875   0.848   0.280 -0.6788  0.8476 -0.1763
16548TIP3   OH271134   5.612   2.653   3.068  0.1427 -0.1802  0.0780
16548TIP3    H171135   5.542   2.617   3.122  0.8266 -0.2920  0.9054
16548TIP3    H271136   5.687   2.658   3.126  0.3320  1.7202 -0.2566
16549TIP3   OH271137   2.556   3.092  14.611 -0.1268 -0.0723  0.1604
16549TIP3    H171138   2.565   3.187  14.622  1.4861 -0.1117 -0.4401
16549TIP3    H271139   2.487   3.067  14.672  0.0599  1.3634  1.0170
16550TIP3   OH271140   2.530   6.416   5.421 -0.0273  0.1821 -0.2932
16550TIP3    H171141   2.539   6.402   5.515 -0.8989 -0.1547 -0.2467
16550TIP3    H271142   2.571   6.501   5.404  1.1263 -0.2679  0.2040
16551TIP3   OH271143   5.343   6.626  17.001  0.4014  0.2727  0.0414
16551TIP3    H171144   5.388   6.692  16.948  0.5642  0.4999  0.4537
16551TIP3    H271145   5.251   6.654  17.002  0.0792 -0.6489 -1.4890
16552TIP3   OH271146   4.600   2.276   5.536 -0.1273 -0.1536  0.1097
16552TIP3    H171147   4.653   2.321   5.602  1.3220 -1.0756 -0.3783
16552TIP3    H271148   4.585   2.343   5.469  1.1376 -0.0743 -0.1262
16553TIP3   OH271149   4.047   5.641   3.697 -0.0546  0.3759  0.4181
16553TIP3    H171150   4.087   5.629   3.783  1.4186  0.2656 -0.2446
16553TIP3    H271151   4.035   5.552   3.664  0.4906  0.4402  0.0352
16554TIP3   OH271152   0.378   1.759   4.707  0.0868  0.1190  0.1710
16554TIP3    H171153   0.353   1.851   4.703 -1.4940 -0.2739 -3.3160
16554TIP3    H271154   0.306   1.717   4.754 -0.7470  0.3154 -0.8954
16555TIP3   OH271155   1.294   4.305  15.204 -0.4167  0.6347  0.2400
16555TIP3    H171156   1.378   4.294  15.248 -1.0517  1.5841  1.7693
16555TIP3    H271157   1.232   4.326  15.274 -1.9961 -0.2846 -0.8156
16556TIP3   OH271158   3.641   1.205   0.156 -0.1357 -0.7511  0.2176
16556TIP3    H171159   3.583   1.272   0.120 -0.9299 -1.2120  0.5945
16556TIP3    H271160   3.640   1.135   0.091  0.3723 -0.5665  0.0093
16557TIP3   OH271161   1.401   6.064  13.799  0.1252 -0.3832  0.5293
16557TIP3    H171162   1.456   5.985  13.803  0.1835 -0.3276  0.8345
16557TIP3    H271163   1.463   6.136  13.788  0.0895 -0.3538  0.5201
16558TIP3   OH271164   6.526   6.045   5.006  0.3245  0.6151 -0.0328
16558TIP3    H171165   6.481   6.096   5.074 -0.4866 -1.5312  1.1344
16558TIP3    H271166   6.596   6.000   5.053 -1.0094 -1.8909 -0.2727
16559TIP3   OH271167   6.731   0.167  13.962 -0.0124 -0.9503  0.2265
16559TIP3    H171168   6.748   0.245  13.910 -1.3334 -0.5727  0.3307
16559TIP3    H271169   6.817   0.142  13.996  0.3699  0.8232  0.6947
16560TIP3   OH271170   6.342   2.311  15.894 -0.5283  0.1495  0.2615
16560TIP3    H171171   6.344   2.268  15.809 -1.9844  0.0397  0.2445
16560TIP3    H271172   6.432   2.337  15.911  0.3434 -2.4556  0.0525
16561TIP3   OH271173   3.888   2.480  17.260  0.1433 -0.4133 -0.4089
16561TIP3    H171174   3.965   2.486  17.203  0.8164 -0.9708  0.4144
16561TIP3    H271175   3.824   2.432  17.208  0.9005 -1.3084 -0.5538
16562TIP3   OH271176   4.631   1.089   4.062  0.0176  0.8168  0.1109
16562TIP3    H171177   4.657   1.107   3.972  0.2773 -0.6894 -0.1400
16562TIP3    H271178   4.693   1.023   4.092 -1.0706  0.0922  0.8398
16563TIP3   OH271179   0.585   5.429  16.334  0.1939  0.1478 -0.2483
16563TIP3    H171180   0.667   5.382  16.350  0.3689  0.1049 -1.1847
16563TIP3    H271181   0.528   5.403  16.406  1.3247  0.9854  0.9947
16564TIP3   OH271182   3.621   1.363   1.551 -0.7076  0.3117  0.4185
16564TIP3    H171183   3.689   1.430   1.552  0.1607 -0.5524  0.6846
16564TIP3    H271184   3.608   1.340   1.643 -0.7293 -0.1361  0.3092
16565TIP3   OH271185   0.374   6.683  11.349 -0.7675 -0.1554  0.0100
16565TIP3    H171186   0.358   6.599  11.394 -0.2129  0.7265  1.9590
16565TIP3    H271187   0.298   6.737  11.371 -1.1225 -0.1131 -1.2410
16566TIP3   OH271188   5.439   6.174   3.603  0.3412  0.3573  0.2843
16566TIP3    H171189   5.364   6.196   3.548  0.9072 -2.4851 -1.8674
16566TIP3    H271190   5.513   6.220   3.564  0.1366  1.3817  1.0593
16567TIP3   OH271191   5.845   1.185   2.714  0.6833 -0.4033  0.5736
16567TIP3    H171192   5.795   1.159   2.637  1.1266 -1.0431  0.4932
16567TIP3    H271193   5.796   1.259   2.751 -0.5358 -1.2412  0.7114
16568TIP3   OH271194   1.534   5.862   4.307 -0.7609 -0.3203  0.5073
16568TIP3    H171195   1.445   5.897   4.307 -0.3416  0.7925  0.8193
16568TIP3    H271196   1.587   5.931   4.346  0.3719 -0.6455 -0.3915
16569TIP3   OH271197   1.266   2.452   3.648  0.1994  0.1790 -0.1825
16569TIP3    H171198   1.316   2.518   3.697  1.3640 -0.3832 -0.5731
16569TIP3    H271199   1.189   2.499   3.617  1.2298  1.5028 -0.8532
16570TIP3   OH271200   2.078   4.924  11.909  0.5896 -0.2559 -0.1772
16570TIP3    H171201   2.025   5.000  11.885  1.7393  0.3053 -0.9984
16570TIP3    H271202   2.052   4.905  11.999 -1.4717 -0.4174 -0.7543
16571TIP3   OH271203   1.145   0.805  16.560 -0.6036  0.3676  0.0982
16571TIP3    H171204   1.172   0.762  16.478  0.1545 -0.6255  0.8354
16571TIP3    H271205   1.068   0.856  16.536 -0.6270 -0.2123 -1.1550
16572TIP3   OH271206   5.899   4.030  11.388  0.2322 -0.5633 -0.1305
16572TIP3    H171207   5.988   4.061  11.370  0.0400 -0.7085 -1.3705
16572TIP3    H271208   5.860   4.016  11.302 -0.2486 -2.6638  0.3861
16573TIP3   OH271209   4.851   3.389   3.900 -0.2563 -0.7673 -0.2583
16573TIP3    H171210   4.946   3.387   3.885 -0.0058 -0.9901  1.2201
16573TIP3    H271211   4.829   3.300   3.926 -0.5016 -0.2602  1.3844
16574TIP3   OH271212   4.723   4.154  12.026  0.0568 -0.8338  0.3198
16574TIP3    H171213   4.818   4.163  12.039  0.4293 -2.5736 -0.8269
16574TIP3    H271214   4.711   4.160  11.932 -0.9156 -1.1823  0.4092
16575TIP3   OH271215   2.555   3.924   2.751  1.2505 -0.1633  0.1964
16575TIP3    H171216   2.554   4.019   2.761  1.4715 -0.2743  1.3985
16575TIP3    H271217   2.543   3.890   2.839  0.5043 -1.2633 -0.3097
16576TIP3   OH271218   3.637   5.041   0.198  0.1147 -0.3488  0.0668
16576TIP3    H171219   3.579   5.094   0.143  1.3035 -0.1895 -1.1034
16576TIP3    H271220   3.612   4.951   0.179  0.5812 -0.2982 -0.8504
16577TIP3   OH271221   6.531   2.509  12.488  0.5761  0.2183  0.7137
16577TIP3    H171222   6.448   2.530  12.445 -0.1287  0.6459  2.2129
16577TIP3    H271223   6.586   2.587  12.473  0.9907 -0.3308 -0.8520
16578TIP3   OH271224   1.415   4.676  13.703  0.3652  0.3275 -0.1666
16578TIP3    H171225   1.333   4.627  13.696  0.8298 -0.4542 -0.1635
16578TIP3    H271226   1.389   4.760  13.743 -0.5064  0.2954 -0.6507
16579TIP3   OH271227   1.202   4.205   4.195  0.3578  0.3849  0.5644
16579TIP3    H171228   1.209   4.270   4.125 -0.6331  2.6693  2.4508
16579TIP3    H271229   1.110   4.207   4.221  0.4669 -1.2416  1.2027
16580TIP3   OH271230   2.270   5.686  13.635  0.2496 -0.4310  0.2680
16580TIP3    H171231   2.207   5.749  13.601  0.7783 -0.4009 -0.6825
16580TIP3    H271232   2.217   5.608  13.655 -0.3815  0.2446  1.3277
16581TIP3   OH271233   1.347   1.278   3.203 -0.3460  0.2775 -0.1984
16581TIP3    H171234   1.417   1.337   3.231 -0.0649  0.0767 -0.4616
16581TIP3    H271235   1.327   1.306   3.114  0.1196 -0.3168 -0.4999
16582TIP3   OH271236   4.035   0.154  12.556  0.5844 -0.3737 -0.3382
16582TIP3    H171237   4.048   0.085  12.622  0.0174 -0.8322 -0.6994
16582TIP3    H271238   4.049   0.109  12.472  0.0213 -0.0989 -0.5839
16583TIP3   OH271239   0.553   2.757   0.143 -0.0917 -0.0222 -0.0495
16583TIP3    H171240   0.499   2.787   0.216  2.0208  2.3027  0.7403
16583TIP3    H271241   0.590   2.674   0.172  1.3819  1.2583  2.0426
16584TIP3   OH271242   4.962   2.692  16.175  0.2268  0.0643 -0.1330
16584TIP3    H171243   5.041   2.682  16.121  0.4683  1.7366 -0.1416
16584TIP3    H271244   4.995   2.726  16.258 -0.0966 -2.8346  1.2983
16585TIP3   OH271245   5.059   2.180   0.084 -0.0792 -0.5613  0.1030
16585TIP3    H171246   5.100   2.203   0.167  0.5812 -1.2156 -0.0293
16585TIP3    H271247   5.131   2.180   0.021 -0.6963  0.6882 -0.6341
16586TIP3   OH271248   3.402   6.170   5.206  0.1532  0.5467 -0.0007
16586TIP3    H171249   3.382   6.260   5.230  0.3951  0.6447 -0.1641
16586TIP3    H271250   3.466   6.141   5.272  1.3500  1.0411 -0.8951
16587TIP3   OH271251   3.069   5.233   2.454  1.0788  0.4839 -0.2864
16587TIP3    H171252   3.041   5.160   2.509 -0.3281  0.7603 -0.6005
16587TIP3    H271253   3.158   5.253   2.484  0.5409  0.2966  1.5286
16588TIP3   OH271254   4.602   1.614   6.203 -0.3229  0.7302  0.5708
16588TIP3    H171255   4.623   1.650   6.289  0.7544  3.2447 -0.6419
16588TIP3    H271256   4.684   1.577   6.171 -0.5181  0.5261  0.2969
16589TIP3   OH271257   1.591   0.611  13.971 -0.5866  0.2330 -0.3550
16589TIP3    H171258   1.631   0.693  13.941  0.6921 -0.0109  0.5827
16589TIP3    H271259   1.497   0.628  13.972 -0.3768  1.4803 -0.7672
16590TIP3   OH271260   4.650   0.187   0.985  0.7102 -0.2833 -0.3080
16590TIP3    H171261   4.663   0.121   0.918  2.1188 -1.4518  1.0469
16590TIP3    H271262   4.555   0.196   0.992  0.5310 -0.7838 -1.7999
16591TIP3   OH271263   1.269   5.463   4.445  0.2950  0.6427  0.6140
16591TIP3    H171264   1.282   5.497   4.357  2.8540 -0.4480  0.4635
16591TIP3    H271265   1.287   5.538   4.502  1.1561  0.7488  0.2220
16592TIP3   OH271266   5.596   6.096  15.620  0.2400 -0.1750 -0.3246
16592TIP3    H171267   5.526   6.120  15.559  0.5054 -0.8640 -0.9195
16592TIP3    H271268   5.627   6.011  15.587 -0.4134 -1.1514  1.4418
16593TIP3   OH271269   4.968   5.915   2.283 -0.5034 -0.3513  0.5187
16593TIP3    H171270   4.885   5.879   2.250 -0.3878 -0.0314 -0.1490
16593TIP3    H271271   4.981   5.995   2.231  0.8273 -1.0230 -0.2128
16594TIP3   OH271272   1.558   4.409   5.396 -0.2825 -0.1906 -0.0350
16594TIP3    H171273   1.548   4.455   5.479 -1.0512 -0.8989  0.2779
16594TIP3    H271274   1.496   4.452   5.337  0.0641  0.1306 -0.1702
16595TIP3   OH271275   6.356   4.277   0.268  0.4221  0.4292 -0.0691
16595TIP3    H171276   6.342   4.184   0.247  1.5958  0.3931 -0.7794
16595TIP3    H271277   6.372   4.278   0.362  1.4043 -0.2373 -0.2113
16596TIP3   OH271278   4.762   2.607   1.352 -0.1526 -0.3268 -0.3001
16596TIP3    H171279   4.809   2.562   1.282 -0.0146 -0.6403 -0.0074
16596TIP3    H271280   4.671   2.582   1.341 -0.4956  1.3080 -1.6754
16597TIP3   OH271281   5.897   0.180  13.694 -0.1703 -0.0757 -1.0937
16597TIP3    H171282   5.809   0.209  13.671 -1.0668  0.1004  2.0743
16597TIP3    H271283   5.885   0.094  13.735  0.5097  1.4016  2.6094
16598TIP3   OH271284   3.046   1.949   4.182  0.4113 -0.2724  0.5045
16598TIP3    H171285   3.030   1.905   4.265 -0.2592 -0.9784  0.0179
16598TIP3    H271286   2.961   1.950   4.138  0.8367 -0.2638 -0.3421
16599TIP3   OH271287   1.925   1.807   1.995  0.4479 -0.2750 -0.1087
16599TIP3    H171288   1.896   1.838   1.909 -1.6761 -2.7729 -0.4147
16599TIP3    H271289   1.880   1.865   2.057  0.2226  0.1489 -0.6518
16600TIP3   OH271290   0.766   1.262  13.388  0.2368 -0.1707 -0.6127
16600TIP3    H171291   0.842   1.273  13.445 -1.0753 -0.5626  1.3050
16600TIP3    H271292   0.727   1.349  13.381 -0.0139 -0.2528 -0.2805
16601TIP3   OH271293   5.319   2.578   3.859  0.2092  0.3893 -0.2273
16601TIP3    H171294   5.226   2.555   3.860 -0.0618  1.3513 -1.3113
16601TIP3    H271295   5.360   2.508   3.807  0.0543  0.1379 -0.0184
16602TIP3   OH271296   5.184   6.061  12.517 -1.0486 -0.3407  0.4435
16602TIP3    H171297   5.132   6.014  12.582 -1.8684 -0.1967 -0.0913
16602TIP3    H271298   5.168   6.013  12.435  1.0126 -1.3291  0.5696
16603TIP3   OH271299   2.644   6.712   1.838 -0.0836 -0.6047 -0.0444
16603TIP3    H171300   2.576   6.737   1.900 -2.2187  0.8239 -2.7600
16603TIP3    H271301   2.617   6.626   1.805  0.4964 -0.9002  0.2295
16604TIP3   OH271302   6.288   5.239  17.199 -0.1377  0.0483  0.4800
16604TIP3    H171303   6.349   5.181  17.153 -1.9787 -0.7149 -1.1645
16604TIP3    H271304   6.258   5.300  17.131 -0.5248  0.9729  1.4651
16605TIP3   OH271305   5.663   5.550   1.716 -0.7262 -0.1552 -0.1003
16605TIP3    H171306   5.730   5.514   1.774  0.1331  0.4308 -0.7163
16605TIP3    H271307   5.655   5.485   1.646 -0.2814  0.1164 -0.4047
16606TIP3   OH271308   5.076   6.361  14.894 -0.2317 -0.1582 -0.0496
16606TIP3    H171309   5.151   6.412  14.923 -0.6485  0.6355 -0.3300
16606TIP3    H271310   5.112   6.276  14.870  0.6497  0.3570 -0.6153
16607TIP3   OH271311   3.002   0.545   5.352 -0.6065  0.4262  0.1651
16607TIP3    H171312   2.980   0.471   5.295  0.9846  0.3269 -0.3642
16607TIP3    H271313   2.971   0.519   5.439  1.7204 -1.7820  0.4214
16608TIP3   OH271314   2.663   3.975  14.062  0.1326  0.2097  0.3706
16608TIP3    H171315   2.651   3.889  14.023  1.2071 -0.1840  0.8846
16608TIP3    H271316   2.688   4.031  13.988 -0.9341  0.1942 -0.0307
16609TIP3   OH271317   4.312   3.644   5.181  0.4642 -0.8883  0.2810
16609TIP3    H171318   4.227   3.599   5.187  0.7391 -1.5161 -0.3125
16609TIP3    H271319   4.296   3.730   5.218 -1.2170  0.0986 -2.4042
16610TIP3   OH271320   2.396   4.681   2.280 -0.2342 -0.4221 -0.0212
16610TIP3    H171321   2.395   4.586   2.290  0.5837 -0.6330 -1.5178
16610TIP3    H271322   2.475   4.710   2.326 -0.4182 -0.4731  0.3301
16611TIP3   OH271323   5.042   5.110   0.056  0.3430  0.4691 -0.2162
16611TIP3    H171324   5.026   5.051   0.129  1.1648  2.2677  1.5277
16611TIP3    H271325   5.136   5.107   0.041  0.2742  0.6397 -0.7269
16612TIP3   OH271326   4.214   2.888  14.943 -0.1111 -0.0993 -0.2409
16612TIP3    H171327   4.305   2.860  14.947 -0.1499 -0.1894 -0.0044
16612TIP3    H271328   4.199   2.904  14.850  0.5577  1.3031 -0.1338
16613TIP3   OH271329   0.615   1.349   0.398  0.0422 -0.0058  0.2390
16613TIP3    H171330   0.670   1.357   0.319  0.0224 -0.4897  0.1763
16613TIP3    H271331   0.632   1.261   0.430 -1.5311 -0.5657 -0.3951
16614TIP3   OH271332   3.458   4.696   2.867  0.5487  0.3499  0.1183
16614TIP3    H171333   3.479   4.763   2.802 -0.8798  0.1465 -0.5916
16614TIP3    H271334   3.369   4.717   2.895  0.9582  0.1472  1.6771
16615TIP3   OH271335   3.649   0.163  12.900 -0.7367 -0.4677 -0.2898
16615TIP3    H171336   3.561   0.129  12.919 -0.1971 -1.8292 -0.0797
16615TIP3    H271337   3.663   0.141  12.808 -0.9422  0.5261 -0.5646
16616TIP3   OH271338   2.913   6.293  12.946 -0.6921 -0.2848  0.0102
16616TIP3    H171339   2.979   6.262  12.884  0.0876 -0.4547  0.9066
16616TIP3    H271340   2.925   6.239  13.024 -1.9492 -0.3751  0.1695
16617TIP3   OH271341   5.511   6.495  12.110  0.2781  0.7771  0.4319
16617TIP3    H171342   5.564   6.553  12.164 -0.5234  1.4207  0.5422
16617TIP3    H271343   5.533   6.518  12.020 -1.3880  2.5838  0.4334
16618TIP3   OH271344   6.516   4.932   2.421 -0.0104  0.0058  0.4461
16618TIP3    H171345   6.438   4.920   2.367  1.1894 -0.7673 -1.1799
16618TIP3    H271346   6.545   4.843   2.442  1.4414  0.2226 -0.5081
16619TIP3   OH271347   3.632   5.264   5.091 -0.3842 -0.3657 -0.4559
16619TIP3    H171348   3.539   5.242   5.080 -0.2316 -0.4665 -1.6426
16619TIP3    H271349   3.678   5.193   5.047  0.2481 -0.0217 -0.3539
16620TIP3   OH271350   6.300   1.563  14.649 -0.0959 -0.5781  0.5260
16620TIP3    H171351   6.251   1.514  14.582 -0.1938  1.0622 -0.6455
16620TIP3    H271352   6.233   1.612  14.697  0.1155 -0.6848  0.9392
16621TIP3   OH271353   6.467   4.301  16.366 -0.0326 -0.3377  0.0505
16621TIP3    H171354   6.521   4.373  16.332  0.8526  0.1005  2.1866
16621TIP3    H271355   6.378   4.336  16.364  0.0814 -0.0875 -1.1428
16622TIP3   OH271356   4.292   2.013   1.307 -0.1685 -0.7685 -0.8276
16622TIP3    H171357   4.289   1.920   1.329  1.1197 -0.4847  0.7421
16622TIP3    H271358   4.202   2.044   1.320 -0.3282 -1.5245 -0.0503
16623TIP3   OH271359   2.136   2.436   4.062  0.5555  0.0988 -0.4394
16623TIP3    H171360   2.107   2.516   4.018  1.9540  0.5216 -0.6480
16623TIP3    H271361   2.223   2.419   4.025 -0.0913 -2.0864 -1.1454
16624TIP3   OH271362   2.535   4.862  14.282  0.3381  0.3722 -0.9540
16624TIP3    H171363   2.619   4.830  14.315 -0.0978 -1.1414 -1.2062
16624TIP3    H271364   2.503   4.922  14.349  1.3790  0.5573 -0.6136
16625TIP3   OH271365   2.126   6.592  12.461 -0.5213  0.4912 -0.6753
16625TIP3    H171366   2.062   6.523  12.445 -1.4449  0.9603  0.9072
16625TIP3    H271367   2.078   6.661  12.506  0.8428  1.3321 -0.4387
16626TIP3   OH271368   2.075   2.199  11.178 -0.1230 -0.1766  0.0154
16626TIP3    H171369   2.161   2.225  11.211 -0.9638 -0.2657  2.4299
16626TIP3    H271370   2.084   2.205  11.083  3.5155 -3.3099 -0.0691
16627TIP3   OH271371   1.074   0.670  12.931  0.0081 -0.3275 -0.6561
16627TIP3    H171372   1.146   0.608  12.921  1.2169  1.1115 -1.3063
16627TIP3    H271373   1.050   0.665  13.024  2.4523  0.6913  0.1217
16628TIP3   OH271374   6.299   1.950   2.971 -0.2437  0.1865  0.4059
16628TIP3    H171375   6.287   1.923   3.062  1.7525  2.2643  1.4025
16628TIP3    H271376   6.344   1.877   2.930 -1.6241 -0.9919  0.9092
16629TIP3   OH271377   6.301   4.862   3.432  0.0965  0.3627 -0.0293
16629TIP3    H171378   6.309   4.957   3.416  0.0153  0.5965  1.1971
16629TIP3    H271379   6.226   4.854   3.491  1.0116 -0.3102  1.0912
16630TIP3   OH271380   5.814   0.032  12.877 -0.0434 -0.0989  0.6606
16630TIP3    H171381   5.832  -0.052  12.918 -1.6391  0.3662  2.5025
16630TIP3    H271382   5.808   0.094  12.951  0.2263  1.4497 -0.5599
16631TIP3   OH271383   6.312   5.816   5.618  0.3851  0.1829 -0.2673
16631TIP3    H171384   6.270   5.781   5.696  0.1779  3.0066  1.0366
16631TIP3    H271385   6.241   5.856   5.568  0.8474  0.6988 -0.5314
16632TIP3   OH271386   0.321   6.559  12.290 -0.3708  0.1183 -0.7332
16632TIP3    H171387   0.226   6.563  12.277 -0.2255  1.5350 -1.5019
16632TIP3    H271388   0.350   6.488  12.232 -0.8652  0.2145 -1.1045
16633TIP3   OH271389   5.192   3.946   6.101  0.2552 -0.1552  0.3170
16633TIP3    H171390   5.144   3.865   6.119 -1.4585  1.0977  1.7682
16633TIP3    H271391   5.137   4.015   6.137  2.7476  1.5023  1.2176
16634TIP3   OH271392   5.819   6.157   0.321 -1.1050 -0.3145 -0.1410
16634TIP3    H171393   5.763   6.213   0.267 -0.9312  0.7885  0.7674
16634TIP3    H271394   5.902   6.205   0.327  0.0540 -2.0304 -1.6532
16635TIP3   OH271395   4.586   4.918   6.910 -0.1262 -0.0088 -0.4672
16635TIP3    H171396   4.550   4.981   6.848  1.0324  1.2261  0.0742
16635TIP3    H271397   4.662   4.962   6.948  0.7438 -1.7527 -0.0902
16636TIP3   OH271398   5.378   3.966   4.360  0.1203  0.1632  0.2100
16636TIP3    H171399   5.349   4.053   4.384 -1.0340  0.0593 -0.7301
16636TIP3    H271400   5.335   3.908   4.423 -0.8255  0.1129 -0.4566
16637TIP3   OH271401   1.000   2.268  14.892 -0.1675 -0.0915 -0.5231
16637TIP3    H171402   1.036   2.223  14.969 -1.0649 -0.3324 -0.2297
16637TIP3    H271403   1.076   2.305  14.848  0.6528 -2.1753 -0.9563
16638TIP3   OH271404   5.774   2.226   3.079 -0.0093 -0.2143  0.6338
16638TIP3    H171405   5.837   2.253   3.146  1.6618  1.5118 -1.4660
16638TIP3    H271406   5.827   2.186   3.010 -1.5785 -1.3386  0.0243
16639TIP3   OH271407   3.285   3.193  13.280 -0.3101 -0.5379 -0.0943
16639TIP3    H171408   3.291   3.202  13.185 -0.1969  0.8589  0.0189
16639TIP3    H271409   3.359   3.243  13.314 -1.1583  0.1811  0.7624
16640TIP3   OH271410   4.002   2.894   5.064  0.1397  0.3648  0.0828
16640TIP3    H171411   4.020   2.967   5.004  0.7512 -0.2991 -0.5699
16640TIP3    H271412   3.919   2.916   5.105  0.8580  1.9702  0.7379
16641TIP3   OH271413   2.555   6.017   0.855 -0.2484  0.1234 -0.1350
16641TIP3    H171414   2.509   5.939   0.887 -0.3226  0.3715  0.3843
16641TIP3    H271415   2.566   6.002   0.761  1.6063 -1.4766  0.2825
16642TIP3   OH271416   4.490   0.796   4.071 -0.2728 -0.3629  0.0575
16642TIP3    H171417   4.413   0.786   4.127  0.7286 -0.7230  1.4172
16642TIP3    H271418   4.480   0.883   4.033 -0.2021  0.5900  2.0828
16643TIP3   OH271419   4.527   3.343   5.232  0.4074 -0.8481 -0.2004
16643TIP3    H171420   4.486   3.401   5.297  0.7330 -1.2365  0.3524
16643TIP3    H271421   4.621   3.356   5.244  0.4704 -0.9580 -0.5657
16644TIP3   OH271422   5.530   0.046  15.685  0.3244 -0.3667  0.5092
16644TIP3    H171423   5.514   0.132  15.724 -1.0583 -0.8135  0.9837
16644TIP3    H271424   5.522   0.060  15.591  0.4685  0.0906  0.5632
16645TIP3   OH271425   1.599   3.983   4.036  0.1287 -0.5806 -0.4282
16645TIP3    H171426   1.548   3.919   3.986  0.1176 -1.0196  0.1267
16645TIP3    H271427   1.598   4.062   3.983 -1.8055 -0.3236 -0.0805
16646TIP3   OH271428   5.018   6.086   3.332 -0.4324 -0.1561  0.4721
16646TIP3    H171429   4.936   6.133   3.344  0.1455  0.5560  1.7249
16646TIP3    H271430   5.086   6.152   3.344  0.3544 -0.5769 -1.2593
16647TIP3   OH271431   5.894   3.337   2.984  0.0659 -0.6251  0.0081
16647TIP3    H171432   5.955   3.404   2.955 -1.9519  1.6055  0.5489
16647TIP3    H271433   5.916   3.322   3.076 -0.8446  1.0537  0.5458
16648TIP3   OH271434   6.036   0.381  13.162  0.5859 -0.3418  0.3933
16648TIP3    H171435   6.030   0.476  13.150 -2.7177 -0.3707  0.9442
16648TIP3    H271436   6.063   0.371  13.254 -0.0138  0.0848  0.6225
16649TIP3   OH271437   2.582   3.644  16.406  0.2851 -0.1956 -0.0539
16649TIP3    H171438   2.514   3.640  16.339 -0.2347  1.9398  0.2923
16649TIP3    H271439   2.649   3.702  16.369 -0.8233  2.5142  1.8753
16650TIP3   OH271440   4.228   5.880   4.868 -0.2707 -0.8309  0.4109
16650TIP3    H171441   4.187   5.803   4.909  0.0836 -0.8097  0.8138
16650TIP3    H271442   4.315   5.885   4.908 -0.2960 -0.2106  0.3963
16651TIP3   OH271443   1.339   2.368  15.150  0.2735 -0.0423  0.3518
16651TIP3    H171444   1.271   2.300  15.146  1.4066 -1.1859 -0.2797
16651TIP3    H271445   1.393   2.344  15.225  0.9738 -0.1348 -0.1752
16652TIP3   OH271446   0.907   5.404  17.411  0.5411  0.1199  0.8927
16652TIP3    H171447   0.917   5.482  17.356  2.4317 -0.8658 -0.2487
16652TIP3    H271448   0.989   5.397  17.459  0.0563 -0.6928  1.6399
16653TIP3   OH271449   4.343   1.004   4.496  0.1620 -0.3780 -0.1680
16653TIP3    H171450   4.296   0.964   4.423 -0.0051 -1.0699  0.3120
16653TIP3    H271451   4.287   1.076   4.524 -0.2237 -0.6938 -0.1209
16654TIP3   OH271452   4.945   0.138  15.851 -0.1256 -0.8795  0.1990
16654TIP3    H171453   4.948   0.147  15.946 -1.2411  0.8346  0.1108
16654TIP3    H271454   5.031   0.102  15.828  0.0737 -1.5784  1.8449
16655TIP3   OH271455   6.421   5.209  16.426 -0.1640  0.3990  0.0538
16655TIP3    H171456   6.349   5.163  16.468 -1.0978  1.0824 -0.7466
16655TIP3    H271457   6.415   5.298  16.461  1.8668 -0.1064  1.9022
16656TIP3   OH271458   2.133   0.552   0.636  0.2330 -0.4108 -0.7525
16656TIP3    H171459   2.169   0.466   0.656 -0.2519 -0.4534 -0.0006
16656TIP3    H271460   2.078   0.573   0.712  0.4623  0.6273 -0.8559
16657TIP3   OH271461   6.239   3.761   0.640 -0.0847 -0.0805  0.4637
16657TIP3    H171462   6.249   3.801   0.554 -1.0218 -1.0166 -0.0977
16657TIP3    H271463   6.146   3.741   0.647  0.0685 -0.5078  1.4709
16658TIP3   OH271464   6.762   4.940  13.349 -0.7384  0.0787  0.6553
16658TIP3    H171465   6.777   5.028  13.315 -1.5784  0.2591  0.7165
16658TIP3    H271466   6.703   4.899  13.285 -1.5269  0.0727  1.3647
16659TIP3   OH271467   4.071   5.445   5.662 -0.4971  0.3020  0.3506
16659TIP3    H171468   4.158   5.435   5.624 -0.7280 -0.5066  0.0053
16659TIP3    H271469   4.080   5.413   5.752 -0.7695 -1.2332 -0.1446
16660TIP3   OH271470   2.087   5.280   5.276  0.1404  0.2157  0.6986
16660TIP3    H171471   2.018   5.272   5.341  1.3286 -1.9611  1.8266
16660TIP3    H271472   2.073   5.207   5.217  1.3027 -0.1342  0.8202
16661TIP3   OH271473   1.670   2.201   3.805 -0.5879  0.1641 -0.3757
16661TIP3    H171474   1.716   2.223   3.723  0.3875  1.3450  0.4396
16661TIP3    H271475   1.738   2.162   3.860 -0.7242  1.2241  0.5751
16662TIP3   OH271476   1.414   2.459   4.023  0.3797 -0.2141  0.0274
16662TIP3    H171477   1.405   2.550   3.996 -0.2364 -0.4717 -0.6795
16662TIP3    H271478   1.491   2.427   3.977 -0.4795 -0.5590 -1.2211
16663TIP3   OH271479   4.084   1.970   3.459 -0.5916 -0.1469 -0.2198
16663TIP3    H171480   4.020   1.962   3.530 -0.2489 -1.3583 -0.0210
16663TIP3    H271481   4.033   1.996   3.383 -0.8516  2.1127  0.6291
16664TIP3   OH271482   3.414   4.579  14.454  0.4551 -0.0747  0.3545
16664TIP3    H171483   3.328   4.542  14.473  0.3882  0.0265  0.2473
16664TIP3    H271484   3.417   4.661  14.503  0.1897  0.3062 -0.2527
16665TIP3   OH271485   1.214   3.832   3.654 -0.0634 -0.1607  0.0744
16665TIP3    H171486   1.179   3.884   3.581  0.3872 -0.9504 -0.7205
16665TIP3    H271487   1.157   3.853   3.728 -1.3827 -0.3959 -0.8520
16666TIP3   OH271488   2.900   2.202  11.079 -0.4384 -0.5699  0.0214
16666TIP3    H171489   2.833   2.258  11.039 -0.1844 -0.1182  0.2229
16666TIP3    H271490   2.881   2.114  11.045 -0.3767 -0.2342 -0.9056
16667TIP3   OH271491   0.812   5.866   1.461 -0.9201 -0.1370  0.5715
16667TIP3    H171492   0.853   5.810   1.527 -2.6812 -1.8533  0.2790
16667TIP3    H271493   0.726   5.886   1.496 -1.4290 -0.0681 -0.6561
16668TIP3   OH271494   0.288   1.906   2.641  0.4129  0.1299  0.7344
16668TIP3    H171495   0.281   1.990   2.597 -0.2978 -0.9259 -1.2742
16668TIP3    H271496   0.373   1.909   2.685  2.2015  0.5238 -2.4364
16669TIP3   OH271497   2.182   6.623   3.413 -0.9140  0.6888 -0.0569
16669TIP3    H171498   2.127   6.586   3.481  0.2543 -2.3913 -0.6118
16669TIP3    H271499   2.195   6.551   3.351  1.3335  2.1405 -1.4262
16670TIP3   OH271500   1.444   1.501   2.259  0.4110 -0.0444  0.3561
16670TIP3    H171501   1.452   1.589   2.297  1.1958  0.1951 -0.3333
16670TIP3    H271502   1.530   1.462   2.274 -0.2511 -1.0846  1.5777
16671TIP3   OH271503   0.862   5.718  12.623 -0.2250  0.1801 -0.3173
16671TIP3    H171504   0.930   5.739  12.559 -0.7590 -0.4670 -1.1142
16671TIP3    H271505   0.893   5.638  12.665  0.1190  0.5977  0.2345
16672TIP3   OH271506   0.798   0.463   5.078  0.6897  0.3964 -0.0168
16672TIP3    H171507   0.719   0.517   5.070  1.7539  1.9179 -0.6470
16672TIP3    H271508   0.800   0.412   4.997  0.6248  0.7492 -0.2444
16673TIP3   OH271509   2.075   4.790   4.322  0.4340  0.2753 -0.1053
16673TIP3    H171510   2.052   4.785   4.229 -0.9929 -0.9434  0.2768
16673TIP3    H271511   2.154   4.844   4.324  0.8343 -0.1455 -2.0820
16674TIP3   OH271512   3.888   1.620  11.646  0.1848  0.2825 -0.8223
16674TIP3    H171513   3.805   1.665  11.632  0.2418  0.7399  0.2474
16674TIP3    H271514   3.953   1.675  11.602 -0.1467 -0.5166 -2.4135
16675TIP3   OH271515   5.153   5.144   3.729 -0.3246 -0.3495  0.4850
16675TIP3    H171516   5.085   5.113   3.669  0.5721 -0.8252 -0.3122
16675TIP3    H271517   5.141   5.093   3.809  0.2604 -1.8085 -0.3242
16676TIP3   OH271518   5.469   3.692  14.666  0.2672  0.1954  0.0553
16676TIP3    H171519   5.520   3.668  14.589 -0.8100 -2.4226  0.0338
16676TIP3    H271520   5.509   3.643  14.738 -0.1928  0.7262  0.6896
16677TIP3   OH271521   6.173   3.329   4.332 -0.4767  0.0319  0.4656
16677TIP3    H171522   6.262   3.308   4.306 -1.1090 -2.3738  0.0480
16677TIP3    H271523   6.120   3.258   4.297 -2.8048  2.1176 -0.5655
16678TIP3   OH271524   3.001   6.016  14.531  0.7892  0.5537  0.0999
16678TIP3    H171525   3.013   6.014  14.625  1.0983 -0.5031  0.0526
16678TIP3    H271526   2.924   5.961  14.515  0.9174  0.4791 -0.2845
16679TIP3   OH271527   3.924   1.177  15.789  0.5787 -0.1476  0.1452
16679TIP3    H171528   4.014   1.160  15.816  0.5641 -0.7188 -0.1583
16679TIP3    H271529   3.897   1.252  15.842  0.4395 -1.4273  2.0280
16680TIP3   OH271530   6.612   6.547   5.433 -0.5322 -0.1889 -0.3091
16680TIP3    H171531   6.519   6.524   5.433 -0.5411 -0.1728  0.3532
16680TIP3    H271532   6.616   6.635   5.470 -0.3612  0.3152 -1.4908
16681TIP3   OH271533   1.071   4.984   5.120  0.0276  0.0418 -0.0063
16681TIP3    H171534   1.003   5.041   5.084 -1.3949 -1.9071 -0.5436
16681TIP3    H271535   1.036   4.956   5.205 -0.3871 -1.7975 -0.7382
16682TIP3   OH271536   5.130   1.038   2.787  0.4412 -0.0230 -0.3817
16682TIP3    H171537   5.119   0.974   2.858 -2.2337 -2.1165 -2.4971
16682TIP3    H271538   5.044   1.079   2.778  1.2323  1.5500 -1.2884
16683TIP3   OH271539   0.616   3.255   4.917 -0.1945  0.1644  0.1700
16683TIP3    H171540   0.632   3.191   4.986 -0.8305 -0.3980 -0.1921
16683TIP3    H271541   0.539   3.221   4.870  1.4674 -0.6193 -2.1658
16684TIP3   OH271542   4.905   3.518  17.348  0.3129  0.2352 -0.1907
16684TIP3    H171543   4.845   3.478  17.285  0.0963  0.5693 -0.2019
16684TIP3    H271544   4.932   3.446  17.405  0.2025  0.0082 -0.4252
16685TIP3   OH271545   5.437   0.418  10.855  0.1563  0.0481  0.1437
16685TIP3    H171546   5.465   0.423  10.946 -1.9902  1.8301  0.7827
16685TIP3    H271547   5.374   0.346  10.853 -0.6397  0.7152  0.3672
16686TIP3   OH271548   0.072   6.092  11.666  0.5871 -0.1493  0.5034
16686TIP3    H171549  -0.018   6.063  11.654 -0.1938  2.1332  0.3988
16686TIP3    H271550   0.114   6.076  11.582 -0.5887  1.5123 -0.4528
16687TIP3   OH271551   3.303   4.220  15.116  0.2091  0.3914  0.1930
16687TIP3    H171552   3.361   4.293  15.135  0.6994  0.5063 -1.5650
16687TIP3    H271553   3.320   4.156  15.185  0.2575  1.6386  1.3686
16688TIP3   OH271554   2.395   6.624  14.767  0.0668 -0.1768  0.1906
16688TIP3    H171555   2.311   6.603  14.808  0.2216 -0.4293  0.3818
16688TIP3    H271556   2.400   6.565  14.691 -0.8808  1.2845 -1.0651
16689TIP3   OH271557   5.858   3.206   1.886 -0.0543 -0.2721 -0.1140
16689TIP3    H171558   5.830   3.257   1.962  1.3227  0.0320  0.2293
16689TIP3    H271559   5.884   3.121   1.921  2.2936  0.4461  0.1072
16690TIP3   OH271560   0.659   1.776   0.989  0.3114  0.6851  0.0427
16690TIP3    H171561   0.631   1.799   1.078  0.8031 -2.1473  1.0330
16690TIP3    H271562   0.722   1.843   0.966 -0.7341  2.1921  1.3006
16691TIP3   OH271563   3.352   2.531  17.173 -0.2258 -0.2679  0.0921
16691TIP3    H171564   3.357   2.455  17.115 -2.0372 -1.1152  0.9666
16691TIP3    H271565   3.375   2.605  17.118 -2.6844 -0.9197 -1.9759
16692TIP3   OH271566   1.811   1.293  12.989  0.2614 -0.2123 -0.2659
16692TIP3    H171567   1.815   1.204  12.955 -2.4397 -0.1569 -0.9577
16692TIP3    H271568   1.748   1.289  13.061  0.5177  1.0351  0.0656
16693TIP3   OH271569   6.033   5.298   6.252  0.3170 -0.5587  0.0043
16693TIP3    H171570   6.116   5.261   6.280 -0.9237 -0.0391  5.4861
16693TIP3    H271571   5.970   5.226   6.262 -0.3915 -0.1568 -1.2564
16694TIP3   OH271572   0.594   1.256  12.304 -0.3806  0.3140  0.2242
16694TIP3    H171573   0.573   1.295  12.389 -0.9556  0.1481  0.1604
16694TIP3    H271574   0.611   1.164  12.323 -0.5939  0.2590  0.1436
16695TIP3   OH271575   5.231   1.068   5.471  0.3668  0.7274 -0.3457
16695TIP3    H171576   5.304   1.006   5.468  0.2611  0.6213 -1.2055
16695TIP3    H271577   5.217   1.085   5.564 -0.6275 -1.7495  0.0237
16696TIP3   OH271578   4.685   5.048   1.129  0.1015 -0.3507 -0.0341
16696TIP3    H171579   4.659   5.086   1.213  1.4432  0.5032  0.0229
16696TIP3    H271580   4.754   5.106   1.097  1.5161 -2.1602 -0.4353
16697TIP3   OH271581   2.566   1.306   3.739 -0.1870  0.5862 -0.2771
16697TIP3    H171582   2.493   1.300   3.677 -1.1843  0.8991  0.8250
16697TIP3    H271583   2.642   1.326   3.684 -0.6925 -0.8112 -1.5894
16698TIP3   OH271584   6.058   4.482   5.478  0.3679  0.0810  0.4629
16698TIP3    H171585   6.153   4.494   5.473  0.2295  1.0307 -0.2294
16698TIP3    H271586   6.023   4.553   5.424 -0.6981 -1.0451 -0.3543
16699TIP3   OH271587   1.389   4.320   6.428  0.1558 -0.0022 -0.5032
16699TIP3    H171588   1.379   4.282   6.341  2.0277 -0.6248 -0.4993
16699TIP3    H271589   1.352   4.407   6.421 -0.8456 -0.4890 -1.5755
16700TIP3   OH271590   5.818   4.126   2.562 -0.2372  0.2775  0.0020
16700TIP3    H171591   5.854   4.053   2.611 -1.4589 -0.3722 -0.0202
16700TIP3    H271592   5.886   4.150   2.499 -0.0677 -1.2745 -0.4355
16701TIP3   OH271593   3.140   1.088   5.217 -0.1689  0.2918 -0.3795
16701TIP3    H171594   3.152   1.182   5.225 -0.3503  0.3856 -1.1330
16701TIP3    H271595   3.130   1.073   5.123  1.7337 -0.6953 -0.4805
16702TIP3   OH271596   6.277   4.883   4.267 -0.1444  0.7470 -0.3541
16702TIP3    H171597   6.255   4.972   4.294  0.3802  0.0724  2.6646
16702TIP3    H271598   6.354   4.860   4.319 -2.0107 -2.4525  1.3470
16703TIP3   OH271599   2.334   0.717   0.271  0.4341  0.1595 -0.1191
16703TIP3    H171600   2.268   0.664   0.226  1.0946 -1.1555  0.3791
16703TIP3    H271601   2.379   0.764   0.201  0.0782 -0.2489 -0.6359
16704TIP3   OH271602   2.581   1.015   5.810  0.3294 -0.0738  0.1442
16704TIP3    H171603   2.633   1.094   5.828  0.9901 -0.2541 -0.9506
16704TIP3    H271604   2.570   0.975   5.896  0.2752  1.0303  0.6737
16705TIP3   OH271605   3.999   3.650   3.916  0.0468  0.4142 -0.3541
16705TIP3    H171606   4.064   3.618   3.853  0.5097  2.8456 -1.2581
16705TIP3    H271607   3.959   3.571   3.953  0.7278 -1.1365 -2.7044
16706TIP3   OH271608   1.139   3.360   4.100  0.1764  0.2899  0.2263
16706TIP3    H171609   1.234   3.354   4.110  0.0242 -0.2289  1.5411
16706TIP3    H271610   1.114   3.278   4.056  0.0897 -0.7948  2.1716
16707TIP3   OH271611   4.942   5.637   1.771 -0.2001  0.2367 -0.2520
16707TIP3    H171612   4.871   5.680   1.724 -0.4684  2.6138  2.0910
16707TIP3    H271613   4.920   5.647   1.863  1.9821 -1.1505  0.5034
16708TIP3   OH271614   3.668   3.643  15.041  0.7452  0.2568 -0.2135
16708TIP3    H171615   3.718   3.688  14.973 -0.8239 -0.1047 -1.6790
16708TIP3    H271616   3.691   3.550  15.031 -2.2546 -0.3806 -2.9360
16709TIP3   OH271617   1.494   4.918   5.817  0.1738 -0.2801  0.6502
16709TIP3    H171618   1.501   4.834   5.771 -0.1512 -0.0649  0.1934
16709TIP3    H271619   1.413   4.912   5.867 -1.0448  0.5653 -1.1170
16710TIP3   OH271620   2.034   3.365  13.283 -0.1753 -0.7563  0.7768
16710TIP3    H171621   2.117   3.351  13.329  0.3075 -0.0144  0.1757
16710TIP3    H271622   2.035   3.458  13.261 -0.6601 -0.9665 -0.1955
16711TIP3   OH271623   1.025   3.734  15.361  0.4813  0.0403  0.2294
16711TIP3    H171624   0.968   3.760  15.289  1.5714 -1.3385 -1.1928
16711TIP3    H271625   1.031   3.639  15.354  0.4664 -0.1586  2.2859
16712TIP3   OH271626   4.635   6.771  15.975  0.3905 -0.2217 -0.1578
16712TIP3    H171627   4.541   6.763  15.961  0.3997 -1.2313  0.2605
16712TIP3    H271628   4.664   6.682  15.999  1.0625  0.4899  1.9460
16713TIP3   OH271629   2.228   6.321  11.427 -0.5233 -0.4663 -0.4716
16713TIP3    H171630   2.265   6.300  11.513 -0.1517  1.2926 -0.1630
16713TIP3    H271631   2.287   6.387  11.391 -0.5256 -1.3704 -2.2269
16714TIP3   OH271632   3.556   6.143  17.387  0.5251 -0.2138  0.3451
16714TIP3    H171633   3.628   6.108  17.334 -2.1927 -0.2963 -3.8460
16714TIP3    H271634   3.483   6.083  17.369 -1.3467  1.3991  2.0961
16715TIP3   OH271635   0.779   1.701  14.686 -0.1157  0.2278 -0.1126
16715TIP3    H171636   0.707   1.713  14.624 -0.4604  0.7057  0.3692
16715TIP3    H271637   0.788   1.606  14.695 -0.1500  0.1601 -0.7906
16716TIP3   OH271638   4.379   0.669  15.678  0.0657  0.2420  0.6123
16716TIP3    H171639   4.384   0.649  15.584 -1.5980 -0.6486  0.6816
16716TIP3    H271640   4.462   0.638  15.714 -0.3344 -1.8866 -0.1553
16717TIP3   OH271641   0.142   4.703  11.059  0.2041 -0.8165 -0.0568
16717TIP3    H171642   0.081   4.776  11.057 -0.8481 -1.6500  0.6198
16717TIP3    H271643   0.150   4.676  10.967  1.0409  0.4668 -0.3859
16718TIP3   OH271644   2.460   6.137   5.015  0.1556 -0.3835  0.6208
16718TIP3    H171645   2.440   6.148   5.108 -0.1654 -3.2210  0.9830
16718TIP3    H271646   2.381   6.098   4.978  0.1219  1.0935 -0.9722
16719TIP3   OH271647   6.363   6.583  13.842 -0.3595  1.1053 -0.0036
16719TIP3    H171648   6.415   6.636  13.902 -1.2867  2.8194 -0.6402
16719TIP3    H271649   6.289   6.639  13.818 -2.6997 -1.2724  1.0516
16720TIP3   OH271650   5.804   4.672   2.507  0.0011 -0.0421  0.7304
16720TIP3    H171651   5.839   4.758   2.531 -0.2924  0.4081 -0.3940
16720TIP3    H271652   5.786   4.678   2.413  0.5525 -1.5458  0.5006
16721TIP3   OH271653   2.853   3.408   0.693 -0.0573 -0.3174  0.1844
16721TIP3    H171654   2.936   3.393   0.648 -0.1490  0.2382 -0.1821
16721TIP3    H271655   2.786   3.385   0.629 -0.2156 -2.2121  0.9686
16722TIP3   OH271656   3.363   1.033  17.251 -0.0789  0.0882 -0.5974
16722TIP3    H171657   3.442   0.983  17.229  1.0127  0.7099  1.6980
16722TIP3    H271658   3.291   0.980  17.215  1.3127 -0.5579 -2.6393
16723TIP3   OH271659   0.149   4.179  11.379 -0.4077  0.1150 -0.0389
16723TIP3    H171660   0.193   4.103  11.341 -2.1592 -0.3714 -1.2062
16723TIP3    H271661   0.082   4.142  11.436 -1.1639  0.7668 -0.4855
16724TIP3   OH271662   3.145   3.010  12.938 -0.2744  0.7785 -0.2884
16724TIP3    H171663   3.139   2.969  12.851 -1.9148  0.3717 -0.0185
16724TIP3    H271664   3.115   3.100  12.924  0.1392  0.9216 -0.2668
16725TIP3   OH271665   4.216   1.252   0.743  0.5503  0.5049  0.4860
16725TIP3    H171666   4.189   1.343   0.738  0.3992  0.3968 -0.9787
16725TIP3    H271667   4.244   1.229   0.654  1.0793 -0.7289  0.9352
16726TIP3   OH271668   5.756   0.620  16.653  0.2182  0.0622  0.0693
16726TIP3    H171669   5.801   0.691  16.698  0.8041  0.5032 -1.1650
16726TIP3    H271670   5.824   0.581  16.597 -0.8372  0.5048 -1.5620
16727TIP3   OH271671   0.575   2.557  11.575  0.2330 -0.1564 -0.6812
16727TIP3    H171672   0.586   2.637  11.628  1.2296 -1.3678  1.0365
16727TIP3    H271673   0.609   2.487  11.631  0.2224 -1.6765 -2.5071
16728TIP3   OH271674   1.488   1.490   2.815 -0.7742 -0.2630 -0.4321
16728TIP3    H171675   1.472   1.416   2.873 -0.9656 -0.5098 -0.7935
16728TIP3    H271676   1.539   1.551   2.867  1.3836 -1.6239 -0.8103
16729TIP3   OH271677   5.605   5.789  13.853  0.4565  0.7704 -0.0185
16729TIP3    H171678   5.609   5.880  13.882  1.8933  1.3500 -1.7964
16729TIP3    H271679   5.600   5.795  13.757 -0.5083 -1.0233 -0.1216
16730TIP3   OH271680   1.197   3.508   4.403 -0.2724 -0.3379  0.1342
16730TIP3    H171681   1.178   3.578   4.465  2.9626 -0.1356  1.0811
16730TIP3    H271682   1.246   3.550   4.332 -0.0520 -1.3025 -0.3072
16731TIP3   OH271683   5.947   5.512  11.516  0.4629 -0.2404 -0.0221
16731TIP3    H171684   5.868   5.566  11.508  0.5249  0.0166  0.9904
16731TIP3    H271685   5.932   5.460  11.596  0.6468 -1.3226 -0.6665
16732TIP3   OH271686   5.220   4.055  14.206  0.0401 -0.3207  0.9956
16732TIP3    H171687   5.294   4.020  14.157 -0.5516 -1.2074  0.7223
16732TIP3    H271688   5.235   4.150  14.208  2.2128 -0.6116  2.6144
16733TIP3   OH271689   5.782   5.537  16.503 -0.0544  0.1547  0.0280
16733TIP3    H171690   5.864   5.489  16.488  0.5943  1.5735 -1.1738
16733TIP3    H271691   5.800   5.626  16.474 -2.0548  0.4927 -0.3375
16734TIP3   OH271692   3.745   3.613  17.015  0.0965  0.5121 -0.1986
16734TIP3    H171693   3.698   3.542  16.973 -1.2296  1.5093 -0.4795
16734TIP3    H271694   3.752   3.681  16.947 -0.7450  1.5490  0.7097
16735TIP3   OH271695   2.959   4.132   1.044  0.2573 -0.4384 -0.3889
16735TIP3    H171696   2.868   4.147   1.070  0.4329  0.7441 -0.3984
16735TIP3    H271697   2.957   4.050   0.994 -0.2704 -2.2230  2.3352
16736TIP3   OH271698   3.336   1.986   6.207  0.0576  0.1621  0.0835
16736TIP3    H171699   3.285   2.031   6.140 -2.6631 -1.5632  0.8323
16736TIP3    H271700   3.354   1.900   6.169 -0.6027 -0.4537  1.1172
16737TIP3   OH271701   6.590   4.343   4.636  0.1434 -0.4887 -0.0194
16737TIP3    H171702   6.583   4.249   4.650  0.0089 -0.3397  0.9533
16737TIP3    H271703   6.534   4.382   4.703 -2.4206  0.2060 -2.3825
16738TIP3   OH271704   4.852   2.952   5.402 -0.4903 -0.4296 -0.4994
16738TIP3    H171705   4.821   3.041   5.418 -1.0694 -0.6302 -0.4977
16738TIP3    H271706   4.782   2.896   5.434  0.2206 -0.9077  0.2458
16739TIP3   OH271707   0.371   6.069   5.044  0.0983  0.0341 -0.2443
16739TIP3    H171708   0.342   6.023   5.122 -0.5651  0.4425 -0.2399
16739TIP3    H271709   0.465   6.077   5.054 -0.1896  1.8559  1.4881
16740TIP3   OH271710   0.945   3.154   5.208 -0.2422 -0.0852 -0.3261
16740TIP3    H171711   0.857   3.156   5.170 -1.0616  2.8143  1.3743
16740TIP3    H271712   0.943   3.079   5.268 -1.3333 -0.4570 -0.7970
16741TIP3   OH271713   5.270   3.237  11.504  0.1655  0.1989 -0.2679
16741TIP3    H171714   5.280   3.148  11.470 -0.9207 -0.3985  0.8777
16741TIP3    H271715   5.359   3.272  11.507  0.4825 -0.3878 -1.8808
16742TIP3   OH271716   4.225   0.169  16.185 -0.1814  0.2524  0.0592
16742TIP3    H171717   4.316   0.147  16.202 -0.2310 -1.9859 -1.9246
16742TIP3    H271718   4.229   0.250  16.135  0.8247 -0.1992 -0.6396
16743TIP3   OH271719   1.272   1.632  16.038 -0.1641 -0.2062 -0.3370
16743TIP3    H171720   1.366   1.647  16.029 -0.5205  2.7119 -0.0983
16743TIP3    H271721   1.238   1.637  15.949  0.0495 -3.4785 -0.7362
16744TIP3   OH271722   6.718   0.279   5.605 -0.2593 -0.2376 -0.1009
16744TIP3    H171723   6.739   0.359   5.654 -1.0850 -0.4235  0.5683
16744TIP3    H271724   6.777   0.213   5.642 -0.7667 -0.3389  0.5423
16745TIP3   OH271725   1.089   0.152  15.243 -0.3274  0.5243 -0.1447
16745TIP3    H171726   1.110   0.161  15.150 -1.5425 -1.5389 -0.6773
16745TIP3    H271727   1.162   0.103  15.280 -1.7535 -2.4041 -0.9765
16746TIP3   OH271728   5.725   1.937  16.848 -0.0174 -0.2335  0.3022
16746TIP3    H171729   5.731   1.907  16.939  1.4950 -0.3979  0.1799
16746TIP3    H271730   5.745   2.030  16.852  1.3906 -0.4963  0.0232
16747TIP3   OH271731   0.941   5.775   2.751  0.2806 -0.8496 -0.1888
16747TIP3    H171732   0.889   5.703   2.714  0.5898 -1.4193  0.4485
16747TIP3    H271733   0.990   5.734   2.822 -0.4931  0.2557  1.0259
16748TIP3   OH271734   5.813   3.000  11.511  0.5150  1.0560  0.2051
16748TIP3    H171735   5.781   3.011  11.600  0.3458  1.1884  0.1299
16748TIP3    H271736   5.788   3.082  11.467 -0.1492  0.6435 -0.1889
16749TIP3   OH271737   5.596   4.136   5.594 -0.2102  0.4643 -0.1616
16749TIP3    H171738   5.544   4.188   5.532 -0.7319 -0.2194 -0.3027
16749TIP3    H271739   5.671   4.106   5.542  0.4842  1.6598  0.1067
16750TIP3   OH271740   0.283   0.062  11.609 -0.0582 -0.4351 -0.1055
16750TIP3    H171741   0.247  -0.026  11.622 -0.8241 -0.3466 -1.4121
16750TIP3    H271742   0.375   0.046  11.586 -0.0428 -0.8531  0.2165
16751TIP3   OH271743   5.375   4.906   1.797 -0.0342  0.1638 -0.3642
16751TIP3    H171744   5.355   4.815   1.817  2.6379 -0.8008 -1.6193
16751TIP3    H271745   5.390   4.947   1.882  1.4887 -1.3410  0.1600
16752TIP3   OH271746   3.174   4.250  13.060 -0.4822  0.5525 -0.9137
16752TIP3    H171747   3.088   4.283  13.034 -1.0205  0.8094  1.0361
16752TIP3    H271748   3.208   4.317  13.119  0.0101 -0.6518  0.2079
16753TIP3   OH271749   4.757   3.749  14.132 -0.6663  0.1332 -0.2464
16753TIP3    H171750   4.812   3.735  14.209 -1.1136 -1.6446 -0.2001
16753TIP3    H271751   4.817   3.782  14.065  0.5614 -1.9081 -0.2470
16754TIP3   OH271752   4.330   2.558   5.621 -0.0254  0.2554 -0.1010
16754TIP3    H171753   4.245   2.522   5.645  0.9793 -1.8996  0.3857
16754TIP3    H271754   4.356   2.612   5.696 -1.6662  2.4045 -0.9565
16755TIP3   OH271755   5.318   2.815  15.934 -0.6214 -0.4843 -0.0606
16755TIP3    H171756   5.311   2.907  15.962  0.2457 -0.4289  0.0184
16755TIP3    H271757   5.242   2.801  15.878 -0.3630  0.5163 -0.6934
16756TIP3   OH271758   5.480   0.020   0.420  0.3304  0.0628  0.2290
16756TIP3    H171759   5.390   0.041   0.443  0.3622  0.5183 -0.0716
16756TIP3    H271760   5.473  -0.036   0.342  0.2364 -1.2515  1.1417
16757TIP3   OH271761   4.355   1.243  12.038 -0.2723  0.8082  0.1869
16757TIP3    H171762   4.376   1.220  11.947 -0.5891 -1.9059  0.7329
16757TIP3    H271763   4.260   1.254  12.038 -0.3286  0.3380  0.2726
16758TIP3   OH271764   0.513   2.266   5.721  0.0739  0.0701 -0.2326
16758TIP3    H171765   0.419   2.269   5.734  0.2166  2.3477  0.6648
16758TIP3    H271766   0.546   2.212   5.793 -0.4788 -0.2446 -0.2135
16759TIP3   OH271767   3.472   5.994  15.571  0.0261 -0.5337  0.3921
16759TIP3    H171768   3.394   5.981  15.517 -0.9487 -0.2985  1.6782
16759TIP3    H271769   3.490   6.088  15.564  0.4982 -0.6654 -0.2776
16760TIP3   OH271770   4.479   1.698  16.436 -0.3457  0.2285  0.7349
16760TIP3    H171771   4.507   1.788  16.455  0.3558  0.0661  0.5137
16760TIP3    H271772   4.462   1.698  16.342 -1.5469  0.4384  0.9423
16761TIP3   OH271773   0.136   1.878   2.886 -0.6573 -0.0207  0.2326
16761TIP3    H171774   0.217   1.842   2.850  1.5730  2.3056  2.4824
16761TIP3    H271775   0.077   1.803   2.891  2.0760 -2.3576  0.4680
16762TIP3   OH271776   3.395   4.205  11.137  0.2313 -0.2348  0.4195
16762TIP3    H171777   3.418   4.251  11.217  0.4809  1.9872 -0.8286
16762TIP3    H271778   3.300   4.209  11.133  0.2434  0.0737  0.3945
16763TIP3   OH271779   1.007   2.760   2.263 -0.1253 -0.1982 -0.1017
16763TIP3    H171780   1.086   2.709   2.244 -0.2641  0.1173 -1.6549
16763TIP3    H271781   0.937   2.713   2.219 -0.3172  1.1122 -1.2448
16764TIP3   OH271782   5.017   2.589  14.040 -0.3368 -0.5247  0.0036
16764TIP3    H171783   4.938   2.556  13.998 -1.2041 -0.0272  1.2176
16764TIP3    H271784   5.084   2.582  13.972 -1.3739 -1.0924 -0.9974
16765TIP3   OH271785   4.124   5.897   4.354 -0.0885  0.7676  0.1026
16765TIP3    H171786   4.053   5.961   4.365 -0.1233  0.8621 -0.6598
16765TIP3    H271787   4.128   5.881   4.260 -1.5904 -2.0665  0.4260
16766TIP3   OH271788   6.518   3.713   0.605  0.3449  0.0960  0.2593
16766TIP3    H171789   6.425   3.733   0.616  0.3258  0.3737 -0.3974
16766TIP3    H271790   6.533   3.638   0.663 -0.3499 -0.1237  0.1632
16767TIP3   OH271791   2.887   2.767   1.255 -0.3932  0.4575 -0.3406
16767TIP3    H171792   2.906   2.714   1.332  0.1515  1.0938 -0.0217
16767TIP3    H271793   2.961   2.828   1.248 -1.1507  1.3986 -0.4870
16768TIP3   OH271794   4.956   3.969  11.734 -0.2016 -0.4265  0.2687
16768TIP3    H171795   4.886   4.027  11.763  1.1826  2.2352 -1.3025
16768TIP3    H271796   5.027   3.985  11.796  1.0748  1.6650 -1.5588
16769TIP3   OH271797   0.155   2.369   3.683  0.6082 -0.0638  0.4479
16769TIP3    H171798   0.113   2.288   3.653  0.4790  0.5308 -1.1096
16769TIP3    H271799   0.248   2.348   3.684  0.4923 -0.5834  1.2581
16770TIP3   OH271800   2.299   1.688   1.310  0.2138  0.2803 -0.0231
16770TIP3    H171801   2.314   1.597   1.335 -1.3670  0.0693  0.2244
16770TIP3    H271802   2.362   1.738   1.363  0.1411 -0.5517  0.8704
16771TIP3   OH271803   1.261   0.433   2.423 -0.4274  0.0896 -0.0430
16771TIP3    H171804   1.300   0.512   2.461  0.3685 -0.1307 -0.3866
16771TIP3    H271805   1.180   0.420   2.473  0.6246 -0.2439  1.6802
16772TIP3   OH271806   2.063   1.185  14.682  0.6553 -0.1617 -0.3775
16772TIP3    H171807   2.136   1.200  14.743 -0.2193 -2.0858  1.2440
16772TIP3    H271808   1.984   1.196  14.735 -0.2894  1.6858 -2.0609
16773TIP3   OH271809   0.733   6.083   4.547  0.1721  0.3658 -0.3316
16773TIP3    H171810   0.810   6.139   4.544 -0.2418  0.9152 -1.7710
16773TIP3    H271811   0.662   6.141   4.576 -0.0430  0.3224 -0.7599
16774TIP3   OH271812   3.487   2.508   3.235 -0.4279  0.0802 -0.7024
16774TIP3    H171813   3.483   2.563   3.313 -0.8639  1.2733 -1.5371
16774TIP3    H271814   3.396   2.496   3.208 -0.2340  0.6897 -1.6958
16775TIP3   OH271815   3.414   1.869   4.714  0.4441 -0.0078  0.0699
16775TIP3    H171816   3.399   1.916   4.632  0.0005 -0.4422 -0.1018
16775TIP3    H271817   3.420   1.938   4.780  0.5879  0.3340 -0.2970
16776TIP3   OH271818   5.197   4.913   5.711 -0.1589 -0.0421 -0.0809
16776TIP3    H171819   5.136   4.851   5.670 -1.5288  1.9595 -1.2006
16776TIP3    H271820   5.213   4.876   5.798 -1.2156 -1.7679 -0.5689
16777TIP3   OH271821   0.859   3.516   2.184  0.1019  0.3904  0.3066
16777TIP3    H171822   0.768   3.517   2.157  0.1612  1.9284  0.0567
16777TIP3    H271823   0.861   3.567   2.265  0.9342  1.6934 -0.4903
16778TIP3   OH271824   2.271   6.065  13.598  1.0091  0.1091 -0.3607
16778TIP3    H171825   2.239   6.028  13.516 -0.3109  1.6893 -0.5970
16778TIP3    H271826   2.297   5.989  13.650 -2.2579 -1.2758 -0.5391
16779TIP3   OH271827   0.719   4.348  16.232 -0.2399  0.5431 -0.5164
16779TIP3    H171828   0.741   4.437  16.257  0.1323  0.0190  1.1877
16779TIP3    H271829   0.724   4.347  16.137 -0.1700  2.3061 -0.5555
16780TIP3   OH271830   4.708   0.220   0.240  0.4103  0.3736 -0.2828
16780TIP3    H171831   4.649   0.254   0.173 -0.8085 -2.6144 -0.9094
16780TIP3    H271832   4.777   0.174   0.191 -0.2440 -1.4569  0.4059
16781TIP3   OH271833   4.930   4.232   0.068  0.5200 -0.2532 -0.0220
16781TIP3    H171834   4.880   4.190  -0.001 -0.6220  1.8036 -0.5307
16781TIP3    H271835   5.012   4.182   0.073  0.1694 -1.1142 -2.0919
16782TIP3   OH271836   0.570   6.415  16.300  0.6986  0.4072 -0.0919
16782TIP3    H171837   0.578   6.418  16.395 -4.2306 -0.0716  0.5626
16782TIP3    H271838   0.545   6.503  16.275  1.9065  0.5180 -1.0237
16783TIP3   OH271839   1.700   2.888  17.431  0.0327 -0.0470 -0.5612
16783TIP3    H171840   1.611   2.892  17.466 -0.1714 -0.6904 -0.9817
16783TIP3    H271841   1.717   2.975  17.396 -0.4745  0.0467 -0.5730
16784TIP3   OH271842   4.930   3.910   4.949  0.5062  0.2447 -0.3898
16784TIP3    H171843   4.840   3.942   4.962  0.5885 -0.6034  3.5142
16784TIP3    H271844   4.923   3.844   4.881 -1.8270  0.2696 -0.2445
16785TIP3   OH271845   1.191   2.716  16.188 -0.0339  0.3823  0.1586
16785TIP3    H171846   1.199   2.704  16.093  0.6766  1.6299  0.0380
16785TIP3    H271847   1.156   2.633  16.220  0.3680 -0.3012 -1.1140
16786TIP3   OH271848   4.729   4.339  16.095 -0.4433  0.4461  0.0672
16786TIP3    H171849   4.823   4.327  16.079 -0.5398  0.0684 -0.2584
16786TIP3    H271850   4.692   4.252  16.078 -0.8158  0.5251  0.4707
16787TIP3   OH271851   4.434   4.934   5.887 -0.0038  0.0518  0.0500
16787TIP3    H171852   4.423   4.996   5.959 -1.1938  0.7530 -0.7078
16787TIP3    H271853   4.506   4.970   5.836  0.6669 -0.3055  0.7275
16788TIP3   OH271854   0.677   5.884   0.318  0.3521 -0.5606  0.1294
16788TIP3    H171855   0.714   5.927   0.242 -1.5265  1.3619  0.1981
16788TIP3    H271856   0.599   5.935   0.339  0.7090 -1.0901  3.2639
16789TIP3   OH271857   2.056   0.962  12.551  0.4166 -0.2678 -0.3148
16789TIP3    H171858   2.001   0.889  12.580  0.3451 -0.7128 -1.5005
16789TIP3    H271859   2.132   0.920  12.511  1.2343  0.3414  0.5847
16790TIP3   OH271860   1.049   5.288   3.105  0.1740 -0.0253 -0.0123
16790TIP3    H171861   1.033   5.365   3.160  0.0145  0.8587 -1.2596
16790TIP3    H271862   1.119   5.315   3.045  1.0903 -1.3274  0.4135
16791TIP3   OH271863   1.605   6.740   4.138  0.5044  0.5854  0.0250
16791TIP3    H171864   1.621   6.686   4.215 -0.0287 -0.3208 -0.4806
16791TIP3    H271865   1.616   6.680   4.064  1.9390  1.6622 -0.6680
16792TIP3   OH271866   1.120   5.934  11.143 -0.6622  0.1837 -0.3901
16792TIP3    H171867   1.109   5.841  11.163  1.0957  0.1592  0.6504
16792TIP3    H271868   1.042   5.957  11.092 -1.6169 -1.6048  0.1808
16793TIP3   OH271869   4.046   5.711   5.530 -0.0258 -0.0715  0.8388
16793TIP3    H171870   4.128   5.691   5.575 -0.3941 -0.0767  1.5250
16793TIP3    H271871   3.988   5.744   5.599 -0.1385  1.2966  0.1223
16794TIP3   OH271872   5.918   5.266   5.664  0.3913  0.0164  0.8615
16794TIP3    H171873   5.887   5.280   5.754 -1.0125 -0.7139  0.5206
16794TIP3    H271874   5.878   5.336   5.614 -1.6141 -1.4905  0.2413
16795TIP3   OH271875   0.858   5.349  15.825  0.0044  0.0132  0.5353
16795TIP3    H171876   0.800   5.425  15.821 -1.9928 -1.3975  0.8305
16795TIP3    H271877   0.931   5.372  15.768 -1.9539  1.0367 -1.7952
16796TIP3   OH271878   5.032   5.689   1.345  0.2414  0.5936 -0.5397
16796TIP3    H171879   4.952   5.685   1.291 -0.4845  0.2824  0.5244
16796TIP3    H271880   5.053   5.597   1.363 -0.4420  0.7149  0.9962
16797TIP3   OH271881   4.679   2.865  11.230 -0.2515 -0.4781 -0.7474
16797TIP3    H171882   4.773   2.851  11.221  0.2142  0.5294  1.8303
16797TIP3    H271883   4.666   2.958  11.212 -0.1784  0.1601  2.0566
16798TIP3   OH271884   3.876   3.661  16.384  0.2619  0.3988 -0.0341
16798TIP3    H171885   3.834   3.738  16.422  0.5408 -0.0340  1.1909
16798TIP3    H271886   3.849   3.662  16.292 -2.0269  0.4045  0.5781
16799TIP3   OH271887   4.059   3.438  11.548  0.3021  0.5879 -0.2606
16799TIP3    H171888   4.098   3.489  11.618  0.6600  1.3344 -0.9892
16799TIP3    H271889   4.116   3.361  11.540 -0.3150 -0.0148  0.9244
16800TIP3   OH271890   0.418   2.523  16.549  0.0520 -0.2568 -0.4501
16800TIP3    H171891   0.469   2.596  16.585  0.3134  0.1224 -1.5728
16800TIP3    H271892   0.369   2.561  16.476  1.0234 -1.4304 -1.7533
16801TIP3   OH271893   2.378   6.398   1.825 -0.4008 -0.5150  0.1316
16801TIP3    H171894   2.377   6.355   1.740 -1.2602  1.1524 -0.7658
16801TIP3    H271895   2.439   6.346   1.878 -0.7821 -2.2936 -1.0968
16802TIP3   OH271896   0.306   2.344   5.351  0.7322 -0.1201 -0.3953
16802TIP3    H171897   0.372   2.309   5.291 -2.0980 -0.6156 -3.5181
16802TIP3    H271898   0.224   2.342   5.301 -1.3607  2.2657  2.5392
16803TIP3   OH271899   1.565   6.762   1.228  0.0437 -0.3878 -0.2708
16803TIP3    H171900   1.596   6.687   1.278 -1.9333  0.1897  2.0595
16803TIP3    H271901   1.612   6.837   1.265 -0.0248 -0.1651 -0.6261
16804TIP3   OH271902   4.493   4.545   1.018 -0.2696 -0.1164  0.5488
16804TIP3    H171903   4.521   4.634   1.042  0.9536 -0.2760 -0.2569
16804TIP3    H271904   4.538   4.489   1.081  0.4006 -0.2974 -0.0905
16805TIP3   OH271905   1.020   5.873  17.462 -0.0408 -0.5804  0.3401
16805TIP3    H171906   1.093   5.844  17.406 -0.7738 -1.0388 -0.4008
16805TIP3    H271907   1.057   5.874  17.550  1.2432  0.4652 -0.1671
16806TIP3   OH271908   0.881   1.510   2.119  0.1789 -0.2410 -0.5528
16806TIP3    H171909   0.810   1.507   2.183  0.1286  1.2263 -0.4967
16806TIP3    H271910   0.952   1.460   2.159  0.5899  1.6474  1.2770
16807TIP3   OH271911   3.176   3.718   0.335  0.4223  0.4417 -0.0839
16807TIP3    H171912   3.149   3.715   0.428  0.2535 -2.5539 -0.1129
16807TIP3    H271913   3.112   3.776   0.294 -0.1273  1.0356  1.5202
16808TIP3   OH271914   1.141   1.680   0.638  0.0014  0.3239  0.2754
16808TIP3    H171915   1.169   1.756   0.587  1.2292  0.2081  0.7472
16808TIP3    H271916   1.098   1.718   0.715 -3.4319  0.5139 -1.5408
16809TIP3   OH271917   6.406   1.180  12.286 -0.0615 -0.4976  0.0080
16809TIP3    H171918   6.378   1.193  12.195 -1.7182  0.2935  0.5902
16809TIP3    H271919   6.472   1.110  12.281  0.9244  0.4746 -1.9467
16810TIP3   OH271920   3.457   2.704  14.110  0.0371 -0.4272 -0.6229
16810TIP3    H171921   3.458   2.800  14.101 -0.3746 -0.5907 -2.7212
16810TIP3    H271922   3.489   2.671  14.026 -0.0534 -2.1581 -0.0159
16811TIP3   OH271923   1.615   5.931  11.399 -0.4433  0.3729 -0.9319
16811TIP3    H171924   1.592   5.925  11.492 -0.2216 -0.3929 -0.9201
16811TIP3    H271925   1.680   5.862  11.385 -2.3323 -1.2839 -2.1957
16812TIP3   OH271926   6.574   5.549   0.788 -0.4211  0.4039  0.1685
16812TIP3    H171927   6.486   5.588   0.785  0.1367  1.7373  0.5043
16812TIP3    H271928   6.583   5.521   0.879 -0.8775 -0.6957 -0.1059
16813TIP3   OH271929   0.260   5.439  11.792  0.5913  0.6318  0.1711
16813TIP3    H171930   0.186   5.380  11.804  0.6147  0.3242 -1.0582
16813TIP3    H271931   0.248   5.476  11.704  1.9479  0.4852 -0.1122
16814TIP3   OH271932   5.484   4.168  14.961 -0.1379  0.7801  0.0181
16814TIP3    H171933   5.407   4.182  15.017 -1.7792  1.0327 -2.1804
16814TIP3    H271934   5.555   4.213  15.008 -1.3573  0.8041  1.9826
16815TIP3   OH271935   0.179   6.065  13.673  0.3735  0.2392 -0.3893
16815TIP3    H171936   0.165   6.158  13.659  0.6824  0.3841  0.2535
16815TIP3    H271937   0.274   6.056  13.681  0.2125  0.3412  2.6685
16816TIP3   OH271938   1.550   3.592   3.970  0.0248 -0.5896 -0.2096
16816TIP3    H171939   1.644   3.609   3.976 -0.1526  1.5151 -1.9430
16816TIP3    H271940   1.543   3.507   3.928  1.1623 -0.8808  0.1630
16817TIP3   OH271941   6.016   3.297  17.107  0.6088  0.0594  0.3965
16817TIP3    H171942   6.043   3.302  17.015  0.6942 -2.4316  0.2290
16817TIP3    H271943   5.921   3.307  17.105  0.5312 -0.6896 -0.0574
16818TIP3   OH271944   3.000   4.051  13.148 -0.0393 -0.2971 -0.0721
16818TIP3    H171945   3.070   4.107  13.114 -0.9366 -0.7695 -2.9247
16818TIP3    H271946   2.949   4.109  13.206  1.1292  0.7844 -0.0880
16819TIP3   OH271947   6.647   5.337  16.987 -0.7690  0.1385 -0.3072
16819TIP3    H171948   6.644   5.329  16.892  0.2069  0.6333 -0.3949
16819TIP3    H271949   6.662   5.431  17.003 -0.8604  0.0525  0.3304
16820TIP3   OH271950   1.446   4.418  10.864 -0.0158  0.4630  0.1240
16820TIP3    H171951   1.473   4.449  10.777 -1.1228 -1.5842 -1.0273
16820TIP3    H271952   1.499   4.340  10.879 -1.2666 -0.3771  0.3299
16821TIP3   OH271953   0.058   6.145   5.976  0.4348 -0.9222  0.2228
16821TIP3    H171954   0.011   6.129   6.057 -0.3293 -1.1463 -0.2578
16821TIP3    H271955   0.013   6.220   5.936  2.9338  1.5404  1.6469
16822TIP3   OH271956   4.744   1.982   3.705  0.4465  0.2009 -0.5214
16822TIP3    H171957   4.751   1.888   3.720  1.5654  0.3622  0.0237
16822TIP3    H271958   4.695   1.989   3.623  1.5130 -0.8978 -1.2900
16823TIP3   OH271959   4.909   5.918   4.897 -0.5014 -0.3118 -0.1479
16823TIP3    H171960   4.966   5.991   4.920 -1.1120 -0.2250  1.1912
16823TIP3    H271961   4.954   5.841   4.934 -0.7441 -0.3697  0.0295
16824TIP3   OH271962   4.137   3.727  12.530 -0.1378 -0.1536  0.1882
16824TIP3    H171963   4.119   3.802  12.587  0.4361  0.4324 -0.3756
16824TIP3    H271964   4.232   3.723  12.526 -0.1671 -0.9330  0.2238
16825TIP3   OH271965   1.073   2.226   0.007  0.0849 -0.3660  0.7912
16825TIP3    H171966   1.015   2.161  -0.033 -1.5336  1.9105 -0.8424
16825TIP3    H271967   1.021   2.263   0.079 -0.5503  1.5565 -0.5628
16826TIP3   OH271968   6.540   4.783   4.360  0.2623  0.1248  0.7227
16826TIP3    H171969   6.535   4.696   4.400 -0.3048 -0.4881 -0.6037
16826TIP3    H271970   6.601   4.772   4.287  0.0320  0.7958  0.4245
16827TIP3   OH271971   1.513   4.595   5.167 -0.4646 -0.2680 -0.3183
16827TIP3    H171972   1.577   4.636   5.226 -0.0899  0.8961 -1.4746
16827TIP3    H271973   1.429   4.610   5.209 -0.1872  0.4242  0.0096
16828TIP3   OH271974   5.469   5.731  11.740 -0.6399  0.3813  0.4038
16828TIP3    H171975   5.518   5.814  11.740 -1.0003  0.5953  0.5569
16828TIP3    H271976   5.405   5.741  11.670  0.8694 -0.7083 -1.2303
16829TIP3   OH271977   5.323   1.205   2.674  0.3519  0.3956  0.5284
16829TIP3    H171978   5.247   1.183   2.727  0.5327 -2.1994 -0.1382
16829TIP3    H271979   5.364   1.278   2.719 -1.7141  0.8927  1.7020
16830TIP3   OH271980   1.707   1.108   1.693 -0.2743 -0.5693  0.7046
16830TIP3    H171981   1.710   1.040   1.626 -2.0271  0.9702 -1.0659
16830TIP3    H271982   1.784   1.162   1.677 -0.5814 -0.3227  0.0397
16831TIP3   OH271983   5.062   2.618   3.182  0.5515 -0.3571 -0.0343
16831TIP3    H171984   5.130   2.607   3.116  0.2048 -1.4351 -0.2234
16831TIP3    H271985   5.040   2.529   3.210 -0.0346  0.0269  0.7942
16832TIP3   OH271986   6.706   4.332   3.665 -0.7885  0.2804  0.0491
16832TIP3    H171987   6.656   4.268   3.614 -2.9346  1.3822  0.6640
16832TIP3    H271988   6.729   4.400   3.602 -1.4479  0.5305  0.0737
16833TIP3   OH271989   1.135   3.947   5.179 -0.0697  0.1084 -0.0689
16833TIP3    H171990   1.154   3.868   5.229 -1.1473 -0.1754 -0.0873
16833TIP3    H271991   1.162   4.019   5.237  1.6039 -0.2559 -0.3460
16834TIP3   OH271992   5.645   4.818  15.014  0.2658 -0.0035 -1.2148
16834TIP3    H171993   5.574   4.857  14.963 -0.7725 -0.5664 -0.2560
16834TIP3    H271994   5.685   4.891  15.061 -0.8534  0.0913 -0.3841
16835TIP3   OH271995   1.967   0.147  14.807  0.3714 -0.2566  0.0805
16835TIP3    H171996   2.061   0.142  14.826  0.8743  0.5467 -1.8822
16835TIP3    H271997   1.946   0.240  14.813  0.1370 -0.2017 -1.2026
16836TIP3   OH271998   3.974   0.224   2.065 -0.7482 -0.2811  0.5637
16836TIP3    H171999   4.049   0.169   2.044  0.9474  2.6371 -1.8092
16836TIP3    H272000   4.012   0.309   2.087 -3.3147  0.7661  1.2763
16837TIP3   OH272001   4.165   6.752   5.329  0.1638 -0.1335  0.1934
16837TIP3    H172002   4.192   6.824   5.272  0.0987 -0.0524  0.2650
16837TIP3    H272003   4.069   6.750   5.322  0.1738 -0.2822  0.1068
16838TIP3   OH272004   6.026   4.538   4.876  0.3783  0.4332 -0.7943
16838TIP3    H172005   6.092   4.483   4.918 -0.4926 -0.3807 -0.4482
16838TIP3    H272006   6.058   4.552   4.787  1.9990  1.7438 -0.0451
16839TIP3   OH272007   3.091   2.143   1.205 -0.1301  1.2001  0.8504
16839TIP3    H172008   3.180   2.107   1.202  0.7491  3.1838  1.2852
16839TIP3    H272009   3.034   2.067   1.193  1.6048 -0.1917  0.9467
16840TIP3   OH272010   0.530   4.213  16.364  0.2880 -0.0728  0.0084
16840TIP3    H172011   0.590   4.269  16.314 -0.1830  1.0972  0.7098
16840TIP3    H272012   0.476   4.171  16.297  1.7792 -1.0751 -0.6351
16841TIP3   OH272013   5.429   3.360   3.620  0.4287 -0.2614 -0.3568
16841TIP3    H172014   5.471   3.356   3.705 -0.4332 -0.7697  0.0601
16841TIP3    H272015   5.356   3.298   3.626 -0.0985  0.2481 -1.2113
16842TIP3   OH272016   0.357   2.790   4.258 -0.6023  0.5962  0.2927
16842TIP3    H172017   0.361   2.846   4.180  0.1974 -0.0094 -0.1088
16842TIP3    H272018   0.294   2.722   4.236 -1.0568  0.9338  0.5245
16843TIP3   OH272019   0.515   1.213   6.214 -0.0360  0.3082  0.3511
16843TIP3    H172020   0.516   1.281   6.147 -0.9888  0.5977  0.6173
16843TIP3    H272021   0.595   1.227   6.264  1.4058 -0.7580 -1.5293
16844TIP3   OH272022   0.891   1.671   5.249  0.5326  0.0099 -0.0178
16844TIP3    H172023   0.804   1.651   5.213  0.3847 -2.2045  1.3979
16844TIP3    H272024   0.938   1.713   5.177 -0.7296 -1.4700 -1.7746
16845TIP3   OH272025   3.701   5.514  14.709  0.8637  0.3007 -0.0044
16845TIP3    H172026   3.699   5.512  14.805 -1.1453  0.7808  0.0167
16845TIP3    H272027   3.620   5.560  14.685  1.0916 -0.2406 -1.9352
16846TIP3   OH272028   4.415   3.016  16.272  0.1821 -0.1167 -0.3464
16846TIP3    H172029   4.410   2.921  16.278  0.9447 -0.1337  0.1203
16846TIP3    H272030   4.452   3.043  16.356 -2.0718  0.7693  0.4469
16847TIP3   OH272031   5.469   4.588  12.791 -0.6767  0.2933 -0.6255
16847TIP3    H172032   5.484   4.656  12.725  0.2495  1.3065  0.5669
16847TIP3    H272033   5.538   4.523  12.775  0.3287  1.1455  0.0628
16848TIP3   OH272034   0.642   1.264  15.746 -0.0511  0.8640 -0.0373
16848TIP3    H172035   0.668   1.201  15.814  2.2204  1.6414 -0.0797
16848TIP3    H272036   0.557   1.234  15.716 -0.9481  0.1991  2.8114
16849TIP3   OH272037   3.701   3.955   4.374 -0.0794 -0.5565  0.0682
16849TIP3    H172038   3.681   3.922   4.462  1.5442 -0.6333  0.4432
16849TIP3    H272039   3.750   4.036   4.390 -0.2065 -0.3118 -0.7753
16850TIP3   OH272040   1.111   1.903  17.287 -0.3668  0.0221 -0.5553
16850TIP3    H172041   1.168   1.980  17.291 -2.1528  1.5007 -1.9802
16850TIP3    H272042   1.079   1.892  17.377 -0.1643  1.0159 -0.3454
16851TIP3   OH272043   2.240   1.780  15.402  0.1823  0.0887  0.1660
16851TIP3    H172044   2.170   1.772  15.467  1.2370 -0.9195  1.2319
16851TIP3    H272045   2.206   1.734  15.325 -1.3870  1.9374 -0.3346
16852TIP3   OH272046   3.417   3.977   5.352 -0.1686  1.1693  0.3916
16852TIP3    H172047   3.457   3.937   5.429 -1.2389 -1.4823 -0.3391
16852TIP3    H272048   3.489   3.983   5.289 -0.0134  0.1531  0.4554
16853TIP3   OH272049   4.849   6.378   2.784 -0.4845 -0.4200  0.5228
16853TIP3    H172050   4.784   6.448   2.795  0.0643  0.2669 -0.4002
16853TIP3    H272051   4.810   6.321   2.717  0.5302  0.9063 -1.3034
16854TIP3   OH272052   3.927   2.949  13.556 -0.5499 -0.9297  0.1700
16854TIP3    H172053   3.855   2.892  13.584 -0.8634 -1.1593 -1.0511
16854TIP3    H272054   3.885   3.014  13.500  0.2234 -1.2088 -0.7453
16855TIP3   OH272055   0.144   1.657   4.805 -0.1927  0.2817 -0.2182
16855TIP3    H172056   0.175   1.567   4.789 -1.6162 -0.1184 -0.8494
16855TIP3    H272057   0.069   1.667   4.747  1.7074  2.9302 -2.4799
16856TIP3   OH272058   5.991   5.262   2.670 -0.2503 -0.1957  0.2788
16856TIP3    H172059   6.029   5.205   2.736 -0.7493  0.8684  1.5361
16856TIP3    H272060   6.038   5.345   2.681 -1.0061  0.2833 -0.0278
16857TIP3   OH272061   1.622   3.123   2.451  0.0798  0.0033 -0.9536
16857TIP3    H172062   1.565   3.046   2.457 -1.4356  1.1086 -0.5613
16857TIP3    H272063   1.570   3.194   2.488  2.6444  0.5999  1.9791
16858TIP3   OH272064   1.022   0.610  16.990 -0.0530 -1.0789 -0.0519
16858TIP3    H172065   1.044   0.631  16.899 -0.0879  2.4681  0.6222
16858TIP3    H272066   1.104   0.622  17.038  0.1790 -3.7556  0.3719
16859TIP3   OH272067   0.105   2.627  13.164  0.1910  0.1558  0.1593
16859TIP3    H172068   0.088   2.719  13.184  0.7444  0.3444 -0.2139
16859TIP3    H272069   0.151   2.594  13.240 -1.8501 -0.3880  1.2303
16860TIP3   OH272070   2.661   3.059   5.447 -0.4856  0.4714 -0.0609
16860TIP3    H172071   2.740   3.017   5.480 -0.0516  1.3796  0.0903
16860TIP3    H272072   2.630   3.112   5.521  0.3424  2.3196 -0.9934
16861TIP3   OH272073   2.575   6.289   5.669 -0.1076 -0.3672 -0.6112
16861TIP3    H172074   2.629   6.281   5.747 -0.1611  0.4565 -0.4785
16861TIP3    H272075   2.577   6.202   5.629 -1.0109 -1.1093  0.8984
16862TIP3   OH272076   1.398   0.958   3.926  0.8171 -0.0139  0.1817
16862TIP3    H172077   1.328   1.021   3.943  0.8074  0.3982 -1.2045
16862TIP3    H272078   1.470   0.985   3.983 -0.3736 -0.8819  2.1723
16863TIP3   OH272079   3.111   4.247  14.497 -0.1138  0.0433 -0.4031
16863TIP3    H172080   3.176   4.206  14.439  1.4375  0.0228  1.2644
16863TIP3    H272081   3.116   4.196  14.578  0.2912  2.1465  0.9732
16864TIP3   OH272082   6.212   1.722   4.448 -0.0867  0.0763  0.1307
16864TIP3    H172083   6.224   1.674   4.366 -1.6627 -1.0836  0.5332
16864TIP3    H272084   6.186   1.656   4.511  0.7087  1.0163  1.5025
16865TIP3   OH272085   4.954   6.042   6.371  0.4603  0.0020  0.4365
16865TIP3    H172086   4.961   5.966   6.429 -0.4927 -1.5041 -1.2896
16865TIP3    H272087   4.957   6.117   6.429  0.6509 -1.3781  2.3107
16866TIP3   OH272088   1.689   5.706   4.985  0.5032  0.3306  1.1147
16866TIP3    H172089   1.668   5.777   4.924 -1.1425 -0.5740  0.5733
16866TIP3    H272090   1.756   5.655   4.941 -0.0948  0.1512  0.3907
16867TIP3   OH272091   4.952   4.755  12.882 -0.0263  0.0268 -0.1200
16867TIP3    H172092   4.938   4.737  12.789 -0.1483  1.8885 -0.5134
16867TIP3    H272093   5.045   4.774  12.890  0.1876 -1.1687  0.3523
16868TIP3   OH272094   5.904   5.092  17.151  0.5062 -0.7379  0.2021
16868TIP3    H172095   5.816   5.071  17.184 -0.4713  1.3054 -0.9470
16868TIP3    H272096   5.950   5.128  17.227 -0.3656  0.1488  0.3246
16869TIP3   OH272097   2.286   6.451  15.772 -1.3871 -0.0603  0.4225
16869TIP3    H172098   2.266   6.505  15.848  1.5525 -1.2279  2.2062
16869TIP3    H272099   2.275   6.361  15.804 -2.1603 -0.5858 -1.2199
16870TIP3   OH272100   6.449   5.315   1.253  0.0605 -0.0496 -0.0565
16870TIP3    H172101   6.527   5.276   1.214  0.4737  1.1329 -0.4240
16870TIP3    H272102   6.417   5.247   1.313  1.7835 -0.2777  0.6734
16871TIP3   OH272103   5.345   4.327  11.092  0.6770 -0.7139 -0.1452
16871TIP3    H172104   5.369   4.242  11.128 -0.2358 -0.3897  1.2896
16871TIP3    H272105   5.298   4.306  11.011  1.2886 -1.5251 -0.2996
16872TIP3   OH272106   3.350   6.475  14.968 -0.4158  0.2914 -0.0909
16872TIP3    H172107   3.377   6.559  15.005  1.3324  0.0581 -0.7332
16872TIP3    H272108   3.393   6.410  15.025  0.6167 -0.0946 -1.2613
16873TIP3   OH272109   5.809   5.738   2.339  0.1742  0.3842 -0.1502
16873TIP3    H172110   5.895   5.700   2.361  0.6305  0.4894 -1.6693
16873TIP3    H272111   5.821   5.775   2.252 -1.1869  1.1804 -0.0210
16874TIP3   OH272112   5.191   3.493  13.316  0.0275  0.8830  0.2748
16874TIP3    H172113   5.103   3.528  13.301  0.4910  1.9712  0.0007
16874TIP3    H272114   5.249   3.551  13.266  0.7962 -0.6099 -0.6559
16875TIP3   OH272115   5.549   2.664   6.592 -0.2633  0.2508  0.9156
16875TIP3    H172116   5.595   2.734   6.637  0.1780  0.2885  0.4199
16875TIP3    H272117   5.540   2.594   6.657 -1.6236  1.1402  1.7326
16876TIP3   OH272118   2.955   3.654   3.215  0.4618  0.2215 -0.1518
16876TIP3    H172119   2.937   3.732   3.268 -1.0529  1.0069 -1.7237
16876TIP3    H272120   2.873   3.605   3.215  0.8885 -0.5232 -0.5842
16877TIP3   OH272121   1.563   6.137  15.535  0.3529 -0.4609 -0.2172
16877TIP3    H172122   1.643   6.184  15.559 -0.8255  1.0133  1.0532
16877TIP3    H272123   1.542   6.083  15.611 -0.5029  0.0965 -0.0418
16878TIP3   OH272124   5.490   1.274   0.856 -0.2356 -0.5003  0.6883
16878TIP3    H172125   5.569   1.220   0.856 -0.1610 -0.3879  1.1494
16878TIP3    H272126   5.436   1.236   0.786  1.3308  1.0584 -1.4824
16879TIP3   OH272127   6.207   4.342  16.269 -0.0558  0.1430  0.1363
16879TIP3    H172128   6.113   4.325  16.274 -0.0391 -0.4709 -1.1913
16879TIP3    H272129   6.239   4.280  16.204  1.3936 -0.1012  1.0315
16880TIP3   OH272130   2.619   4.813  12.318  0.0136  0.7829  0.3470
16880TIP3    H172131   2.582   4.857  12.242 -2.8425 -1.0498  0.5150
16880TIP3    H272132   2.592   4.866  12.393 -2.1335 -0.2820  0.4262
16881TIP3   OH272133   6.006   2.972   2.485  0.2172  0.7690  0.7802
16881TIP3    H172134   5.934   2.957   2.546  0.6229 -0.3121  1.0074
16881TIP3    H272135   6.021   3.067   2.490 -1.1767  1.0085  0.7194
16882TIP3   OH272136   6.388   5.920   1.495  0.0534 -0.5111  0.1390
16882TIP3    H172137   6.302   5.889   1.466  0.1284 -0.0689 -0.6009
16882TIP3    H272138   6.434   5.941   1.413  0.5154  0.1703  0.5656
16883TIP3   OH272139   4.268   5.755   6.632 -0.3747 -0.8996 -0.1857
16883TIP3    H172140   4.173   5.764   6.631 -0.2664  0.7377  0.0979
16883TIP3    H272141   4.284   5.661   6.624 -2.0150 -1.2427  0.2043
16884TIP3   OH272142   6.141   2.303  16.075  0.3073 -0.0549  0.3523
16884TIP3    H172143   6.202   2.317  16.003 -0.3665  1.5852  0.0658
16884TIP3    H272144   6.062   2.268  16.034  0.5152 -0.7609  0.5357
16885TIP3   OH272145   5.909   1.402  13.421  0.2372  0.3823 -0.1802
16885TIP3    H172146   5.938   1.378  13.334 -0.8225  0.3039 -0.5249
16885TIP3    H272147   5.973   1.468  13.450  0.8122  0.1344 -0.8479
16886TIP3   OH272148   6.083   2.311  12.383  0.3781  0.7879  0.1729
16886TIP3    H172149   6.105   2.258  12.306 -1.1543 -1.3802  1.1326
16886TIP3    H272150   6.031   2.252  12.438 -0.5993  3.0304  1.7666
16887TIP3   OH272151   3.378   1.855   5.683  0.5137 -0.1160 -0.0769
16887TIP3    H172152   3.308   1.801   5.719  0.2155 -0.5043 -1.2026
16887TIP3    H272153   3.453   1.796   5.676  0.6803  0.0552  0.2546
16888TIP3   OH272154   4.510   3.127  14.370  0.3814  0.2702  0.4080
16888TIP3    H172155   4.552   3.115  14.285  0.9378  0.7172  0.6149
16888TIP3    H272156   4.574   3.176  14.422  0.0950 -0.1108  1.1286
16889TIP3   OH272157   6.024   2.290   0.238 -0.3742 -0.6840 -0.5494
16889TIP3    H172158   6.044   2.361   0.298 -1.3345 -1.2696  0.5278
16889TIP3    H272159   5.953   2.242   0.282  0.7998 -2.7931 -0.8160
16890TIP3   OH272160   3.087   2.519   2.013  0.0166 -0.5043  0.0622
16890TIP3    H172161   3.005   2.566   2.029 -0.4918 -1.9017  1.9772
16890TIP3    H272162   3.059   2.430   1.992  1.0302 -0.5843 -1.0615
16891TIP3   OH272163   2.544   0.624   3.321  0.0245  0.8937  0.0917
16891TIP3    H172164   2.504   0.707   3.294  1.9527  1.4139 -1.4000
16891TIP3    H272165   2.618   0.612   3.261 -0.4324 -2.1421 -0.0216
16892TIP3   OH272166   2.806   5.184  11.611  0.1862 -0.5326 -0.1495
16892TIP3    H172167   2.763   5.120  11.555  0.3153 -1.5573  0.8735
16892TIP3    H272168   2.752   5.186  11.690  0.6464  0.0151  0.1592
16893TIP3   OH272169   2.452   1.758   4.490 -0.2586 -0.4516 -0.2569
16893TIP3    H172170   2.406   1.685   4.449 -1.3585 -0.3576  0.7596
16893TIP3    H272171   2.530   1.718   4.529  1.4027 -0.3790 -3.2422
16894TIP3   OH272172   1.592   5.661  16.744  0.8436 -0.3494  0.4137
16894TIP3    H172173   1.613   5.568  16.731 -1.5194 -0.7995 -0.6510
16894TIP3    H272174   1.616   5.703  16.661 -0.7047 -0.5615 -0.1708
16895TIP3   OH272175   3.149   5.392  14.833 -0.1902 -0.4244 -0.0554
16895TIP3    H172176   3.152   5.484  14.805  0.7911 -1.3602 -3.5807
16895TIP3    H272177   3.211   5.388  14.906  0.4731  1.5577 -0.4320
16896TIP3   OH272178   0.302   3.997  11.240 -0.4531  0.2163 -0.1642
16896TIP3    H172179   0.378   4.036  11.197  1.2155 -0.5850  1.9035
16896TIP3    H272180   0.261   3.942  11.173  1.6030 -0.4339 -0.9341
16897TIP3   OH272181   2.280   2.978  16.248 -0.0264 -0.5487  0.6146
16897TIP3    H172182   2.330   2.900  16.272  0.9017  0.3046  1.5319
16897TIP3    H272183   2.233   2.952  16.169  0.7392 -1.8388  0.5438
16898TIP3   OH272184   4.090   3.146   4.932 -0.0514  0.2669 -0.2359
16898TIP3    H172185   4.181   3.134   4.962 -0.5900 -0.6589  1.1357
16898TIP3    H272186   4.063   3.229   4.972  0.0141  0.2483 -0.1503
16899TIP3   OH272187   4.331   2.390   4.234 -0.2026  0.1397  0.4767
16899TIP3    H172188   4.301   2.479   4.254 -2.8360 -0.6522  0.3835
16899TIP3    H272189   4.287   2.367   4.153  1.4472 -0.8389 -0.1896
16900TIP3   OH272190   4.310   2.484  14.361  0.3701  0.5458  0.1740
16900TIP3    H172191   4.237   2.425  14.382 -2.1982  2.8414 -1.6480
16900TIP3    H272192   4.367   2.432  14.304 -1.5907 -0.3688 -1.0614
16901TIP3   OH272193   3.939   0.528  17.374 -0.0118 -0.2592  0.1635
16901TIP3    H172194   3.994   0.487  17.307  0.0928  0.8858 -0.4770
16901TIP3    H272195   3.856   0.546  17.330  0.1552  0.7661  0.2312
16902TIP3   OH272196   1.063   6.433  12.706 -0.7624 -0.8072 -0.6527
16902TIP3    H172197   0.983   6.380  12.704 -0.4939 -1.1989 -1.2561
16902TIP3    H272198   1.133   6.371  12.684 -0.3088 -0.4328 -0.2767
16903TIP3   OH272199   1.520   5.793  11.948 -0.1960  0.4891  0.7052
16903TIP3    H172200   1.508   5.767  11.856  0.9960 -0.1021  0.6998
16903TIP3    H272201   1.464   5.733  11.997  2.4624 -2.2018  0.6830
16904TIP3   OH272202   5.012   6.506   6.161 -1.0327  0.7500 -0.3083
16904TIP3    H172203   5.077   6.491   6.230  0.1825  1.0004 -1.3575
16904TIP3    H272204   4.943   6.442   6.178 -0.1021 -0.1119  0.3356
16905TIP3   OH272205   1.393   4.493  12.085 -0.7260 -0.3938 -0.4041
16905TIP3    H172206   1.414   4.465  11.995 -0.4262 -1.6645  0.0470
16905TIP3    H272207   1.447   4.437  12.140 -1.5044 -0.1540  0.6125
16906TIP3   OH272208   4.988   3.409   2.563  0.1580 -0.0875  0.1590
16906TIP3    H172209   5.066   3.378   2.518  0.3843  0.4786  0.1545
16906TIP3    H272210   4.965   3.338   2.623  1.9427  0.5726  1.7241
16907TIP3   OH272211   6.176   4.522  13.290  0.0965 -0.4354 -0.4182
16907TIP3    H172212   6.142   4.611  13.296 -2.1292 -1.2219 -0.1998
16907TIP3    H272213   6.267   4.532  13.263 -0.1145  1.8842 -0.4450
16908TIP3   OH272214   4.364   5.218   3.059 -0.3714 -0.1702  0.2728
16908TIP3    H172215   4.295   5.206   3.124 -0.8181  1.1688  0.0865
16908TIP3    H272216   4.334   5.169   2.982 -0.2974 -0.9705  0.7477
16909TIP3   OH272217   1.873   2.628   4.661 -0.0188  0.2649  0.0341
16909TIP3    H172218   1.799   2.665   4.709 -0.7606 -3.7325  2.4239
16909TIP3    H272219   1.833   2.565   4.602  1.3727 -1.0264  0.4196
16910TIP3   OH272220   4.698   3.458   4.425 -0.4893 -0.2400 -0.2863
16910TIP3    H172221   4.718   3.454   4.332 -0.2588 -0.1930 -0.2397
16910TIP3    H272222   4.765   3.516   4.462 -1.0851  0.4338 -0.2311
16911TIP3   OH272223   6.664   1.429   6.100 -0.1396 -0.7256 -0.1953
16911TIP3    H172224   6.744   1.432   6.152 -0.1381 -0.7446 -0.1965
16911TIP3    H272225   6.680   1.360   6.036 -0.1634 -0.7404 -0.1852
16912TIP3   OH272226   0.870   3.632   0.893 -0.5908 -0.2397  0.0520
16912TIP3    H172227   0.949   3.684   0.879  0.1758 -1.5696 -0.7150
16912TIP3    H272228   0.812   3.657   0.821  0.7202 -2.1264 -1.7789
16913TIP3   OH272229   1.091   1.976   3.031  0.2248 -0.8862  0.2756
16913TIP3    H172230   1.150   2.027   2.976 -0.0586 -0.8427  0.0114
16913TIP3    H272231   1.106   1.885   3.004  0.1596 -0.8736  0.1959
16914TIP3   OH272232   0.382   2.301   0.985 -0.0704  0.3655 -0.5646
16914TIP3    H172233   0.306   2.243   0.984  0.1764  0.0434 -1.2446
16914TIP3    H272234   0.374   2.349   1.067 -0.5848 -0.2235 -0.2619
16915TIP3   OH272235   6.161   4.868  16.016 -0.6527  0.1000 -0.2992
16915TIP3    H172236   6.066   4.852  16.017 -0.5461 -0.5938 -0.7065
16915TIP3    H272237   6.185   4.863  15.924 -0.2966  0.8001 -0.2536
16916TIP3   OH272238   4.236   3.427   3.018  0.6105 -0.2510  0.1859
16916TIP3    H172239   4.167   3.449   2.955  0.2755 -0.7564  0.3740
16916TIP3    H272240   4.310   3.401   2.964 -0.4676 -3.1852 -0.0459
16917TIP3   OH272241   6.280   3.963  15.740  0.1172 -0.0450 -0.8384
16917TIP3    H172242   6.271   4.058  15.750  0.2151  0.3095 -3.5643
16917TIP3    H272243   6.222   3.940  15.668 -0.0908 -2.1203 -0.0672
16918TIP3   OH272244   0.596   6.559  13.655 -0.5193 -0.9350 -0.1726
16918TIP3    H172245   0.603   6.550  13.750 -0.7057 -0.2324 -0.0848
16918TIP3    H272246   0.613   6.472  13.621  2.8968 -0.5975  0.3314
16919TIP3   OH272247   4.584   5.574   0.768  0.5235 -0.7499 -0.4660
16919TIP3    H172248   4.618   5.558   0.856 -0.1619  0.8085  0.1141
16919TIP3    H272249   4.520   5.504   0.755  0.4711 -0.8704  0.3533
16920TIP3   OH272250   6.456   6.726  12.419 -0.1521  0.1194 -0.0754
16920TIP3    H172251   6.457   6.648  12.363  0.9192 -0.5508  0.8418
16920TIP3    H272252   6.393   6.705  12.488 -1.5644  0.9948 -1.0458
16921TIP3   OH272253   1.169   2.779  12.952  0.7621  0.2563 -0.4843
16921TIP3    H172254   1.130   2.811  13.033 -0.6237 -1.1022 -0.5662
16921TIP3    H272255   1.135   2.838  12.885 -0.2487 -0.1906 -0.3914
16922TIP3   OH272256   1.453   3.405   4.597  0.1891  0.1011  0.4319
16922TIP3    H172257   1.442   3.383   4.504  2.9642  0.7892 -0.1517
16922TIP3    H272258   1.408   3.489   4.607 -1.3125 -0.6236  0.0962
16923TIP3   OH272259   2.088   5.398   2.214  0.2481 -0.2159 -0.1882
16923TIP3    H172260   2.141   5.358   2.145  1.0412  0.5930 -0.0532
16923TIP3    H272261   2.106   5.492   2.207  0.4511 -0.1335  1.2108
16924TIP3   OH272262   1.825   1.813   4.742  1.1355 -0.3699  0.0638
16924TIP3    H172263   1.810   1.779   4.654 -1.8421  2.1139 -0.5770
16924TIP3    H272264   1.795   1.742   4.800 -1.0805 -0.4782 -1.0918
16925TIP3   OH272265   1.721   4.355  14.097  0.3172 -0.2786 -0.4538
16925TIP3    H172266   1.655   4.312  14.151 -0.7938 -1.0410 -2.3211
16925TIP3    H272267   1.762   4.420  14.155 -2.9632  1.1630  0.4734
16926TIP3   OH272268   6.211   5.081   1.896  0.1204  0.3093 -0.4882
16926TIP3    H172269   6.192   5.022   1.823 -0.0065 -0.4434  0.1461
16926TIP3    H272270   6.300   5.057   1.923  0.9100  1.8189 -1.5409
16927TIP3   OH272271   3.890   3.978  15.213 -0.2904 -0.0103  0.7284
16927TIP3    H172272   3.836   4.042  15.168 -0.2091  0.2880  1.0480
16927TIP3    H272273   3.980   4.006  15.198 -0.2047 -0.6246  0.0219
16928TIP3   OH272274   0.295   3.477   0.855  0.0467 -0.2500  0.4969
16928TIP3    H172275   0.254   3.475   0.942  0.7210 -3.6764  0.8802
16928TIP3    H272276   0.224   3.452   0.795  0.3423 -1.1676  0.5171
16929TIP3   OH272277   0.957   6.096  14.963 -0.1214  0.3235  0.1707
16929TIP3    H172278   0.882   6.063  14.914 -2.0904  2.3366  1.6674
16929TIP3    H272279   0.955   6.049  15.046 -1.7244  2.5112  1.4826
16930TIP3   OH272280   2.845   5.535   2.094  0.2082  0.2964  0.0604
16930TIP3    H172281   2.852   5.446   2.129 -1.0705 -0.6367 -1.8046
16930TIP3    H272282   2.787   5.580   2.156  0.3232 -0.3818  0.6832
16931TIP3   OH272283   5.339   1.081  11.404  0.2027 -0.0999  0.2617
16931TIP3    H172284   5.290   1.102  11.325  0.7941  0.4748  0.0335
16931TIP3    H272285   5.419   1.039  11.372  0.5730  0.3920  0.5343
16932TIP3   OH272286   5.154   5.899  15.528 -0.0491  0.0303 -0.4048
16932TIP3    H172287   5.082   5.961  15.535  0.9852  1.0719  2.4770
16932TIP3    H272288   5.213   5.937  15.463 -0.4774  0.9145 -0.2863
16933TIP3   OH272289   5.888   3.587  17.457  0.2240  0.1950  0.0467
16933TIP3    H172290   5.908   3.575  17.364 -1.3638  0.2715 -0.3386
16933TIP3    H272291   5.866   3.499  17.488 -2.8508  0.6030 -0.6189
16934TIP3   OH272292   0.467   4.740   2.278  0.5228  0.3889 -0.1532
16934TIP3    H172293   0.419   4.761   2.359  1.6401 -1.1727  0.9729
16934TIP3    H272294   0.501   4.824   2.248  0.5320  0.9324  1.3101
16935TIP3   OH272295   3.348   4.420   3.583  0.6498  0.3993  0.6393
16935TIP3    H172296   3.371   4.416   3.490 -0.5949  0.0541  0.3239
16935TIP3    H272297   3.419   4.374   3.627  1.8912  1.6367  0.0044
16936TIP3   OH272298   0.541   0.955  12.172 -0.0303  0.1600  0.4625
16936TIP3    H172299   0.624   0.969  12.219 -0.7479  1.3352  1.4601
16936TIP3    H272300   0.541   1.022  12.104  0.0358 -0.1335  0.1730
16937TIP3   OH272301   4.358   5.326   5.116 -0.4646 -0.2301 -0.6191
16937TIP3    H172302   4.412   5.309   5.193 -0.0990 -0.1007 -0.8508
16937TIP3    H272303   4.389   5.409   5.082 -0.4815 -0.3951 -1.0352
16938TIP3   OH272304   0.540   1.606   2.495  0.2899 -0.5314  0.1918
16938TIP3    H172305   0.500   1.533   2.447 -3.2267  1.6521 -0.5715
16938TIP3    H272306   0.511   1.593   2.585 -0.7360  0.1281 -0.0328
16939TIP3   OH272307   4.032   1.378  14.239  0.1790  0.2756  0.0664
16939TIP3    H172308   4.045   1.283  14.247 -0.4255  0.2167  0.4232
16939TIP3    H272309   3.970   1.388  14.168 -0.1777  0.3678  0.3873
16940TIP3   OH272310   4.697   6.616  16.554 -0.4887 -0.3006 -0.0286
16940TIP3    H172311   4.705   6.544  16.616 -2.5670 -1.3799 -0.8951
16940TIP3    H272312   4.637   6.583  16.486  0.2559  1.4585 -1.6519
16941TIP3   OH272313   6.197   3.666  13.355  0.2102  0.5147 -0.1453
16941TIP3    H172314   6.118   3.716  13.332 -0.4928 -0.5558 -0.1344
16941TIP3    H272315   6.245   3.723  13.414 -2.3903 -0.1588  2.8951
16942TIP3   OH272316   4.023   2.806  12.535  0.2056  0.4033 -0.7559
16942TIP3    H172317   4.073   2.826  12.614  1.0456 -0.8057 -0.9625
16942TIP3    H272318   3.940   2.770  12.568  0.7020 -0.4532 -0.4156
16943TIP3   OH272319   4.843   4.109   3.717 -0.0622  0.5166 -0.0831
16943TIP3    H172320   4.810   4.155   3.640  1.8782  1.4416 -0.4307
16943TIP3    H272321   4.877   4.178   3.774  0.2908 -0.2967  0.7267
16944TIP3   OH272322   5.940   2.302  13.534 -0.1262 -0.5314  0.7728
16944TIP3    H172323   5.930   2.207  13.526  1.5540 -0.5976 -1.1458
16944TIP3    H272324   6.028   2.320  13.502 -1.2904  1.9428 -1.4010
16945TIP3   OH272325   1.738   0.863   0.047 -0.3846  0.1051  0.7331
16945TIP3    H172326   1.748   0.813  -0.034  0.1149  1.1703  0.1171
16945TIP3    H272327   1.821   0.851   0.094 -1.0858 -1.4466  1.6663
16946TIP3   OH272328   1.068   5.420   5.193  0.3731  0.1644  0.0243
16946TIP3    H172329   1.058   5.436   5.287  0.0520  0.9675 -0.1449
16946TIP3    H272330   1.107   5.332   5.188 -3.8649 -2.0176  0.8181
16947TIP3   OH272331   6.054   1.920   2.444  0.0051  0.3213  0.0145
16947TIP3    H172332   5.960   1.936   2.455  0.0767  0.7899 -0.0276
16947TIP3    H272333   6.067   1.830   2.473 -0.4940  0.1858 -0.1856
16948TIP3   OH272334   1.970   3.128  14.368  0.0878  0.1719 -0.5246
16948TIP3    H172335   1.930   3.201  14.320  1.2929  1.3999  0.2676
16948TIP3    H272336   1.903   3.100  14.431 -1.3405 -1.1460 -2.4932
16949TIP3   OH272337   1.337   6.110  12.130  0.2941  0.3168  0.6510
16949TIP3    H172338   1.342   6.189  12.183  1.7439  0.8061 -0.1405
16949TIP3    H272339   1.424   6.071  12.137  0.0412 -0.4187 -0.1260
16950TIP3   OH272340   3.359   1.179   4.011 -0.1624 -0.4175 -0.0577
16950TIP3    H172341   3.341   1.118   3.940  0.4208 -0.6937  0.0313
16950TIP3    H272342   3.443   1.218   3.989 -1.1362  1.3992 -0.8366
16951TIP3   OH272343   2.157   4.607  15.543  0.3011 -0.0268 -0.2630
16951TIP3    H172344   2.145   4.696  15.576  0.5208  0.0107 -0.2828
16951TIP3    H272345   2.215   4.617  15.467 -0.8192 -0.0233 -1.1433
16952TIP3   OH272346   6.750   0.743  15.003 -0.1507 -0.1596 -0.0686
16952TIP3    H172347   6.801   0.677  15.051  0.5337  1.2409  1.2230
16952TIP3    H272348   6.681   0.693  14.960  1.8883 -2.0821 -1.3748
16953TIP3   OH272349   1.002   4.951  13.420 -0.0100 -0.2916  0.8856
16953TIP3    H172350   0.996   4.868  13.372 -0.8691 -0.0871  0.6310
16953TIP3    H272351   1.030   5.014  13.353 -0.2020 -0.2053  0.8877
16954TIP3   OH272352   3.716   1.202   2.189  0.1762 -0.3129 -0.6211
16954TIP3    H172353   3.715   1.111   2.218  1.1967 -0.5217 -1.1928
16954TIP3    H272354   3.669   1.250   2.258 -2.4764 -1.5556 -1.4171
16955TIP3   OH272355   0.692   3.628  12.026  0.0361  0.1117 -0.5660
16955TIP3    H172356   0.692   3.698  11.960 -1.5505 -0.0805 -0.8122
16955TIP3    H272357   0.750   3.561  11.990  3.3096  2.0753  0.6198
16956TIP3   OH272358   6.376   0.663   5.438 -0.3292 -0.0732  0.0184
16956TIP3    H172359   6.420   0.680   5.354 -0.9828  0.0192 -0.3125
16956TIP3    H272360   6.424   0.716   5.501 -0.9606  1.3126 -0.6224
16957TIP3   OH272361   5.384   4.873   4.364 -0.5501  0.2092  0.8595
16957TIP3    H172362   5.354   4.964   4.361 -1.9961 -0.2371  1.0768
16957TIP3    H272363   5.434   4.868   4.446 -0.0039  0.9324  0.5799
16958TIP3   OH272364   0.245   1.560  13.864 -0.2672 -0.2231 -0.7188
16958TIP3    H172365   0.215   1.470  13.879  0.9520 -0.6950 -1.0107
16958TIP3    H272366   0.286   1.557  13.777 -0.9482  0.8194 -1.0960
16959TIP3   OH272367   5.791   5.331   5.938  0.6364 -0.1124  0.1706
16959TIP3    H172368   5.810   5.275   6.013  0.3243 -0.7820 -0.2383
16959TIP3    H272369   5.719   5.286   5.892  0.6758  0.3975 -0.4033
16960TIP3   OH272370   0.601   2.901   5.626  0.0966 -0.2290  0.5880
16960TIP3    H172371   0.653   2.962   5.677  1.1117 -1.5966  1.2632
16960TIP3    H272372   0.548   2.956   5.568  1.2330  1.2474  0.9017
16961TIP3   OH272373   5.056   0.809   6.786  0.0062  0.0635  0.4354
16961TIP3    H172374   5.002   0.732   6.807  3.5971 -2.6053  0.8531
16961TIP3    H272375   5.070   0.803   6.691  2.1256 -1.2812  0.7651
16962TIP3   OH272376   0.519   6.227   3.984  0.0318  0.2958  0.2933
16962TIP3    H172377   0.428   6.204   3.966 -0.6194  1.5272  1.7119
16962TIP3    H272378   0.545   6.168   4.055  0.5563 -0.4638 -0.5193
16963TIP3   OH272379   3.153   1.651  14.509  0.4662  0.2562 -0.3262
16963TIP3    H172380   3.121   1.707  14.580 -0.2609  0.8381 -1.0919
16963TIP3    H272381   3.118   1.564  14.528  3.7602 -0.7053  2.3481
16964TIP3   OH272382   1.573   4.977  14.029  1.1821 -0.0870 -0.0863
16964TIP3    H172383   1.629   5.043  14.070  0.4467  0.9928 -0.7395
16964TIP3    H272384   1.488   4.989  14.072  0.8710 -0.1441 -0.6756
16965TIP3   OH272385   6.023   0.991  14.194 -0.1788  0.3056 -0.0722
16965TIP3    H172386   6.081   1.067  14.197  2.5600 -1.6592  0.6291
16965TIP3    H272387   5.966   1.001  14.270 -0.3304  1.9291 -0.3564
16966TIP3   OH272388   3.628   3.596   2.259 -0.3573  0.3451  0.2696
16966TIP3    H172389   3.647   3.661   2.327 -1.0530  1.0373 -0.1666
16966TIP3    H272390   3.533   3.603   2.246 -0.4932 -0.9933  0.4313
16967TIP3   OH272391   4.466   1.847  12.769  0.2818  0.0861 -0.0901
16967TIP3    H172392   4.402   1.887  12.711 -0.3727 -2.7690 -1.5462
16967TIP3    H272393   4.419   1.832  12.851 -0.4370 -0.5024 -0.5987
16968TIP3   OH272394   1.350   5.296  13.394  0.3030  0.0929  0.2847
16968TIP3    H172395   1.298   5.333  13.466 -0.0021  0.3485 -0.0624
16968TIP3    H272396   1.401   5.226  13.435 -1.7291 -1.4875  0.3112
16969TIP3   OH272397   4.007   4.799  15.389  0.0575  0.1228  0.2072
16969TIP3    H172398   4.067   4.815  15.461  0.5088  0.7867 -0.2968
16969TIP3    H272399   3.945   4.872  15.393 -0.2899 -0.1778  0.3031
16970TIP3   OH272400   1.280   5.868  14.681 -0.1875 -0.1488 -0.9814
16970TIP3    H172401   1.279   5.839  14.772 -1.9056  0.4449 -0.7733
16970TIP3    H272402   1.247   5.958  14.684  0.7342  0.2429 -2.0841
16971TIP3   OH272403   4.279   3.119   4.454 -0.0657 -0.1189  0.1049
16971TIP3    H172404   4.306   3.211   4.451  0.3287 -0.2361 -0.0398
16971TIP3    H272405   4.288   3.088   4.364 -1.6476  0.0921 -0.1555
16972TIP3   OH272406   2.627   0.121  13.599 -0.1776 -0.1925  0.7615
16972TIP3    H172407   2.574   0.074  13.535 -1.3431  0.1429  1.4469
16972TIP3    H272408   2.649   0.055  13.665  0.6593 -0.4368  0.2522
16973TIP3   OH272409   4.131   1.351   4.462  0.0730  0.2016  0.2218
16973TIP3    H172410   4.152   1.282   4.525 -0.8361 -1.6919 -1.4446
16973TIP3    H272411   4.214   1.369   4.418  0.2449 -0.1570  0.3932
16974TIP3   OH272412   5.590   5.109   0.751 -0.3255  0.1588 -0.1782
16974TIP3    H172413   5.508   5.077   0.789 -0.6263  1.5999  0.4925
16974TIP3    H272414   5.650   5.035   0.756 -1.6403 -1.0064 -0.8996
16975TIP3   OH272415   5.583   6.586   2.986 -0.3210 -0.3396 -0.0173
16975TIP3    H172416   5.524   6.579   2.911 -2.8983  1.9500  1.6101
16975TIP3    H272417   5.637   6.662   2.966 -0.7815  0.0695  0.2748
16976TIP3   OH272418   4.323   6.335   1.591  0.3447  0.7477 -0.3665
16976TIP3    H172419   4.324   6.240   1.605 -1.0290  0.5935 -1.1413
16976TIP3    H272420   4.366   6.371   1.669  0.6142 -0.4823  0.0831
16977TIP3   OH272421   2.867   4.345  14.494  0.1243 -0.5609  0.3628
16977TIP3    H172422   2.789   4.299  14.523 -1.1161 -0.5937 -2.6464
16977TIP3    H272423   2.940   4.292  14.527 -1.1161 -1.1636  2.2544
16978TIP3   OH272424   1.141   0.391  16.681  0.4659 -0.4222  0.0342
16978TIP3    H172425   1.104   0.381  16.769 -0.2657  0.8739 -0.0912
16978TIP3    H272426   1.196   0.470  16.688  0.9057 -0.6778 -0.5151
16979TIP3   OH272427   6.742   5.220   2.626  0.5530  0.1223 -0.3278
16979TIP3    H172428   6.692   5.147   2.664  0.2515  0.1649 -0.6389
16979TIP3    H272429   6.728   5.212   2.532  0.0347  0.9230 -0.3289
16980TIP3   OH272430   0.784   3.257   1.470 -0.3356  0.5349 -0.7097
16980TIP3    H172431   0.690   3.245   1.457 -0.2473  0.5488 -1.3951
16980TIP3    H272432   0.809   3.326   1.408  0.0076  1.0060 -0.0560
16981TIP3   OH272433   6.009   5.894  12.469 -0.3496 -0.5231 -0.0819
16981TIP3    H172434   6.048   5.960  12.526 -0.6665 -1.3711  1.1769
16981TIP3    H272435   6.027   5.924  12.380  1.0188  0.3483  0.4603
16982TIP3   OH272436   1.807   0.710  16.499 -0.7779 -0.0531 -0.3697
16982TIP3    H172437   1.814   0.696  16.593 -0.3397 -1.2633 -0.5670
16982TIP3    H272438   1.721   0.751  16.487 -0.7097  0.3819  0.5750
16983TIP3   OH272439   6.426   5.773   0.349  1.1256 -0.5604  0.1107
16983TIP3    H172440   6.436   5.690   0.396  0.6684 -1.0672 -0.6732
16983TIP3    H272441   6.338   5.802   0.371  0.6198 -1.1876 -1.0279
16984TIP3   OH272442   6.027   2.067  13.131  0.1358  0.3801  0.4939
16984TIP3    H172443   5.976   2.146  13.111 -0.1591  0.2755  0.8187
16984TIP3    H272444   6.011   2.009  13.057  1.2732  1.0608 -0.3132
16985TIP3   OH272445   2.281   0.098   0.406 -0.0064 -0.0639  0.5143
16985TIP3    H172446   2.233   0.170   0.365  0.2572 -0.1034  0.1310
16985TIP3    H272447   2.214   0.047   0.451 -0.0844  0.9404  1.5817
16986TIP3   OH272448   3.015   0.355   1.047  0.0034 -1.3389  0.3815
16986TIP3    H172449   2.928   0.321   1.066 -1.8379  1.6594 -1.7885
16986TIP3    H272450   3.018   0.441   1.089  1.2326 -0.6868 -0.9029
16987TIP3   OH272451   1.375   2.200   5.335 -0.2490  0.7058 -0.0232
16987TIP3    H172452   1.426   2.266   5.383 -1.4405  0.9177  0.9920
16987TIP3    H272453   1.306   2.174   5.396 -0.0264 -1.2470 -0.5224
16988TIP3   OH272454   0.232   0.097  14.066 -0.3814 -0.1247 -0.0026
16988TIP3    H172455   0.251   0.003  14.067 -1.7171 -0.4222  0.1089
16988TIP3    H272456   0.317   0.139  14.055  0.2751 -1.3368  0.2412
16989TIP3   OH272457   6.752   0.304   2.592  0.0100  0.4287  0.3179
16989TIP3    H172458   6.806   0.300   2.672 -0.8704 -2.0683  0.8674
16989TIP3    H272459   6.662   0.295   2.623 -0.3064 -1.2550 -0.9720
16990TIP3   OH272460   4.961   1.526  13.966  0.4306  0.5382  0.4014
16990TIP3    H172461   5.038   1.475  13.990  0.1163 -1.2133 -1.9361
16990TIP3    H272462   4.996   1.601  13.918  0.7376 -0.1783 -0.5330
16991TIP3   OH272463   5.823   0.781   4.002 -0.2815 -0.0011 -0.0115
16991TIP3    H172464   5.892   0.719   3.979  0.5470  1.6330 -2.2980
16991TIP3    H272465   5.853   0.865   3.967 -3.2435  0.8893 -0.7484
16992TIP3   OH272466   4.760   5.803  12.087  0.0187 -0.5259 -0.0747
16992TIP3    H172467   4.694   5.772  12.025 -1.6204 -3.3153  2.7943
16992TIP3    H272468   4.720   5.789  12.173  2.4046  2.5526  1.7236
16993TIP3   OH272469   3.156   0.245   4.465 -0.5004  0.1471  0.0691
16993TIP3    H172470   3.228   0.247   4.402 -0.3461 -1.2672  0.1684
16993TIP3    H272471   3.195   0.212   4.545 -1.5321 -2.2999 -0.3349
16994TIP3   OH272472   2.756   2.250  16.002 -0.1533 -0.1951 -0.0361
16994TIP3    H172473   2.761   2.327  15.945 -0.0348 -0.9352 -1.0364
16994TIP3    H272474   2.662   2.232  16.008 -0.0915 -1.0228 -1.2547
16995TIP3   OH272475   4.985   1.455   3.558  0.4934 -0.0729  0.2540
16995TIP3    H172476   5.044   1.510   3.610 -1.0014 -0.2045  2.2393
16995TIP3    H272477   4.963   1.383   3.617 -1.3950 -0.1848 -0.5360
16996TIP3   OH272478   4.462   4.617   2.845 -0.4306  0.3120 -0.2458
16996TIP3    H172479   4.460   4.698   2.795  1.6201  1.9257  2.0394
16996TIP3    H272480   4.373   4.606   2.876 -1.0709  0.8437 -1.7950
16997TIP3   OH272481   5.515   6.036  11.859 -0.1769 -0.3427 -0.6908
16997TIP3    H172482   5.580   5.984  11.905 -1.4468 -0.5289  0.9976
16997TIP3    H272483   5.485   6.100  11.924 -2.0575 -0.6150 -1.2368
16998TIP3   OH272484   0.159   0.444   1.086  0.0500 -0.1460  0.2663
16998TIP3    H172485   0.222   0.388   1.132 -0.4463  1.0779  2.5484
16998TIP3    H272486   0.182   0.433   0.993  1.8665 -1.7929  0.8304
16999TIP3   OH272487   2.635   5.262  15.639  0.2917  0.0525 -0.3190
16999TIP3    H172488   2.666   5.229  15.724  1.9859 -0.7432 -1.2010
16999TIP3    H272489   2.540   5.253  15.644  0.3474 -0.0775  1.4483
17000TIP3   OH272490   6.330   5.743  12.612 -0.2645 -0.3381 -0.0133
17000TIP3    H172491   6.379   5.782  12.685 -1.1767  2.4770 -0.7636
17000TIP3    H272492   6.388   5.677  12.576  1.7594  0.8357  0.9296
17001TIP3   OH272493   6.191   2.732  11.331 -0.5781 -0.1952 -0.0793
17001TIP3    H172494   6.097   2.742  11.318 -0.8216  1.2246  2.1883
17001TIP3    H272495   6.207   2.638  11.323 -1.7856 -0.2542 -2.5492
17002TIP3   OH272496   4.999   1.315   1.859 -0.4861  0.4514 -0.7302
17002TIP3    H172497   4.959   1.287   1.776  2.9721 -1.3511 -1.9783
17002TIP3    H272498   5.004   1.236   1.911 -1.4272  1.3205  0.7426
17003TIP3   OH272499   1.875   1.412  13.513  0.1436 -0.5903  0.3624
17003TIP3    H172500   1.903   1.472  13.443 -0.9677 -2.6889 -2.0563
17003TIP3    H272501   1.796   1.453  13.549 -0.8838 -0.7065 -1.5750
17004TIP3   OH272502   6.109   1.949  14.298 -0.1005  0.0719 -0.0748
17004TIP3    H172503   6.167   1.891  14.347  0.8154  0.2495 -0.9179
17004TIP3    H272504   6.041   1.891  14.264  0.5085 -0.4306 -0.4640
17005TIP3   OH272505   2.823   5.620  14.291  0.0502  0.1174 -1.1705
17005TIP3    H172506   2.728   5.628  14.298  0.0047 -1.0921  0.1079
17005TIP3    H272507   2.837   5.544  14.236  0.2496 -0.4083 -0.4081
17006TIP3   OH272508   5.258   2.364  11.321 -0.4528 -0.5550 -0.2904
17006TIP3    H172509   5.259   2.454  11.354 -0.2230 -1.5702  2.7391
17006TIP3    H272510   5.248   2.374  11.226 -0.0662  2.6477 -0.1124
17007TIP3   OH272511   4.404   2.975   4.675 -0.1324  0.1936  0.0605
17007TIP3    H172512   4.374   3.038   4.610  1.0751 -0.3172 -1.0502
17007TIP3    H272513   4.487   3.010   4.707  1.0972 -1.2613 -1.3402
17008TIP3   OH272514   6.592   0.544  12.051 -0.2502  0.1130 -0.0710
17008TIP3    H172515   6.622   0.619  12.000 -1.7801  0.1281 -1.0342
17008TIP3    H272516   6.586   0.473  11.987 -1.8842  0.0445  0.1008
17009TIP3   OH272517   1.757   4.836   0.961 -0.2166 -0.4094  0.0526
17009TIP3    H172518   1.669   4.823   0.926 -0.5836 -3.4373  1.7858
17009TIP3    H272519   1.745   4.892   1.037 -1.0654 -2.4874  1.5321
17010TIP3   OH272520   4.213   2.251  14.422  0.2600  0.4655 -0.6321
17010TIP3    H172521   4.298   2.260  14.465 -0.9778  3.0664  1.6125
17010TIP3    H272522   4.174   2.173  14.463  0.0821  1.5215  1.3258
17011TIP3   OH272523   4.183   4.599  17.322 -0.5195 -0.1090  0.0509
17011TIP3    H172524   4.125   4.597  17.398 -0.0976 -1.8783  0.3755
17011TIP3    H272525   4.144   4.536  17.260 -1.5028  2.1170 -1.7603
17012TIP3   OH272526   4.108   5.886   0.888 -0.4792  0.4275  0.7938
17012TIP3    H172527   4.088   5.793   0.900 -1.7957  0.4041 -1.0952
17012TIP3    H272528   4.026   5.931   0.909  0.1243  1.1865  1.6104
17013TIP3   OH272529   1.876   4.257  14.403 -0.1053  0.2647  0.1188
17013TIP3    H172530   1.794   4.207  14.410 -0.6384  1.1060  0.0524
17013TIP3    H272531   1.895   4.283  14.493  1.7447 -2.4388  0.6339
17014TIP3   OH272532   2.192   6.128   2.447 -0.2523 -0.1320  0.1509
17014TIP3    H172533   2.160   6.055   2.500 -1.3977  0.2560  0.0156
17014TIP3    H272534   2.138   6.202   2.474  0.0118  0.3596 -0.6539
17015TIP3   OH272535   1.870   5.582   0.725 -0.2312 -0.0107 -0.1782
17015TIP3    H172536   1.791   5.527   0.726  0.3334 -1.2067 -4.0678
17015TIP3    H272537   1.839   5.668   0.751 -2.2117 -1.0611  1.1838
17016TIP3   OH272538   5.314   5.503   1.776 -0.2552  0.6072 -0.1418
17016TIP3    H172539   5.340   5.595   1.772 -1.3721  0.9634  0.4291
17016TIP3    H272540   5.380   5.462   1.832  1.1155  0.7283 -1.5994
17017TIP3   OH272541   2.103   6.622   1.539  0.6295  0.1329  0.1729
17017TIP3    H172542   2.165   6.630   1.612  1.3460 -0.0628 -0.3987
17017TIP3    H272543   2.142   6.555   1.483 -0.3995 -0.4072  0.0871
17018TIP3   OH272544   6.101   3.026  12.577  0.0747  0.1967 -0.1197
17018TIP3    H172545   6.131   3.084  12.647  0.8028  0.8081 -0.9286
17018TIP3    H272546   6.082   3.084  12.504 -1.3857 -0.3651 -0.2163
17019TIP3   OH272547   5.205   2.370  11.752  0.3860 -0.2351  0.7744
17019TIP3    H172548   5.120   2.332  11.731  0.3726  0.3710 -0.3177
17019TIP3    H272549   5.269   2.311  11.711  0.4241  0.1200  0.3168
17020TIP3   OH272550   2.480   6.670   0.296  0.0450  0.3170  0.0916
17020TIP3    H172551   2.458   6.715   0.378  0.2918 -0.8483  0.8359
17020TIP3    H272552   2.428   6.715   0.229 -0.0175  1.4180  0.8539
17021TIP3   OH272553   3.155   1.045   2.241  0.0290 -0.4268 -0.0232
17021TIP3    H172554   3.093   1.103   2.198  0.4563  1.9639  2.3300
17021TIP3    H272555   3.218   1.022   2.172 -1.4116  0.0354 -1.5587
17022TIP3   OH272556   6.683   3.823   1.252 -0.1586  0.3042  1.0922
17022TIP3    H172557   6.647   3.754   1.307  1.1066  0.5928  2.3484
17022TIP3    H272558   6.765   3.786   1.219 -0.0148  0.8015  0.8846
17023TIP3   OH272559   0.389   5.856  12.239  0.2177 -0.2245 -0.2323
17023TIP3    H172560   0.371   5.821  12.152  1.2449 -0.4919 -0.3460
17023TIP3    H272561   0.476   5.824  12.260  0.5313  0.9543  0.3321
17024TIP3   OH272562   0.795   6.607   4.374 -0.1199 -0.0694  0.2683
17024TIP3    H172563   0.746   6.530   4.345 -0.0497 -0.5664  1.4371
17024TIP3    H272564   0.885   6.590   4.347 -0.1323 -0.3231  0.3852
17025TIP3   OH272565   0.681   1.763  13.912 -0.0767  0.0376  0.1691
17025TIP3    H172566   0.747   1.832  13.923 -1.5886  1.5120  0.4420
17025TIP3    H272567   0.684   1.741  13.819  1.7562 -0.9770  0.4145
17026TIP3   OH272568   1.805   3.789  17.380 -0.5010  0.0281  0.1300
17026TIP3    H172569   1.791   3.696  17.391  0.9683 -0.2071  0.2632
17026TIP3    H272570   1.740   3.831  17.436 -2.2121 -0.8434 -1.1095
17027TIP3   OH272571   4.905   6.017  12.610  0.1165 -0.2727 -0.4824
17027TIP3    H172572   4.860   6.074  12.548  1.0849 -0.6700 -1.5960
17027TIP3    H272573   4.846   6.011  12.686 -0.0938  2.0161 -0.4206
17028TIP3   OH272574   4.361   0.744  12.410 -0.7829  0.1283  0.0853
17028TIP3    H172575   4.266   0.754  12.405 -0.7088  0.7273 -0.2647
17028TIP3    H272576   4.389   0.737  12.319 -0.4450  0.4213  0.1643
17029TIP3   OH272577   4.833   4.501   5.959  0.1458 -0.8219 -0.7469
17029TIP3    H172578   4.815   4.587   5.919 -0.7090 -1.7513 -2.4900
17029TIP3    H272579   4.846   4.443   5.884  2.3727 -1.9185  0.4019
17030TIP3   OH272580   5.231   5.714  17.212 -0.3545 -0.2397  0.3736
17030TIP3    H172581   5.258   5.675  17.129 -0.0499 -0.8805  0.7657
17030TIP3    H272582   5.279   5.665  17.279  0.6694  1.3505  0.8509
17031TIP3   OH272583   6.343   6.189  15.640 -0.1616 -0.4066 -0.6156
17031TIP3    H172584   6.433   6.207  15.666 -0.2746 -0.9610  0.1878
17031TIP3    H272585   6.292   6.262  15.677 -0.0751 -0.2163 -0.8705
17032TIP3   OH272586   0.986   1.679  13.647  0.1594  0.5205 -0.1325
17032TIP3    H172587   1.037   1.735  13.589 -1.3734  2.0399 -0.1177
17032TIP3    H272588   0.895   1.697  13.623 -0.4235 -1.6390  0.2299
17033TIP3   OH272589   3.346   2.986  15.545  0.2268 -0.5683 -0.1144
17033TIP3    H172590   3.434   2.983  15.506  0.8436  0.7118  1.0909
17033TIP3    H272591   3.290   3.022  15.476  0.8727 -0.3444 -0.5272
17034TIP3   OH272592   4.129   2.936   5.850 -0.4538  0.0943 -0.1080
17034TIP3    H172593   4.207   2.982   5.882  0.5580 -1.6755  0.1132
17034TIP3    H272594   4.056   2.978   5.897  0.7011 -0.4406  2.3317
17035TIP3   OH272595   3.117   0.425   3.294  0.0306 -0.3356 -0.8842
17035TIP3    H172596   3.210   0.440   3.309 -0.2986  0.7455  0.2582
17035TIP3    H272597   3.073   0.493   3.345 -1.3811 -0.6118 -1.6659
17036TIP3   OH272598   0.827   3.470  10.772  0.0414  0.5725 -0.0555
17036TIP3    H172599   0.915   3.432  10.763  0.3572  1.0267  0.8889
17036TIP3    H272600   0.799   3.488  10.683  0.6760 -0.1052 -0.4013
17037TIP3   OH272601   5.010   5.550   4.045  0.3119  0.8519  0.0745
17037TIP3    H172602   4.989   5.520   4.134 -1.2381 -0.5343 -0.6954
17037TIP3    H272603   4.929   5.535   3.996  1.8454 -0.6903 -2.1424
17038TIP3   OH272604   6.756   2.119   3.662 -0.1213  0.6326 -0.4402
17038TIP3    H172605   6.836   2.067   3.668  0.3268  1.3997  0.5258
17038TIP3    H272606   6.702   2.088   3.735 -0.9196 -0.2146 -1.3759
17039TIP3   OH272607   6.336   0.166   1.452 -0.3515 -0.2690  0.0186
17039TIP3    H172608   6.328   0.080   1.493  0.3113 -0.6476 -0.6275
17039TIP3    H272609   6.430   0.179   1.441 -0.3710  1.0223  1.0996
17040TIP3   OH272610   5.444   4.824   2.158 -0.4795  0.6654  0.1967
17040TIP3    H172611   5.392   4.748   2.132 -1.2456  0.6259  1.7628
17040TIP3    H272612   5.518   4.786   2.207 -0.0894  0.8526 -0.2393
17041TIP3   OH272613   2.645   6.052  12.895 -0.0920  0.2182 -0.1743
17041TIP3    H172614   2.610   6.133  12.932 -1.9927 -0.5169 -0.2609
17041TIP3    H272615   2.604   6.045  12.808 -1.1133 -1.5014  0.3830
17042TIP3   OH272616   5.073   6.700  10.861  0.1799 -0.1280 -0.0210
17042TIP3    H172617   5.167   6.717  10.865 -0.0193  0.6941  1.8754
17042TIP3    H272618   5.066   6.606  10.846  1.3464 -0.7604  2.9058
17043TIP3   OH272619   4.793   1.514  13.554  0.1928  0.1937 -0.2569
17043TIP3    H172620   4.850   1.455  13.603 -0.7092  0.6785  1.4852
17043TIP3    H272621   4.841   1.533  13.474  2.1984  0.1170  0.8609
17044TIP3   OH272622   1.569   6.077   1.445 -0.7871 -0.5377 -0.2798
17044TIP3    H172623   1.544   6.007   1.505 -0.6072 -1.4883 -1.2948
17044TIP3    H272624   1.589   6.033   1.363  2.7447  0.2796 -0.0120
17045TIP3   OH272625   3.610   1.757  16.294 -0.0582  0.9492 -0.3322
17045TIP3    H172626   3.606   1.852  16.297 -1.2951  0.9243 -0.6659
17045TIP3    H272627   3.522   1.730  16.267 -0.1128 -0.3410  1.0223
17046TIP3   OH272628   5.861   3.482  11.673 -0.4991 -0.1001 -0.0300
17046TIP3    H172629   5.834   3.392  11.657  1.6911 -0.7939 -0.0627
17046TIP3    H272630   5.844   3.496  11.766 -3.6358  0.5372 -0.5615
17047TIP3   OH272631   5.931   3.581  17.177 -0.1672 -0.1994 -0.2613
17047TIP3    H172632   5.891   3.544  17.098 -2.2054  1.8704 -0.3156
17047TIP3    H272633   5.956   3.670  17.151  0.5701 -0.0232  0.9884
17048TIP3   OH272634   5.670   1.001   3.706  0.1965  0.0155 -0.0301
17048TIP3    H172635   5.677   0.906   3.705  0.1737  0.0120  0.1624
17048TIP3    H272636   5.603   1.019   3.771 -0.9350  0.0898 -1.1774
17049TIP3   OH272637   5.024   2.586   3.861 -0.2204 -0.5271 -0.1721
17049TIP3    H172638   4.984   2.646   3.798  1.6608  0.8635 -0.1249
17049TIP3    H272639   4.988   2.612   3.946  1.5528  1.5803  0.0495
17050TIP3   OH272640   4.470   4.454   5.283 -0.4491 -0.3355 -0.1376
17050TIP3    H172641   4.451   4.475   5.192 -2.4601  2.8093  0.8577
17050TIP3    H272642   4.408   4.506   5.334  1.1680 -1.2654  3.1019
17051TIP3   OH272643   3.537   0.729   6.361  0.4763 -0.1052 -0.5225
17051TIP3    H172644   3.528   0.640   6.328  1.9840  0.2294 -2.0054
17051TIP3    H272645   3.629   0.735   6.388 -0.3249  0.1161  2.4975
17052TIP3   OH272646   0.613   5.744   3.744  0.0369 -0.0510 -0.1245
17052TIP3    H172647   0.578   5.760   3.831  0.8944 -0.0910  0.2453
17052TIP3    H272648   0.613   5.649   3.734  3.7432 -0.4212  1.5566
17053TIP3   OH272649   2.681   1.953   5.833 -0.3981 -0.3971  0.4535
17053TIP3    H172650   2.677   1.894   5.909 -2.1611  0.3255  0.9964
17053TIP3    H272651   2.758   1.926   5.785 -1.3372 -3.4348  0.4493
17054TIP3   OH272652   1.250   3.099   2.610 -0.1519 -0.1271 -0.0494
17054TIP3    H172653   1.248   3.006   2.634 -1.0346  0.0718  0.6950
17054TIP3    H272654   1.342   3.123   2.617 -0.1263 -0.5320  1.4958
17055TIP3   OH272655   4.697   0.074   1.724  0.5804  0.3076  0.0524
17055TIP3    H172656   4.726   0.164   1.739  2.1791  0.0089 -1.0713
17055TIP3    H272657   4.727   0.053   1.636  2.5691 -2.1937  1.1992
17056TIP3   OH272658   0.956   6.112   6.922  0.0361  0.6124 -0.3462
17056TIP3    H172659   1.010   6.187   6.900 -1.2101  1.5220 -0.4440
17056TIP3    H272660   0.875   6.125   6.872  0.8467 -2.2978 -2.6364
17057TIP3   OH272661   2.709   6.547   1.637 -0.8890  0.1300  0.3511
17057TIP3    H172662   2.645   6.570   1.569 -2.0714  0.8759  1.6795
17057TIP3    H272663   2.730   6.630   1.680  1.3249 -0.0308 -0.2986
17058TIP3   OH272664   6.012   1.829   5.887 -0.9350 -0.4188  0.3502
17058TIP3    H172665   6.009   1.922   5.868 -1.4572 -0.1060  1.8280
17058TIP3    H272666   6.056   1.790   5.811  0.6986  1.2054  0.3974
17059TIP3   OH272667   2.534   0.253   0.396 -0.3962 -0.1296  0.6211
17059TIP3    H172668   2.446   0.220   0.378 -0.1826 -0.4301  0.1134
17059TIP3    H272669   2.520   0.345   0.421 -0.9356 -0.4415  1.4781
17060TIP3   OH272670   4.787   4.983  11.711  0.5488  0.7842 -0.2597
17060TIP3    H172671   4.775   5.071  11.676 -0.0091  1.3551  1.2676
17060TIP3    H272672   4.711   4.934  11.678  0.5754  1.0161 -0.6802
17061TIP3   OH272673   1.637   1.375  15.299 -0.5634  0.6165  0.3682
17061TIP3    H172674   1.638   1.326  15.218  0.1608  0.9617  0.1617
17061TIP3    H272675   1.548   1.411  15.304 -0.0788  2.1493 -1.2271
17062TIP3   OH272676   6.472   5.977  10.946 -0.6605 -0.1680 -0.5720
17062TIP3    H172677   6.547   5.959  10.889 -1.4833 -0.6703 -1.5327
17062TIP3    H272678   6.454   6.070  10.932 -0.0199  0.0309 -0.0906
17063TIP3   OH272679   1.510   1.917   5.237  0.1138 -0.1999  0.3927
17063TIP3    H172680   1.603   1.917   5.259  0.1065 -1.3469  0.4535
17063TIP3    H272681   1.476   1.836   5.275 -0.7100 -0.2683 -0.4631
17064TIP3   OH272682   3.360   4.375   0.153  0.6992 -0.1624 -0.1611
17064TIP3    H172683   3.398   4.450   0.106  0.3322  2.3851  3.2441
17064TIP3    H272684   3.300   4.336   0.090  0.1165  3.0830 -1.8549
17065TIP3   OH272685   3.951   6.517   4.351  0.3159 -0.2822  0.0942
17065TIP3    H172686   3.902   6.479   4.278  3.2569  1.0074 -2.7970
17065TIP3    H272687   3.919   6.607   4.358 -0.4002 -0.5809  0.9095
17066TIP3   OH272688   2.622   3.696  11.473  0.5170 -0.0481  0.1150
17066TIP3    H172689   2.607   3.641  11.395  1.3439 -0.6615  0.3720
17066TIP3    H272690   2.711   3.675  11.500  0.7715  1.2628  0.3694
17067TIP3   OH272691   0.685   2.555  12.878 -0.4921 -0.1619  0.1208
17067TIP3    H172692   0.746   2.594  12.815  2.1961 -3.6662  0.2281
17067TIP3    H272693   0.719   2.582  12.964 -0.9743  0.3385  0.1600
17068TIP3   OH272694   3.102   1.248  15.231 -0.9034 -0.3566 -0.0084
17068TIP3    H172695   3.136   1.209  15.311  1.8184  0.4097 -0.6700
17068TIP3    H272696   3.060   1.176  15.184 -3.0298 -0.7101  2.2440
17069TIP3   OH272697   3.373   0.356   4.825  0.5660  0.2757  0.3274
17069TIP3    H172698   3.300   0.352   4.887  0.2864  1.5248  0.1139
17069TIP3    H272699   3.451   0.361   4.879  0.4068  0.2032  0.5656
17070TIP3   OH272700   1.745   6.443  13.540  0.1916 -0.0844 -0.3092
17070TIP3    H172701   1.653   6.466  13.537  0.2244  0.3673  1.2627
17070TIP3    H272702   1.782   6.500  13.607  1.2691 -1.3985  0.2643
17071TIP3   OH272703   6.691   2.524  16.616  0.3260  0.5079 -0.4039
17071TIP3    H172704   6.786   2.529  16.615  0.4822 -1.6009 -1.9220
17071TIP3    H272705   6.669   2.507  16.708  1.4332  0.7576 -0.0869
17072TIP3   OH272706   0.730   3.287   0.926  0.0944  0.0869  0.0120
17072TIP3    H172707   0.687   3.312   0.845  1.8653 -1.0373 -1.3608
17072TIP3    H272708   0.747   3.369   0.972 -2.2004  0.6356 -0.0272
17073TIP3   OH272709   4.210   2.730   4.086 -0.1993  0.0908  0.4579
17073TIP3    H172710   4.185   2.819   4.063 -0.0331  0.0777  0.2198
17073TIP3    H272711   4.185   2.677   4.010 -1.2896 -0.2402  1.0355
17074TIP3   OH272712   6.393   3.846   4.496  0.6718  0.0179  0.2812
17074TIP3    H172713   6.326   3.786   4.462  1.0443 -0.7491  0.8679
17074TIP3    H272714   6.450   3.864   4.421  1.0884 -1.1081  0.3079
17075TIP3   OH272715   4.340   6.706   3.964  0.1644 -0.4886  0.3183
17075TIP3    H172716   4.291   6.643   4.016  1.0580 -0.7428  0.8877
17075TIP3    H272717   4.293   6.789   3.974 -0.2727 -0.7755  0.6441
17076TIP3   OH272718   4.433   0.777  16.077 -0.2172 -0.4720  0.6724
17076TIP3    H172719   4.338   0.763  16.082 -0.1808 -1.0485 -0.1581
17076TIP3    H272720   4.469   0.724  16.148 -0.4528 -0.9071  0.4673
17077TIP3   OH272721   5.133   2.487   0.760  0.2913  0.4704 -0.2395
17077TIP3    H172722   5.058   2.429   0.754  0.0169  0.9654 -3.1953
17077TIP3    H272723   5.096   2.573   0.779  0.2871  0.4224 -0.0274
17078TIP3   OH272724   3.580   4.728  15.483 -0.4756 -0.1041 -0.1827
17078TIP3    H172725   3.529   4.677  15.420 -0.0314 -0.4899 -0.2326
17078TIP3    H272726   3.654   4.760  15.432  1.6501 -3.0395  0.8061
17079TIP3   OH272727   4.977   3.303  16.231 -0.5375  0.0632  0.7281
17079TIP3    H172728   5.060   3.331  16.193 -1.1456 -0.2753 -0.9160
17079TIP3    H272729   4.976   3.208  16.220 -1.7822  0.2031 -0.6873
17080TIP3   OH272730   6.413   3.826  13.767  0.7252  0.3563  0.5034
17080TIP3    H172731   6.363   3.884  13.825 -0.2460  0.2624 -0.1952
17080TIP3    H272732   6.455   3.763  13.825  0.4853  0.7884  1.1575
17081TIP3   OH272733   0.354   6.165   4.795 -0.1298  0.2064  0.2469
17081TIP3    H172734   0.395   6.089   4.754  0.1311 -0.2449  1.3199
17081TIP3    H272735   0.349   6.143   4.888  0.6624  1.8093  0.7107
17082TIP3   OH272736   2.641   2.093   2.274  0.8654 -0.1578 -0.1145
17082TIP3    H172737   2.674   2.121   2.360 -0.1056  0.3592  0.0966
17082TIP3    H272738   2.554   2.132   2.267  0.5732 -0.9170 -0.9648
17083TIP3   OH272739   3.001   1.629  15.624 -0.3480  0.2102  0.4532
17083TIP3    H172740   2.972   1.702  15.570 -0.6566  0.1540  0.5446
17083TIP3    H272741   2.958   1.553  15.586  0.6895 -0.0705 -0.2213
17084TIP3   OH272742   2.618   2.681   1.183 -0.1573 -0.1958  0.3109
17084TIP3    H172743   2.701   2.724   1.204 -0.1362  0.1609 -0.4674
17084TIP3    H272744   2.644   2.596   1.147 -0.0209  0.5425 -1.4719
17085TIP3   OH272745   4.951   5.209  13.829  0.3486  0.3077  0.1651
17085TIP3    H172746   4.958   5.140  13.764 -0.8699 -0.3761  0.7212
17085TIP3    H272747   4.983   5.288  13.785  1.6377 -0.5661 -0.5170
17086TIP3   OH272748   0.321   2.798   3.430  0.3944  0.0303 -0.6502
17086TIP3    H172749   0.323   2.759   3.343  2.0722  0.8719 -1.0174
17086TIP3    H272750   0.336   2.724   3.489 -0.2961 -0.4678 -1.0799
17087TIP3   OH272751   6.711   4.575  13.751  0.0365 -0.5265  0.3502
17087TIP3    H172752   6.711   4.519  13.673 -2.0927 -0.2657  0.1017
17087TIP3    H272753   6.717   4.664  13.716 -1.4084 -0.3815  0.4156
17088TIP3   OH272754   1.938   6.168  14.203 -0.1255 -0.4951 -0.5455
17088TIP3    H172755   1.957   6.154  14.110 -1.4713 -1.7679 -0.6732
17088TIP3    H272756   1.999   6.109  14.249  1.5013  1.1299 -0.4893
17089TIP3   OH272757   5.283   3.560   2.590  0.4102 -0.4693 -0.2458
17089TIP3    H172758   5.219   3.624   2.624  2.2208  3.4858 -3.4207
17089TIP3    H272759   5.246   3.531   2.507  0.5443 -2.1854  0.2570
17090TIP3   OH272760   5.274   1.340   3.634  0.3442 -0.4974  0.2929
17090TIP3    H172761   5.282   1.401   3.560 -1.7583  1.9025  1.8511
17090TIP3    H272762   5.248   1.257   3.594 -1.9980  1.0327 -1.6721
17091TIP3   OH272763   3.461   2.401  15.209  0.1254 -0.2143 -0.2822
17091TIP3    H172764   3.496   2.454  15.137 -0.9458  0.1941 -0.5363
17091TIP3    H272765   3.535   2.349  15.239  1.4338  1.9505  0.4757
17092TIP3   OH272766   5.939   6.730  15.529 -0.3683  0.3852 -0.1904
17092TIP3    H172767   5.943   6.803  15.467  0.4965  1.8834  1.5438
17092TIP3    H272768   5.862   6.679  15.501 -1.1720  2.0999 -1.2834
17093TIP3   OH272769   2.615   6.088   2.707 -0.8217  0.0943 -0.7556
17093TIP3    H172770   2.547   6.075   2.772 -2.1042  0.3934 -1.9987
17093TIP3    H272771   2.687   6.031   2.735 -0.2118  2.1531  2.3814
17094TIP3   OH272772   1.625   2.712  11.308  0.0121  0.0990 -0.1225
17094TIP3    H172773   1.539   2.733  11.274  1.0018  1.6921 -1.7798
17094TIP3    H272774   1.649   2.788  11.362  1.5639  1.1136 -2.1163
17095TIP3   OH272775   0.073   2.710  13.867  0.5077 -0.5034 -0.2436
17095TIP3    H172776  -0.015   2.673  13.861 -0.2483  1.1613  0.0940
17095TIP3    H272777   0.089   2.750  13.781  1.5434 -2.0099 -0.8014
17096TIP3   OH272778   2.192   1.488   1.672  0.3531 -0.2553  0.5285
17096TIP3    H172779   2.160   1.563   1.723  1.2305  0.6139 -0.1682
17096TIP3    H272780   2.230   1.527   1.593  1.0024 -1.4262  0.2449
17097TIP3   OH272781   3.509   2.338   1.554 -0.1722 -0.1922  0.1561
17097TIP3    H172782   3.556   2.276   1.610 -0.5197 -0.6483 -0.0538
17097TIP3    H272783   3.515   2.422   1.601  0.3725 -0.3632  0.3980
17098TIP3   OH272784   6.589   2.627  13.796  0.0997 -0.0650  0.3975
17098TIP3    H172785   6.579   2.533  13.805 -0.2590  0.1567  3.3430
17098TIP3    H272786   6.500   2.661  13.792  0.2264  0.1745 -0.7942
17099TIP3   OH272787   5.837   2.572   0.979  0.1368  0.0986  0.6146
17099TIP3    H172788   5.872   2.507   1.040  0.0703  0.4166  0.9941
17099TIP3    H272789   5.769   2.525   0.931  0.1822 -0.1521  0.7915
17100TIP3   OH272790   6.121   3.376   4.578  0.2481 -0.0554 -0.9310
17100TIP3    H172791   6.127   3.332   4.494  1.0596 -0.9433 -0.4250
17100TIP3    H272792   6.064   3.320   4.631  1.4467 -0.6623 -0.2214
17101TIP3   OH272793   5.568   0.762   4.105 -0.2173 -0.2177 -0.4971
17101TIP3    H172794   5.645   0.810   4.135  0.5534 -0.6385 -1.7656
17101TIP3    H272795   5.602   0.683   4.064 -1.2934 -0.1883 -1.4910
17102TIP3   OH272796   2.922   0.967   0.836  0.0475 -0.0664  0.5085
17102TIP3    H172797   2.999   1.016   0.808 -0.9556  2.7967  2.3703
17102TIP3    H272798   2.902   0.909   0.762  2.6134  0.7121 -0.9120
17103TIP3   OH272799   2.529   2.396   6.341  0.1134  0.0962 -0.1213
17103TIP3    H172800   2.615   2.438   6.349  0.3851 -0.8141  2.7000
17103TIP3    H272801   2.474   2.441   6.405 -1.9292  1.3844 -2.6140
17104TIP3   OH272802   2.803   1.043  12.533 -0.2670  0.7673  0.1240
17104TIP3    H172803   2.756   1.051  12.450  0.8637  0.7419 -0.5411
17104TIP3    H272804   2.736   1.017  12.596 -1.3785  1.9111 -0.5275
17105TIP3   OH272805   2.171   2.028  17.441 -0.2061  0.3972  0.0971
17105TIP3    H172806   2.118   1.948  17.434  1.8163 -0.9879 -0.3677
17105TIP3    H272807   2.141   2.083  17.369 -2.8299  0.8897  1.4387
17106TIP3   OH272808   5.364   2.840   5.070  0.1714 -0.1361 -0.0122
17106TIP3    H172809   5.275   2.859   5.039 -0.0900 -1.9052 -0.5123
17106TIP3    H272810   5.403   2.790   4.998  1.6017  0.6795  0.1793
17107TIP3   OH272811   2.398   3.889   0.491  0.2077 -0.3570 -0.3843
17107TIP3    H172812   2.403   3.902   0.586 -0.0290  1.1904 -0.5568
17107TIP3    H272813   2.469   3.827   0.472  3.2474  2.5985  0.2935
17108TIP3   OH272814   1.336   6.429   5.535  0.0804  0.0816  0.0650
17108TIP3    H172815   1.341   6.504   5.595 -0.4491  0.1224  0.0651
17108TIP3    H272816   1.242   6.420   5.515  0.2474  0.0899 -0.7831
17109TIP3   OH272817   5.331   0.770  12.046  0.0400  0.0462  0.8547
17109TIP3    H172818   5.329   0.756  12.141  2.3663 -2.6982  0.6070
17109TIP3    H272819   5.392   0.843  12.034  1.3622 -0.9194  1.4317
17110TIP3   OH272820   6.362   4.019  13.130 -0.4693  0.0160 -0.2353
17110TIP3    H172821   6.268   3.998  13.126 -0.5582 -1.8121  4.5352
17110TIP3    H272822   6.364   4.114  13.145 -1.5815 -0.0083  0.1942
17111TIP3   OH272823   0.416   2.161  13.640 -0.0026 -0.0590  0.5003
17111TIP3    H172824   0.384   2.242  13.601  0.1802 -0.1822  0.0821
17111TIP3    H272825   0.341   2.126  13.687 -0.7511 -0.7332 -1.1094
17112TIP3   OH272826   3.476   2.556   0.229  0.2571  0.1280 -0.0194
17112TIP3    H172827   3.423   2.478   0.245  2.0146 -0.7859  1.5804
17112TIP3    H272828   3.449   2.585   0.141 -0.5985 -2.1215 -0.5654
17113TIP3   OH272829   5.308   6.293   2.293 -0.1226  0.0533 -0.0256
17113TIP3    H172830   5.382   6.250   2.251 -0.9765 -1.6303  0.1383
17113TIP3    H272831   5.246   6.308   2.222 -1.5139 -2.6802  0.4762
17114TIP3   OH272832   2.865   0.449   3.952  0.0493  0.2116 -0.3239
17114TIP3    H172833   2.842   0.383   4.018  1.9625  1.2760  1.5368
17114TIP3    H272834   2.950   0.421   3.918  1.5228  2.2041  1.4019
17115TIP3   OH272835   2.403   5.906   2.949  0.4187  0.4382 -0.0065
17115TIP3    H172836   2.361   5.991   2.964 -1.0432 -0.3486  0.5916
17115TIP3    H272837   2.357   5.846   3.007  0.6559 -0.9910 -1.2292
17116TIP3   OH272838   1.532   5.660  14.291  0.2502  0.6679 -0.7561
17116TIP3    H172839   1.492   5.648  14.378 -2.4378  1.4901 -1.7892
17116TIP3    H272840   1.563   5.750  14.291 -1.1588  1.1701 -1.1485
17117TIP3   OH272841   2.800   3.315   1.878 -0.4367 -0.0679  0.2867
17117TIP3    H172842   2.820   3.304   1.971  1.0767  0.8626  0.1094
17117TIP3    H272843   2.742   3.391   1.874 -1.2992 -0.6887  0.5169
17118TIP3   OH272844   0.161   6.154  10.695 -0.7823 -0.0370  0.2609
17118TIP3    H172845   0.226   6.088  10.719 -0.6038  0.7466  2.0966
17118TIP3    H272846   0.081   6.127  10.739 -0.7171  0.9161  1.0102
17119TIP3   OH272847   3.778   4.278   4.707 -0.2502 -0.0527  0.1375
17119TIP3    H172848   3.705   4.338   4.723  0.2946  0.5884  0.2799
17119TIP3    H272849   3.802   4.293   4.616  0.1456  0.2522  0.2849
17120TIP3   OH272850   0.075   3.820  16.095 -0.0031  0.5710  0.1455
17120TIP3    H172851   0.123   3.889  16.050 -0.1635 -0.5319 -1.7999
17120TIP3    H272852   0.110   3.739  16.060 -2.5190 -0.2820 -0.5591
17121TIP3   OH272853   3.541   5.384  13.301  0.5705 -0.8836 -0.5476
17121TIP3    H172854   3.507   5.472  13.283  1.5837 -0.4376 -0.3465
17121TIP3    H272855   3.632   5.398  13.325  0.5792 -1.9428  0.0838
17122TIP3   OH272856   3.296   1.491  13.963 -0.3865  0.0330  0.2561
17122TIP3    H172857   3.267   1.447  14.043 -0.8448 -0.3323 -0.1075
17122TIP3    H272858   3.307   1.583  13.989 -0.7762 -0.0384  0.6834
17123TIP3   OH272859   2.338   0.078  12.909  0.0235  0.2695 -0.3633
17123TIP3    H172860   2.259   0.126  12.935 -0.0558  0.3891 -0.8050
17123TIP3    H272861   2.305   0.005  12.857  0.2326  0.7434 -1.1947
17124TIP3   OH272862   2.194   3.976   2.191  0.3007  0.2416  0.4064
17124TIP3    H172863   2.198   3.896   2.138 -1.6190  0.4544 -0.1305
17124TIP3    H272864   2.190   4.047   2.126  1.9392  0.8087  0.8789
17125TIP3   OH272865   2.728   3.665   2.968 -0.2703  0.0542  0.1390
17125TIP3    H172866   2.737   3.714   2.887  0.1445  0.4703  0.4286
17125TIP3    H272867   2.703   3.731   3.033  0.7102 -0.0277  0.6221
17126TIP3   OH272868   6.585   3.264  15.629  0.8829 -0.3234  0.0642
17126TIP3    H172869   6.524   3.337  15.618  1.4269  0.4562  1.9160
17126TIP3    H272870   6.529   3.186  15.632  0.0854  0.2600  0.4843
17127TIP3   OH272871   1.359   2.564   5.702  0.1353  0.1081 -0.1175
17127TIP3    H172872   1.267   2.541   5.709 -0.4288  2.2699  0.2940
17127TIP3    H272873   1.361   2.638   5.641  1.4887  0.6206  0.4960
17128TIP3   OH272874   5.667   4.429   0.523  0.1586  0.4361  0.6186
17128TIP3    H172875   5.753   4.387   0.524  0.8719  1.8268  0.6592
17128TIP3    H272876   5.640   4.427   0.432  0.0970 -0.2607  0.6483
17129TIP3   OH272877   0.406   5.281   2.179  0.0850  0.0416  0.0978
17129TIP3    H172878   0.405   5.240   2.266 -0.7771  2.4736  1.3355
17129TIP3    H272879   0.339   5.233   2.129 -1.2695  0.2334  1.6409
17130TIP3   OH272880   4.448   6.208   2.709 -0.1620  0.0967  0.0742
17130TIP3    H172881   4.393   6.131   2.698 -0.9935  0.8339 -1.1280
17130TIP3    H272882   4.418   6.269   2.642  0.5879  1.4117  0.8917
17131TIP3   OH272883   2.953   3.271   5.487  0.3377  0.1109  0.1266
17131TIP3    H172884   2.889   3.229   5.545  0.9879 -0.1648  0.6496
17131TIP3    H272885   3.024   3.208   5.480 -0.1004 -0.2368 -1.6771
17132TIP3   OH272886   1.151   1.019   2.643  0.1538  0.3539  0.2773
17132TIP3    H172887   1.184   1.104   2.616  3.3227 -0.5651  0.8746
17132TIP3    H272888   1.182   0.958   2.576 -1.6880 -0.4327  0.0769
17133TIP3   OH272889   6.663   5.347   6.148 -0.3764 -0.1655 -0.0115
17133TIP3    H172890   6.599   5.289   6.107 -0.3394  0.3964 -0.8997
17133TIP3    H272891   6.616   5.430   6.161  0.5340  0.7478 -2.0523
17134TIP3   OH272892   5.708   4.282  10.904  0.1947  0.0603 -0.2334
17134TIP3    H172893   5.677   4.274  10.813 -1.2144  2.3288 -0.0267
17134TIP3    H272894   5.682   4.200  10.945 -0.7932 -0.2711 -1.4514
17135TIP3   OH272895   2.014   0.771   4.869  0.1354  0.4347 -0.1405
17135TIP3    H172896   1.947   0.728   4.816  1.4006  1.8572 -3.1163
17135TIP3    H272897   2.097   0.734   4.837  0.9606  1.5834  0.6043
17136TIP3   OH272898   5.645   6.314   5.405 -0.0292 -0.5881 -0.1068
17136TIP3    H172899   5.665   6.342   5.495  3.1906  0.5494 -1.0629
17136TIP3    H272900   5.615   6.394   5.361 -0.2225 -0.8216 -0.4020
17137TIP3   OH272901   2.270   5.599  10.365 -0.1980  0.8735 -0.0594
17137TIP3    H172902   2.317   5.519  10.386 -0.1030  0.3172 -2.1880
17137TIP3    H272903   2.178   5.577  10.374 -0.1814  0.4120 -0.9370
17138TIP3   OH272904   1.564   1.990  17.107  0.4558  0.2114  0.0007
17138TIP3    H172905   1.487   2.038  17.139  0.9962  0.3013  1.2218
17138TIP3    H272906   1.629   2.001  17.177  1.1978 -0.8022 -0.5200
17139TIP3   OH272907   6.039   5.884   2.124  0.3575 -0.0314 -0.0613
17139TIP3    H172908   5.998   5.962   2.162 -0.1418 -1.4524  2.5524
17139TIP3    H272909   6.123   5.878   2.170  0.7217 -0.6249 -0.7971
17140TIP3   OH272910   5.259   1.960  11.403  0.0952  0.2339  0.2285
17140TIP3    H172911   5.282   1.880  11.356  0.1981  0.5344 -0.2454
17140TIP3    H272912   5.338   1.984  11.450  0.2550  0.3912 -0.1195
17141TIP3   OH272913   0.413   2.113  12.923  0.3271 -0.2292 -0.1070
17141TIP3    H172914   0.458   2.126  13.007 -1.7508  1.4951  0.8624
17141TIP3    H272915   0.429   2.194  12.875 -2.1489  0.7451  0.5574
17142TIP3   OH272916   0.107   0.818   2.034  0.7447 -0.0544 -0.5161
17142TIP3    H172917   0.030   0.774   1.997  0.3192  0.0692  0.2116
17142TIP3    H272918   0.071   0.886   2.090  1.3661  1.9945 -2.4344
17143TIP3   OH272919   5.130   1.922  17.118  0.2344 -0.1364  0.1151
17143TIP3    H172920   5.115   1.874  17.037 -0.9424 -1.4479  1.0565
17143TIP3    H272921   5.076   2.001  17.109 -0.0765 -0.3908 -0.2708
17144TIP3   OH272922   3.753   1.017  12.458 -0.1871 -0.3339 -0.3920
17144TIP3    H172923   3.734   1.029  12.550 -0.5211  1.5815 -0.6779
17144TIP3    H272924   3.711   0.934  12.435 -0.8778 -0.3773  0.9494
17145TIP3   OH272925   5.716   0.358   1.387 -0.5073  0.0541 -0.3497
17145TIP3    H172926   5.779   0.353   1.459 -1.2134  2.0623  0.4832
17145TIP3    H272927   5.662   0.279   1.397 -1.1741  0.7144  1.9260
17146TIP3   OH272928   5.107   4.142  12.741  0.4917 -0.0666 -0.4153
17146TIP3    H172929   5.106   4.229  12.779  0.2513 -0.8768  1.5439
17146TIP3    H272930   5.159   4.150  12.661  1.2087  1.6585  0.2000
17147TIP3   OH272931   1.690   0.997  14.092  0.2938  0.3164  0.2787
17147TIP3    H172932   1.688   0.974  14.185  2.6156  1.9192  0.8229
17147TIP3    H272933   1.719   1.088  14.092  2.0989 -0.1897 -2.0736
17148TIP3   OH272934   5.851   1.041   2.942 -0.3292 -0.2206 -0.4458
17148TIP3    H172935   5.925   1.045   3.002 -0.8698  1.1404  0.1636
17148TIP3    H272936   5.880   1.090   2.865  0.5900 -2.4701 -1.6245
17149TIP3   OH272937   0.805   4.003   4.296 -0.2582 -0.3371  0.3880
17149TIP3    H172938   0.746   3.945   4.247  2.1596 -2.0711 -0.7042
17149TIP3    H272939   0.891   3.963   4.285  1.0574  1.7036  2.4432
17150TIP3   OH272940   5.992   6.280  15.165  0.0820  0.5209 -0.1902
17150TIP3    H172941   5.969   6.197  15.207  1.4999  0.3713  0.3477
17150TIP3    H272942   6.033   6.331  15.234  1.1709  0.8242 -1.0336
17151TIP3   OH272943   0.297   4.219  12.486 -0.4478  0.8518 -0.1492
17151TIP3    H172944   0.371   4.279  12.475 -0.6966  0.9349 -1.6227
17151TIP3    H272945   0.301   4.162  12.409  0.1654 -1.4867  1.5012
17152TIP3   OH272946   0.902   5.407  16.655 -0.6158  0.6234 -0.2582
17152TIP3    H172947   0.994   5.390  16.673 -0.9289  0.6664  1.6141
17152TIP3    H272948   0.900   5.496  16.619  0.0370  0.7439  0.0020
17153TIP3   OH272949   4.926   0.006   0.206  0.1721  0.0028 -0.0698
17153TIP3    H172950   4.946   0.043   0.120 -0.7678  0.2116 -0.2118
17153TIP3    H272951   4.968  -0.080   0.206  0.7897  0.2994 -0.4564
17154TIP3   OH272952   6.306   5.407  14.537 -0.2875 -0.1027 -0.1451
17154TIP3    H172953   6.239   5.407  14.470 -1.0600 -1.5984  0.5732
17154TIP3    H272954   6.271   5.351  14.607  1.1631  0.0852  0.7934
17155TIP3   OH272955   5.818   3.290   5.532 -0.2731 -0.0863 -0.5345
17155TIP3    H172956   5.774   3.245   5.604 -1.8508  1.6340 -0.3556
17155TIP3    H272957   5.781   3.252   5.452 -2.7201  1.7918 -0.3925
17156TIP3   OH272958   1.725   6.026  12.363  0.0002 -0.1328 -0.1846
17156TIP3    H172959   1.676   6.099  12.400 -0.7530 -1.2714  1.1749
17156TIP3    H272960   1.671   5.995  12.290 -1.1537 -1.0913  1.0212
17157TIP3   OH272961   4.041   4.785  16.711 -0.4991  0.7240  0.4994
17157TIP3    H172962   4.126   4.829  16.706  0.4085 -1.0276 -0.5917
17157TIP3    H272963   4.002   4.797  16.625  0.7679 -2.3067 -0.6665
17158TIP3   OH272964   6.381   4.352   4.253  0.0366 -0.4388 -0.4296
17158TIP3    H172965   6.389   4.263   4.286 -0.9625 -0.7792 -1.0777
17158TIP3    H272966   6.378   4.343   4.158 -1.4183  0.1479 -0.4633
17159TIP3   OH272967   3.545   4.730   0.264  0.0096  0.8513  0.1805
17159TIP3    H172968   3.486   4.798   0.295 -1.1213 -0.4440  0.9657
17159TIP3    H272969   3.530   4.726   0.169 -2.1509 -0.3171  0.5142
17160TIP3   OH272970   5.514   3.090   0.379 -0.0842 -0.5424 -0.3755
17160TIP3    H172971   5.566   3.014   0.404  0.2299 -0.4812 -0.8368
17160TIP3    H272972   5.563   3.131   0.308 -0.1218  0.2402  0.0371
17161TIP3   OH272973   6.054   5.716  13.027 -0.1726  0.6817  0.0853
17161TIP3    H172974   6.026   5.649  12.964 -0.2604  0.3666  0.4556
17161TIP3    H272975   6.043   5.674  13.113 -2.6868  2.0405  0.5029
17162TIP3   OH272976   5.185   2.234   2.515 -0.1514 -0.8755 -0.3019
17162TIP3    H172977   5.164   2.155   2.565  0.8088 -0.7447  0.3462
17162TIP3    H272978   5.212   2.298   2.581 -1.7671  0.3129 -0.7318
17163TIP3   OH272979   3.240   2.895  12.693  0.2901  0.0904 -0.0559
17163TIP3    H172980   3.166   2.881  12.634 -0.8689  0.4681  1.2522
17163TIP3    H272981   3.297   2.956  12.646 -0.8963  0.8548 -0.5319
17164TIP3   OH272982   3.316   4.404  17.067  0.4378 -0.0010  0.2788
17164TIP3    H172983   3.297   4.464  16.995  0.6860  0.7716  0.8464
17164TIP3    H272984   3.410   4.384  17.057  0.3450 -0.3408  0.0631
17165TIP3   OH272985   6.460   5.491   5.769 -0.6191 -0.3906 -0.4537
17165TIP3    H172986   6.435   5.565   5.714  0.9114  0.1590 -0.4635
17165TIP3    H272987   6.456   5.525   5.858  1.4792  0.2046 -0.5317
17166TIP3   OH272988   3.646   6.566   2.992  0.0225 -0.5086  0.7681
17166TIP3    H172989   3.671   6.652   3.025  0.2874 -0.6292  0.8806
17166TIP3    H272990   3.726   6.515   2.994 -0.1258 -0.7471  0.6617
17167TIP3   OH272991   6.184   0.303   2.178  0.0670 -0.1603 -0.0340
17167TIP3    H172992   6.235   0.235   2.134  0.5365  0.9622 -1.2861
17167TIP3    H272993   6.095   0.293   2.144  0.6505  1.4208 -2.2375
17168TIP3   OH272994   3.907   4.870   3.886  0.1802 -0.0949  0.4070
17168TIP3    H172995   3.901   4.796   3.825 -0.2255  0.7892 -0.6574
17168TIP3    H272996   3.837   4.929   3.859  0.5130  0.7026  1.2330
17169TIP3   OH272997   1.787   4.314   6.592  0.6888  0.3308  0.0340
17169TIP3    H172998   1.713   4.373   6.606 -1.4594 -2.0409 -0.4769
17169TIP3    H272999   1.799   4.270   6.676 -2.7303 -3.6424 -1.2186
17170TIP3   OH273000   3.426   3.001   5.199  0.5923  0.0371 -0.4729
17170TIP3    H173001   3.394   2.967   5.116  1.2597  1.5567 -1.3908
17170TIP3    H273002   3.504   3.051   5.176 -0.1709  1.9386  0.8049
17171TIP3   OH273003   1.240   6.297  11.157  0.3024 -0.3692 -0.3515
17171TIP3    H173004   1.229   6.218  11.210 -0.1013  0.2065  0.4289
17171TIP3    H273005   1.278   6.361  11.217 -2.6493  1.1648  0.0741
17172TIP3   OH273006   3.792   0.833   2.608  0.0044 -0.3101  0.7828
17172TIP3    H173007   3.835   0.846   2.693  1.0881  0.0082  0.2025
17172TIP3    H273008   3.721   0.770   2.626 -0.6555  0.7742  2.1867
17173TIP3   OH273009   0.872   4.600  12.273 -0.1895  0.4707  0.3439
17173TIP3    H173010   0.930   4.557  12.335 -0.6921  1.8212  1.8272
17173TIP3    H273011   0.927   4.618  12.196  0.8968  0.2365  1.0538
17174TIP3   OH273012   3.822   1.515  12.258  0.1113 -0.7369 -0.7044
17174TIP3    H173013   3.730   1.491  12.246  0.6689 -2.5524 -1.6056
17174TIP3    H273014   3.852   1.538  12.171  0.2388  1.0285 -0.2248
17175TIP3   OH273015   2.354   5.444  14.750  0.1040 -0.1104  0.3155
17175TIP3    H173016   2.358   5.349  14.762  2.0832 -0.2037 -0.5806
17175TIP3    H273017   2.446   5.471  14.745 -0.4187  1.5446 -1.6994
17176TIP3   OH273018   5.945   0.230  16.719 -0.0700  0.4319  0.0016
17176TIP3    H173019   6.022   0.205  16.668 -1.0930  0.7848 -1.7719
17176TIP3    H273020   5.981   0.273  16.797  1.5176  0.6657 -0.8261
17177TIP3   OH273021   6.348   5.124   3.409 -0.1757 -0.6168 -0.0063
17177TIP3    H173022   6.429   5.149   3.453 -1.3682  0.4709  1.6757
17177TIP3    H273023   6.329   5.197   3.350  0.0688 -0.8859 -0.4234
17178TIP3   OH273024   6.323   0.810  16.018  0.1478 -0.0979 -0.2914
17178TIP3    H173025   6.342   0.868  15.944 -0.1598  0.4898  0.0901
17178TIP3    H273026   6.238   0.839  16.050 -0.5659 -1.5029 -0.8148
17179TIP3   OH273027   2.441   5.280   5.671  0.2393  0.7690 -0.4211
17179TIP3    H173028   2.388   5.325   5.737 -0.1324  0.9857 -0.8583
17179TIP3    H273029   2.401   5.304   5.588 -0.0924 -0.5397 -0.6578
17180TIP3   OH273030   2.465   6.608  16.229  0.2705  0.4189 -0.2758
17180TIP3    H173031   2.464   6.525  16.182  1.6070  0.1393  0.1542
17180TIP3    H273032   2.512   6.668  16.171 -1.5915  1.2068 -1.0597
17181TIP3   OH273033   3.049   0.550  16.969 -0.0511 -0.1322  0.1540
17181TIP3    H173034   3.050   0.476  17.030  3.8006 -0.3353  0.1455
17181TIP3    H273035   3.005   0.620  17.016 -1.6578 -1.6875  1.1043
17182TIP3   OH273036   0.565   1.007  16.160  0.0519 -0.2510  0.2690
17182TIP3    H173037   0.512   1.055  16.224 -0.2497 -1.3433  0.8534
17182TIP3    H273038   0.550   0.915  16.180  0.7570 -0.5988 -0.7311
17183TIP3   OH273039   2.320   4.982  17.061 -0.4188  0.6103  0.1481
17183TIP3    H173040   2.297   5.005  17.151 -0.1950  1.4388  0.0058
17183TIP3    H273041   2.416   4.990  17.058 -0.5119  1.8124 -0.4658
17184TIP3   OH273042   5.751   5.385   2.743 -0.4087  0.0438 -0.2031
17184TIP3    H173043   5.827   5.347   2.699  0.0044  0.8813 -0.2288
17184TIP3    H273044   5.686   5.315   2.743  0.5343 -0.8574  0.2754
17185TIP3   OH273045   0.355   2.228  17.012 -0.7756 -0.2477  0.0254
17185TIP3    H173046   0.389   2.261  16.929 -1.3418 -2.4099 -1.1296
17185TIP3    H273047   0.345   2.307  17.067  1.7380  0.9725 -1.1191
17186TIP3   OH273048   2.679   6.426  16.425 -0.4637  0.7623 -0.0854
17186TIP3    H173049   2.584   6.422  16.416 -0.2530 -2.0618 -2.5640
17186TIP3    H273050   2.710   6.446  16.336  1.2792 -1.7075 -0.1354
17187TIP3   OH273051   5.356   2.961  12.976  0.1739 -0.4864  0.8429
17187TIP3    H173052   5.382   2.978  12.885 -0.6210 -0.3277  0.6299
17187TIP3    H273053   5.325   3.046  13.008  1.0139 -0.4106  1.4619
17188TIP3   OH273054   4.364   1.787   5.744 -0.0852  0.1464 -0.3880
17188TIP3    H173055   4.401   1.861   5.792  0.9744  0.2678 -1.3500
17188TIP3    H273056   4.306   1.827   5.679 -1.1518  0.0040  0.4429
17189TIP3   OH273057   4.768   3.259   1.705 -0.9335  0.0798  0.8463
17189TIP3    H173058   4.705   3.217   1.762 -1.3536 -0.7031 -0.1638
17189TIP3    H273059   4.734   3.245   1.617 -0.9768  2.3603  0.4396
17190TIP3   OH273060   2.059   1.331  15.325  0.6490 -0.1173 -0.6336
17190TIP3    H173061   2.147   1.333  15.363 -0.3259  1.7861  1.8490
17190TIP3    H273062   2.024   1.418  15.343 -1.6022 -0.7004 -1.9129
17191TIP3   OH273063   1.163   3.709  10.602 -0.3195  0.8299  0.5824
17191TIP3    H173064   1.242   3.746  10.643 -0.1385  0.3409  0.6878
17191TIP3    H273065   1.094   3.773  10.620 -0.1782  0.7568  1.4161
17192TIP3   OH273066   5.660   6.631  15.407  0.3176 -0.1483  0.2168
17192TIP3    H173067   5.579   6.588  15.434  0.9654 -0.3393  1.9804
17192TIP3    H273068   5.644   6.657  15.316 -1.2743 -1.2182  0.1505
17193TIP3   OH273069   6.333   4.273   2.041  0.2808 -0.4635  0.0494
17193TIP3    H173070   6.302   4.349   1.993  0.3888  0.2142  1.0074
17193TIP3    H273071   6.378   4.219   1.976  0.2011  0.2943 -0.6460
17194TIP3   OH273072   2.811   4.991  13.880  0.4929 -0.3340  0.2629
17194TIP3    H173073   2.770   4.975  13.965  0.2467 -0.6320  0.0904
17194TIP3    H273074   2.745   4.964  13.816  0.9367 -0.7843 -0.0178
17195TIP3   OH273075   6.236   3.796  10.978  0.1733  0.2965  0.1129
17195TIP3    H173076   6.176   3.822  10.907 -0.2504 -0.2697  0.2622
17195TIP3    H273077   6.227   3.701  10.984  0.3796  0.3152  0.7785
17196TIP3   OH273078   3.035   2.405   1.672  0.4841 -0.3899  0.3987
17196TIP3    H173079   3.117   2.361   1.693  0.7336  0.6384  1.7544
17196TIP3    H273080   3.032   2.479   1.733 -0.9187  0.2295 -0.3811
17197TIP3   OH273081   6.278   1.925  14.007  0.6970 -0.1251  0.7314
17197TIP3    H173082   6.344   1.864  14.038  2.4612  1.2746 -0.0964
17197TIP3    H273083   6.248   1.971  14.086  2.3027  0.7121  0.8775
17198TIP3   OH273084   5.009   1.630   3.771  0.2184  0.0220 -0.3042
17198TIP3    H173085   5.099   1.661   3.785 -0.1248  0.2854  1.6162
17198TIP3    H273086   5.002   1.553   3.827 -1.4381  1.3702  1.4722
17199TIP3   OH273087   1.618   4.430   6.282 -0.5317  0.2006 -0.2839
17199TIP3    H173088   1.561   4.383   6.342 -0.3115 -2.2646 -1.8941
17199TIP3    H273089   1.572   4.512   6.265 -0.7657  0.8572  2.8839
17200TIP3   OH273090   3.645   2.332  14.370  0.1004  0.2246 -0.1394
17200TIP3    H173091   3.729   2.303  14.405  0.2854  1.7784  0.8437
17200TIP3    H273092   3.587   2.335  14.447 -1.0779 -1.4874 -0.9158
17201TIP3   OH273093   2.179   4.360   4.448  0.3283 -0.4366 -0.0433
17201TIP3    H173094   2.171   4.316   4.363 -0.1347  0.1015 -0.2877
17201TIP3    H273095   2.244   4.428   4.433 -0.4054  0.2405 -0.2286
17202TIP3   OH273096   5.252   2.478   4.239  0.4226  0.1861 -0.2338
17202TIP3    H173097   5.161   2.455   4.220  0.6620 -0.5594 -0.5120
17202TIP3    H273098   5.304   2.412   4.193  1.1144  0.7278 -0.2514
17203TIP3   OH273099   0.081   3.858  12.656 -0.0245 -0.1726 -0.3962
17203TIP3    H173100   0.174   3.880  12.666  0.3491 -1.1242 -1.4771
17203TIP3    H273101   0.046   3.925  12.598  0.2329 -0.3686 -0.7802
17204TIP3   OH273102   0.032   3.768  13.694  0.6376 -0.0225  0.0457
17204TIP3    H173103   0.097   3.699  13.710 -0.0963 -1.2069 -1.8071
17204TIP3    H273104  -0.036   3.725  13.641 -1.7800  1.1043  2.0205
17205TIP3   OH273105   4.541   4.251  12.967 -0.2294 -0.2417  0.0393
17205TIP3    H173106   4.481   4.202  13.023  0.2105  1.3631  2.0478
17205TIP3    H273107   4.627   4.239  13.007  0.7580 -1.8802 -2.3670
17206TIP3   OH273108   4.721   3.918  11.097  0.2014  0.1044  0.2500
17206TIP3    H173109   4.759   3.847  11.150  0.7604  0.6713  0.6189
17206TIP3    H273110   4.765   3.911  11.013  1.0634  0.6888  0.6396
17207TIP3   OH273111   4.578   3.796  14.918 -0.1362  0.4891  0.3262
17207TIP3    H173112   4.664   3.832  14.940  0.6140 -1.1950  0.2945
17207TIP3    H273113   4.516   3.852  14.964  1.0281  1.1188  1.1728
17208TIP3   OH273114   2.502   5.591   0.585  0.4627 -0.0532 -0.2891
17208TIP3    H173115   2.425   5.644   0.604 -0.7170 -1.4159 -1.0279
17208TIP3    H273116   2.544   5.577   0.670 -1.7644 -1.6889  0.6377
17209TIP3   OH273117   6.161   4.185  13.673  0.1343  0.4705  0.0884
17209TIP3    H173118   6.137   4.124  13.603 -2.4210 -0.0993  1.3512
17209TIP3    H273119   6.158   4.271  13.631 -0.2811  0.0575 -0.7649
17210TIP3   OH273120   2.281   1.735   0.365  0.0289  0.4303  0.0895
17210TIP3    H173121   2.334   1.814   0.361  2.0443 -0.8490  0.0383
17210TIP3    H273122   2.343   1.664   0.348 -1.7231 -1.1604  0.0514
17211TIP3   OH273123   4.516   5.344  12.945 -0.7104  0.1551  0.0121
17211TIP3    H173124   4.587   5.368  12.886  0.0979 -0.0734  0.8761
17211TIP3    H273125   4.486   5.259  12.913  0.4922 -0.5082  0.5962
17212TIP3   OH273126   5.913   2.089   3.326  0.2180  0.4084 -0.0531
17212TIP3    H173127   5.874   2.006   3.353 -0.1356  0.1399 -1.2971
17212TIP3    H273128   5.974   2.065   3.257  0.2091  1.1672 -0.3341
17213TIP3   OH273129   0.886   0.645  16.452  0.3671  0.3458 -0.0996
17213TIP3    H173130   0.965   0.591  16.448  0.7667  0.9462 -0.4101
17213TIP3    H273131   0.905   0.720  16.396 -1.1596 -0.4496 -1.7989
17214TIP3   OH273132   3.535   4.983   2.890  0.2358 -0.3287 -0.0112
17214TIP3    H173133   3.536   4.979   2.794  2.6978 -1.3398 -0.0262
17214TIP3    H273134   3.443   4.994   2.913 -0.2476  2.0042 -2.5272
17215TIP3   OH273135   0.719   0.550  11.793 -0.0887 -0.4529 -0.1430
17215TIP3    H173136   0.653   0.574  11.728  0.1879 -1.7203 -0.9368
17215TIP3    H273137   0.709   0.455  11.802 -1.6903 -0.0751  3.4224
17216TIP3   OH273138   3.368   1.867   1.585 -0.4281 -0.3357  0.4053
17216TIP3    H173139   3.454   1.854   1.545 -1.2471 -1.4881 -1.1077
17216TIP3    H273140   3.348   1.784   1.628 -0.4687  0.1932  1.4389
17217TIP3   OH273141   2.642   3.533   1.802  0.8254  0.3452 -0.0833
17217TIP3    H173142   2.689   3.611   1.831 -0.5564  1.3160 -0.3590
17217TIP3    H273143   2.557   3.538   1.845  0.9574 -1.4120  0.4569
17218TIP3   OH273144   0.436   0.581  14.036 -0.2373 -0.4639 -0.2877
17218TIP3    H173145   0.373   0.514  14.059  0.9290 -1.3334  0.5293
17218TIP3    H273146   0.479   0.548  13.957  0.2202 -0.6229  0.0190
17219TIP3   OH273147   1.146   2.979  14.365  0.4172  0.0335  0.0613
17219TIP3    H173148   1.158   3.031  14.285  1.1664  0.2262  0.2919
17219TIP3    H273149   1.168   3.039  14.436 -2.0664  0.4611  0.5565
17220TIP3   OH273150   4.711   2.324   4.301 -0.3043 -0.2300 -0.3163
17220TIP3    H173151   4.679   2.398   4.352 -0.3860 -1.1335  1.0059
17220TIP3    H273152   4.635   2.293   4.253 -0.2042  0.7029 -1.0974
17221TIP3   OH273153   2.501   0.177   5.856  0.5486  0.1482 -0.1990
17221TIP3    H173154   2.478   0.232   5.931 -1.2107 -0.6209 -0.1103
17221TIP3    H273155   2.416   0.149   5.821  1.3618 -2.0240 -0.5979
17222TIP3   OH273156   3.782   4.913   3.229 -0.1588 -0.4723 -0.7802
17222TIP3    H173157   3.820   4.985   3.280  0.0551 -0.6802 -0.6402
17222TIP3    H273158   3.845   4.841   3.240 -0.7357 -0.9160 -0.3008
17223TIP3   OH273159   2.154   4.196   2.871  0.7502  0.6616 -0.1417
17223TIP3    H173160   2.125   4.175   2.782  0.3231 -0.6411  0.2899
17223TIP3    H273161   2.087   4.158   2.928  1.3746  0.8810  0.7618
17224TIP3   OH273162   2.074   5.873  11.030  0.6538  0.5474  0.1260
17224TIP3    H173163   2.026   5.808  11.081  0.1062  0.7067 -0.1849
17224TIP3    H273164   2.012   5.944  11.016  0.0311 -0.4079 -2.6160
17225TIP3   OH273165   2.378   1.072   5.321 -0.1442  0.2000 -0.2212
17225TIP3    H173166   2.349   1.078   5.230 -1.9337  0.1930  0.2995
17225TIP3    H273167   2.340   0.990   5.352  1.2818 -0.3009  0.2782
17226TIP3   OH273168   6.250   5.381  11.117  0.2894 -0.0785  0.7205
17226TIP3    H173169   6.311   5.384  11.044 -0.2326 -1.9927  0.1431
17226TIP3    H273170   6.246   5.289  11.142 -3.1948 -0.2819 -0.0567
17227TIP3   OH273171   3.220   4.550  12.497  0.0737  0.6129 -0.3344
17227TIP3    H173172   3.213   4.631  12.548  0.4152 -0.1017  0.8922
17227TIP3    H273173   3.305   4.556  12.454  0.2618  0.7426  0.0535
17228TIP3   OH273174   0.484   0.090   2.297  0.6218  0.0185 -0.1849
17228TIP3    H173175   0.507   0.114   2.207  0.6502  0.7517  0.0137
17228TIP3    H273176   0.569   0.080   2.341  0.6539  2.9456  0.6063
17229TIP3   OH273177   6.436   0.575   3.392  0.0364 -0.0723  0.0380
17229TIP3    H173178   6.473   0.598   3.477 -0.0981 -0.6639  0.2606
17229TIP3    H273179   6.374   0.505   3.411  1.4429 -1.6252 -0.7741
17230TIP3   OH273180   6.599   2.693  14.469 -0.7364 -0.1221 -0.6468
17230TIP3    H173181   6.551   2.618  14.434  0.1463 -1.9030  1.6267
17230TIP3    H273182   6.555   2.712  14.552  0.6493  0.1349  0.0534
17231TIP3   OH273183   4.055   0.393  17.153 -0.1370 -0.3362  0.1582
17231TIP3    H173184   4.013   0.410  17.068  0.9321 -0.4184 -0.4048
17231TIP3    H273185   4.052   0.298  17.161 -2.5077 -0.2090  1.4231
17232TIP3   OH273186   5.231   5.966  17.464  0.1514 -0.6518 -0.3276
17232TIP3    H173187   5.250   5.991  17.373 -0.3806 -1.2632 -0.6232
17232TIP3    H273188   5.174   5.889  17.455 -0.4876 -0.2921  0.5229
17233TIP3   OH273189   1.016   0.376   2.567 -0.7957  0.3763 -0.0113
17233TIP3    H173190   1.034   0.436   2.641 -2.3749  0.0816  0.6477
17233TIP3    H273191   0.950   0.422   2.515 -0.9221 -0.1477 -0.3163
17234TIP3   OH273192   3.091   1.191   4.132  0.3426 -0.6703 -0.1414
17234TIP3    H173193   3.174   1.197   4.085  0.6536 -1.2404  0.3231
17234TIP3    H273194   3.106   1.123   4.198 -0.5465 -0.8914 -0.1622
17235TIP3   OH273195   3.077   5.209  11.077 -0.0844 -0.1858 -0.1953
17235TIP3    H173196   3.112   5.161  11.002  3.1508  2.3953 -0.5692
17235TIP3    H273197   2.999   5.254  11.043 -0.5944 -1.6051 -0.9973
17236TIP3   OH273198   1.355   3.280   1.033  0.5243 -0.3880  0.2386
17236TIP3    H173199   1.315   3.341   0.971  0.9019 -1.1881 -0.8203
17236TIP3    H273200   1.282   3.253   1.090  0.0664 -0.0226 -0.1635
17237TIP3   OH273201   4.964   6.541  12.460 -0.4312  0.0068  0.3503
17237TIP3    H173202   4.999   6.466  12.509  0.3786  1.0528  1.4556
17237TIP3    H273203   5.032   6.561  12.396 -0.2708  0.2857  0.6028
17238TIP3   OH273204   4.199   5.004  16.684 -0.4090 -0.1443 -0.4725
17238TIP3    H173205   4.277   5.008  16.628  0.4385 -1.1540  0.5794
17238TIP3    H273206   4.231   5.025  16.772 -1.1257 -1.4527  0.1370
17239TIP3   OH273207   5.232   4.165   5.078 -0.6808  0.4367 -0.0790
17239TIP3    H173208   5.216   4.135   5.168 -0.5978  0.9134  0.0931
17239TIP3    H273209   5.285   4.244   5.087  1.0277 -0.5972 -0.6081
17240TIP3   OH273210   4.016   2.901   5.505 -0.4273 -0.3569  0.3993
17240TIP3    H173211   3.968   2.848   5.569 -1.3712 -0.2091 -0.1609
17240TIP3    H273212   3.985   2.990   5.520  1.5513  0.1628  1.6894
17241TIP3   OH273213   4.825   6.472   1.922 -0.2023 -0.1930  0.0542
17241TIP3    H173214   4.905   6.421   1.936 -0.8066 -0.7452  1.8227
17241TIP3    H273215   4.771   6.416   1.866 -0.1315 -0.7327  0.5069
17242TIP3   OH273216   4.838   2.558   2.477 -0.1062 -0.5815 -0.2808
17242TIP3    H173217   4.869   2.493   2.540  3.7377 -0.5147 -1.8116
17242TIP3    H273218   4.874   2.529   2.393 -3.9152  0.0282 -2.3544
17243TIP3   OH273219   4.474   4.813  13.284 -0.3129  0.4728  0.4985
17243TIP3    H173220   4.527   4.859  13.219 -0.0674 -0.2918  0.1506
17243TIP3    H273221   4.487   4.720  13.265 -1.7526  0.2655  0.4274
17244TIP3   OH273222   6.364   4.537  16.477  0.3666 -0.3956  0.0799
17244TIP3    H173223   6.405   4.563  16.559  0.2471 -0.3207  0.1158
17244TIP3    H273224   6.417   4.580  16.410  0.1948 -0.0908  0.1384
17245TIP3   OH273225   6.110   2.781  14.897  0.1361  0.2630 -0.8735
17245TIP3    H173226   6.104   2.695  14.853 -1.0416  0.9879 -2.2434
17245TIP3    H273227   6.203   2.800  14.900  0.4101 -1.0295 -0.6250
17246TIP3   OH273228   5.296   1.716  12.213  0.1830  0.2284  0.1089
17246TIP3    H173229   5.275   1.799  12.257 -2.6359 -0.4371  0.2236
17246TIP3    H273230   5.326   1.658  12.284 -1.7784 -0.0328  0.7830
17247TIP3   OH273231   5.166   2.254   5.177 -1.0035  0.3755  0.3078
17247TIP3    H173232   5.114   2.327   5.145 -1.7818  0.6126  2.0064
17247TIP3    H273233   5.103   2.195   5.217 -0.0801  0.2576  1.6660
17248TIP3   OH273234   2.199   3.996  14.122 -0.2762 -0.0165  0.1873
17248TIP3    H173235   2.139   4.068  14.141 -0.4313 -0.7369  2.9521
17248TIP3    H273236   2.142   3.923  14.098 -0.1559  0.5025 -1.8881
17249TIP3   OH273237   2.024   0.982   0.573  0.0584  0.5088 -0.0860
17249TIP3    H173238   2.095   0.926   0.542 -1.2871 -0.5662 -1.3666
17249TIP3    H273239   2.001   0.948   0.659 -0.2082 -0.4124 -0.5136
17250TIP3   OH273240   5.401   3.322   2.621  0.0085 -0.4998  0.3183
17250TIP3    H173241   5.441   3.331   2.707 -1.1994  0.1894  0.8489
17250TIP3    H273242   5.364   3.409   2.603 -0.8248 -0.9643 -0.3245
17251TIP3   OH273243   4.268   5.323   2.417 -0.1357  0.1780 -0.0890
17251TIP3    H173244   4.257   5.366   2.332 -0.7656 -1.0505 -0.6414
17251TIP3    H273245   4.211   5.246   2.413 -1.0518  0.7060  1.8880
17252TIP3   OH273246   6.185   0.911  16.401  0.0301 -0.3786  0.4879
17252TIP3    H173247   6.103   0.922  16.449  0.1651  0.0821  0.6140
17252TIP3    H273248   6.226   0.834  16.443 -0.5898 -0.9553  0.0520
17253TIP3   OH273249   5.742   0.157  16.038 -0.2764  0.5907 -0.2333
17253TIP3    H173250   5.734   0.242  15.996 -0.5006  0.8673  0.3626
17253TIP3    H273251   5.656   0.116  16.028 -0.3227  0.6465 -0.0737
17254TIP3   OH273252   6.640   2.346   4.447  0.3492 -0.6119  0.1712
17254TIP3    H173253   6.578   2.418   4.435  1.6330  0.7419  1.2984
17254TIP3    H273254   6.675   2.358   4.535  2.1382 -1.3632 -0.3819
17255TIP3   OH273255   3.784   5.940  14.787 -0.6786  0.1264  0.3581
17255TIP3    H173256   3.839   6.006  14.829 -0.3171 -0.7492  1.3126
17255TIP3    H273257   3.837   5.860  14.789 -0.6328  0.0387 -1.8149
17256TIP3   OH273258   4.614   3.916   1.315  0.6541  0.1010 -0.4790
17256TIP3    H173259   4.684   3.921   1.250  3.0959 -0.5088  1.8785
17256TIP3    H273260   4.660   3.899   1.398 -2.2018  1.1991  1.4924
17257TIP3   OH273261   3.958   4.265  12.085 -0.0676 -0.1663  0.0962
17257TIP3    H173262   3.950   4.329  12.156 -0.3238 -0.7984  0.6468
17257TIP3    H273263   4.007   4.192  12.124  0.3790 -0.2364 -0.5744
17258TIP3   OH273264   5.227   3.394  14.331 -0.1334 -0.0894  0.0228
17258TIP3    H173265   5.197   3.441  14.410 -0.8072  0.0290 -0.2991
17258TIP3    H273266   5.304   3.345  14.361 -0.0569  0.3746  0.6264
17259TIP3   OH273267   5.291   6.478   3.463 -0.2527 -0.6272 -0.0553
17259TIP3    H173268   5.253   6.563   3.485  0.2704 -0.6536  1.0083
17259TIP3    H273269   5.258   6.418   3.530 -0.5497 -1.2464 -0.7491
17260TIP3   OH273270   3.243   3.323   3.140  0.3499  0.3170 -0.2806
17260TIP3    H173271   3.177   3.288   3.199  1.1760  0.5444  0.7957
17260TIP3    H273272   3.272   3.404   3.181  1.7927 -0.1210 -0.3859
17261TIP3   OH273273   2.838   3.460  14.730  0.2425  0.0566  0.3824
17261TIP3    H173274   2.891   3.513  14.670 -0.2348  1.8955  1.5041
17261TIP3    H273275   2.902   3.410  14.780  0.8992  1.3253  0.8672
17262TIP3   OH273276   6.667   3.581   1.443  0.4463 -0.4394 -0.6181
17262TIP3    H173277   6.750   3.573   1.397  0.4066  0.5976 -0.8964
17262TIP3    H273278   6.615   3.507   1.414  1.4266 -1.3466 -0.1018
17263TIP3   OH273279   3.149   5.015  15.321 -0.3743  0.0894  0.2607
17263TIP3    H173280   3.170   4.925  15.345 -0.6999  0.4893  2.1768
17263TIP3    H273281   3.082   5.042  15.384 -0.3648  1.6350 -0.3514
17264TIP3   OH273282   2.093   3.030   3.980 -0.2323  0.5640 -0.2076
17264TIP3    H173283   2.135   2.984   3.908 -1.3076 -0.9426  0.0692
17264TIP3    H273284   2.125   2.985   4.059  0.5636  1.8822  0.2508
17265TIP3   OH273285   1.997   4.851   3.291  0.0272  0.1409  0.2235
17265TIP3    H173286   2.079   4.897   3.310  1.7011 -2.2917 -0.6616
17265TIP3    H273287   2.011   4.762   3.322 -1.7500 -0.7126 -1.2089
17266TIP3   OH273288   3.788   2.204   3.703  0.1169  0.2353 -0.2204
17266TIP3    H173289   3.709   2.153   3.690  0.5125 -0.3887 -0.2295
17266TIP3    H273290   3.830   2.204   3.617  1.5096 -1.8078  0.3862
17267TIP3   OH273291   4.159   4.723  12.237  0.0075 -0.1304 -0.2568
17267TIP3    H173292   4.102   4.772  12.296  1.2720 -0.1380  1.0197
17267TIP3    H273293   4.240   4.775  12.234  0.5490 -0.9867 -0.6745
17268TIP3   OH273294   3.706   0.136   3.375 -0.0355  0.0688  0.2633
17268TIP3    H173295   3.619   0.098   3.362  0.4113 -0.5604 -1.0389
17268TIP3    H273296   3.760   0.095   3.308  1.0624  1.1233  0.4706
17269TIP3   OH273297   1.876   3.321  11.304  0.2336  0.6397 -0.3777
17269TIP3    H173298   1.906   3.354  11.389 -0.7982 -1.3533  0.8347
17269TIP3    H273299   1.873   3.398  11.248  1.7226  1.8832  1.1582
17270TIP3   OH273300   0.035   1.221  11.945 -0.5698 -0.0622 -0.4764
17270TIP3    H173301   0.061   1.293  11.888  0.0284 -0.5652 -0.8528
17270TIP3    H273302   0.058   1.250  12.033  1.8028 -0.6595 -0.8212
17271TIP3   OH273303   3.629   2.460  12.112 -0.1635  0.0363 -0.0438
17271TIP3    H173304   3.580   2.400  12.168 -2.9661  1.6465 -0.5420
17271TIP3    H273305   3.618   2.546  12.154  2.0726  0.5507 -0.3720
17272TIP3   OH273306   0.886   0.650   2.970 -0.0452 -0.1958  0.0895
17272TIP3    H173307   0.945   0.658   3.045 -2.7851 -1.6329  2.6127
17272TIP3    H273308   0.845   0.736   2.963 -1.6783 -0.7016  2.1328
17273TIP3   OH273309   5.785   6.451  15.060 -0.4431 -0.3968 -0.0206
17273TIP3    H173310   5.834   6.533  15.052  0.6350 -1.1913 -2.2168
17273TIP3    H273311   5.850   6.387  15.089 -0.8633 -0.8494 -0.0755
17274TIP3   OH273312   0.357   4.374  17.453 -0.3071  0.2879 -0.4737
17274TIP3    H173313   0.281   4.385  17.395  0.0722 -0.3778 -1.1263
17274TIP3    H273314   0.330   4.305  17.514 -0.6283  0.8400  0.0223
17275TIP3   OH273315   0.926   6.155  13.357 -0.1567  0.8988  0.6586
17275TIP3    H173316   0.882   6.073  13.339  2.7067 -0.2254 -2.1041
17275TIP3    H273317   0.905   6.211  13.282  0.6928  1.4158  0.7923
17276TIP3   OH273318   3.753   0.138   0.033  0.5439  0.3047 -0.7229
17276TIP3    H173319   3.708   0.154  -0.050 -0.5629  1.9437  0.1540
17276TIP3    H273320   3.763   0.224   0.072  0.6840 -0.4767  1.0404
17277TIP3   OH273321   0.458   2.340  16.750  0.1628  0.1562 -0.1286
17277TIP3    H173322   0.550   2.361  16.738  0.2463  0.6314  1.1529
17277TIP3    H273323   0.410   2.406  16.701  0.4925  1.0851  0.7663
17278TIP3   OH273324   3.724   0.764   3.293 -0.0057  0.0384 -0.1027
17278TIP3    H173325   3.741   0.674   3.264  2.1875  0.5835 -0.6800
17278TIP3    H273326   3.678   0.804   3.219 -4.2536 -1.4243  1.4307
17279TIP3   OH273327   3.142   4.630  12.935  0.4050 -0.1093 -0.4148
17279TIP3    H173328   3.177   4.711  12.972  0.4537 -0.1442 -0.3820
17279TIP3    H273329   3.093   4.590  13.007  0.7212 -0.3074 -0.3061
17280TIP3   OH273330   1.763   1.935  13.883 -0.3738  0.1476 -0.0409
17280TIP3    H173331   1.720   1.878  13.947 -0.9749  0.9474  0.2960
17280TIP3    H273332   1.845   1.961  13.925 -0.0148 -0.6055 -0.2721
17281TIP3   OH273333   0.732   5.623   2.971 -0.2138  0.1650 -0.2013
17281TIP3    H173334   0.729   5.647   2.878  0.8040 -0.1069 -0.3137
17281TIP3    H273335   0.810   5.666   3.005 -0.4760  0.1046  0.4930
17282TIP3   OH273336   5.398   0.766  15.951  0.1227 -0.4925  0.4344
17282TIP3    H173337   5.307   0.776  15.981  0.4522  2.4978  0.6777
17282TIP3    H273338   5.441   0.719  16.022 -0.6788  0.3930  1.5417
17283TIP3   OH273339   5.217   3.286   1.488  0.7063 -0.5748 -0.2232
17283TIP3    H173340   5.311   3.267   1.494  0.4980 -1.4094  0.7169
17283TIP3    H273341   5.198   3.331   1.571  0.7300  1.7975 -1.4267
17284TIP3   OH273342   1.555   5.875   5.164  0.3439 -0.4773 -0.1971
17284TIP3    H173343   1.605   5.957   5.171  1.5103 -1.2377  1.1652
17284TIP3    H273344   1.620   5.810   5.137 -0.1584 -1.2600  0.4200
17285TIP3   OH273345   4.046   0.615  11.314  0.4068  0.0010  0.1499
17285TIP3    H173346   3.965   0.564  11.307  0.1465  0.2724  1.1356
17285TIP3    H273347   4.043   0.674  11.238  0.2332 -0.7584 -0.4482
17286TIP3   OH273348   3.291   0.214   1.083  0.1901 -0.0885 -0.6192
17286TIP3    H173349   3.204   0.187   1.051 -0.0019 -0.2614  0.0328
17286TIP3    H273350   3.273   0.255   1.167  0.7913 -0.5911 -0.2387
17287TIP3   OH273351   5.320   3.390  12.122  0.2628  0.1261 -0.1272
17287TIP3    H173352   5.255   3.430  12.063 -0.3732 -1.7736 -0.7843
17287TIP3    H273353   5.402   3.436  12.102 -0.6331  1.8511 -0.0320
17288TIP3   OH273354   6.459   3.407   1.357 -0.3701  0.3842  0.4003
17288TIP3    H173355   6.408   3.431   1.434 -1.1499 -2.3385  0.8489
17288TIP3    H273356   6.408   3.338   1.315  1.6715 -0.5922 -0.6387
17289TIP3   OH273357   3.368   3.590   1.975  0.8375  0.5636 -0.3416
17289TIP3    H173358   3.460   3.564   1.978  1.1051  1.2386 -1.7584
17289TIP3    H273359   3.334   3.549   1.896  0.1995  1.1621 -0.3896
17290TIP3   OH273360   0.063   2.426  12.919 -0.4432  0.1433  0.0319
17290TIP3    H173361   0.089   2.347  12.966 -2.1648 -1.4905 -1.6091
17290TIP3    H273362   0.037   2.487  12.989  0.5757 -0.8211  1.3157
17291TIP3   OH273363   4.238   4.484   0.549 -0.2609 -0.0751 -0.2305
17291TIP3    H173364   4.190   4.456   0.472 -1.7755 -0.8441  0.9381
17291TIP3    H273365   4.279   4.567   0.523 -1.7869  0.3382 -1.4631
17292TIP3   OH273366   2.683   2.445   1.767  0.1145  0.2908  0.4932
17292TIP3    H173367   2.757   2.389   1.789  0.7517  0.5181 -0.9533
17292TIP3    H273368   2.645   2.406   1.689 -0.4338  0.9621  0.4135
17293TIP3   OH273369   1.216   1.580   2.630  0.2282 -0.3118  0.1754
17293TIP3    H173370   1.214   1.582   2.726 -1.6995 -0.3683  0.1906
17293TIP3    H273371   1.279   1.647   2.605  1.6621 -1.1237  1.4776
17294TIP3   OH273372   3.877   4.542  16.407 -0.7523  0.0276  0.0831
17294TIP3    H173373   3.899   4.454  16.375 -0.7958  1.0860 -3.3176
17294TIP3    H273374   3.781   4.543  16.409 -0.7635  0.0896 -0.2920
17295TIP3   OH273375   0.378   2.089  12.612  0.2316 -0.1191 -0.3070
17295TIP3    H173376   0.350   2.111  12.701 -1.0959  0.2588 -0.7927
17295TIP3    H273377   0.427   2.008  12.622  1.8102  0.9401  1.0171
17296TIP3   OH273378   3.904   2.784   3.367  0.0116 -0.1537 -0.3813
17296TIP3    H173379   3.951   2.723   3.423  2.6173  2.2235  0.2738
17296TIP3    H273380   3.944   2.774   3.281  3.1311  2.9030  0.4896
17297TIP3   OH273381   4.519   2.471   1.302 -1.0573 -0.2899  0.3186
17297TIP3    H173382   4.436   2.498   1.341 -0.5246  0.5688  0.8835
17297TIP3    H273383   4.519   2.375   1.309 -1.4411 -0.2146  1.4637
17298TIP3   OH273384   2.883   3.750  11.618  0.1954  0.1991 -0.2994
17298TIP3    H173385   2.833   3.827  11.646 -1.7118 -0.9920 -0.2662
17298TIP3    H273386   2.937   3.783  11.546 -1.3743  1.3712 -1.0123
17299TIP3   OH273387   1.440   3.769   6.604  0.7552 -0.0864  0.0028
17299TIP3    H173388   1.442   3.828   6.529  1.1243  0.3950  0.3756
17299TIP3    H273389   1.432   3.828   6.680 -0.8384 -0.6189  0.2865
17300TIP3   OH273390   5.308   1.750  16.238  0.0664  0.0859 -0.2991
17300TIP3    H173391   5.285   1.668  16.194  1.6818 -0.6475  0.1425
17300TIP3    H273392   5.345   1.723  16.322  0.7467  1.2500 -0.2008
17301TIP3   OH273393   4.952   2.357  14.181  0.0055  0.1989 -0.3521
17301TIP3    H173394   5.028   2.335  14.234 -0.3928 -0.3719 -0.0056
17301TIP3    H273395   4.983   2.426  14.122  0.3041  1.3315  1.0500
17302TIP3   OH273396   1.418   1.446  15.851 -0.0425 -0.1192  0.2798
17302TIP3    H173397   1.362   1.376  15.885  1.4872 -0.8010  1.5099
17302TIP3    H273398   1.504   1.406  15.841  0.7239  1.4150  0.4165
17303TIP3   OH273399   1.252   2.834   2.649 -0.6288 -0.1979  0.1120
17303TIP3    H173400   1.202   2.811   2.571 -1.9571 -0.3164  0.9557
17303TIP3    H273401   1.219   2.775   2.717  1.4919 -1.0566  0.4664
17304TIP3   OH273402   2.945   5.227   5.714 -0.3516 -0.3577 -0.2642
17304TIP3    H173403   2.988   5.217   5.629 -0.4314  0.6730 -0.4377
17304TIP3    H273404   2.878   5.294   5.700 -1.7833 -1.6509  0.0959
17305TIP3   OH273405   2.977   2.162  14.176 -0.0446 -0.3327  0.5431
17305TIP3    H173406   3.069   2.136  14.175  0.0161 -0.1233  0.5447
17305TIP3    H273407   2.976   2.247  14.131 -0.3529 -0.7067 -0.1659
17306TIP3   OH273408   1.857   1.684  12.461 -0.2760  0.1881 -0.2941
17306TIP3    H173409   1.762   1.683  12.449 -0.3033 -0.1628 -0.0706
17306TIP3    H273410   1.892   1.669  12.373 -0.4469 -0.5730 -0.2467
17307TIP3   OH273411   1.461   2.352   6.108 -0.0114 -0.6040 -0.6784
17307TIP3    H173412   1.447   2.405   6.186  0.1171 -0.6375 -0.6314
17307TIP3    H273413   1.373   2.331   6.077 -0.0726  0.0985 -1.0148
17308TIP3   OH273414   3.881   6.323  15.849  0.1123 -0.0555  0.1987
17308TIP3    H173415   3.824   6.258  15.891 -0.4608  2.0654  3.0943
17308TIP3    H273416   3.830   6.355  15.775 -0.1268 -1.9504 -0.4885
17309TIP3   OH273417   2.477   1.618  13.854  0.4473 -0.2126 -0.7770
17309TIP3    H173418   2.512   1.688  13.799 -1.2382  0.0672 -1.5320
17309TIP3    H273419   2.528   1.624  13.935  1.4151  0.8371 -1.4297
17310TIP3   OH273420   1.107   4.077  12.988 -0.2118 -0.5951 -0.2306
17310TIP3    H173421   1.110   4.158  12.937 -3.7912 -0.0233  0.1820
17310TIP3    H273422   1.172   4.089  13.057  0.8052  0.9904 -1.4013
17311TIP3   OH273423   6.170   4.321   4.990  0.2923 -0.1702 -0.2423
17311TIP3    H173424   6.141   4.234   4.960 -1.2426  0.9593 -2.2575
17311TIP3    H273425   6.190   4.308   5.083  0.1395 -2.6755 -0.4755
17312TIP3   OH273426   6.021   3.322  13.908 -0.2221  0.2371  0.1577
17312TIP3    H173427   6.001   3.393  13.848  0.4372  1.4201  1.2983
17312TIP3    H273428   5.985   3.349  13.992  2.5042  0.6221  1.3228
17313TIP3   OH273429   1.499   0.367   0.446  0.0317 -0.1487  0.1830
17313TIP3    H173430   1.478   0.460   0.455 -1.1112 -0.1423 -1.9116
17313TIP3    H273431   1.594   0.366   0.430  0.3792  0.4673  1.9343
17314TIP3   OH273432   1.228   2.983  16.341  0.1800  0.2857 -0.2380
17314TIP3    H173433   1.166   2.975  16.268  1.6678 -0.4980 -1.4792
17314TIP3    H273434   1.226   2.897  16.383  0.6769  0.1434 -0.5009
17315TIP3   OH273435   5.360   2.795   3.013  0.7379 -0.1898  0.0634
17315TIP3    H173436   5.428   2.729   3.025  2.4719  1.6095  0.5314
17315TIP3    H273437   5.386   2.843   2.935 -1.7766 -1.4361 -1.7240
17316TIP3   OH273438   5.979   2.700  11.695 -0.1608  0.2643 -0.2955
17316TIP3    H173439   6.068   2.701  11.662 -0.2720 -0.0892 -0.6187
17316TIP3    H273440   5.989   2.694  11.790  0.1643  2.3078 -0.1604
17317TIP3   OH273441   2.265   5.729   0.562 -0.4367  0.2637  0.3269
17317TIP3    H173442   2.195   5.679   0.520 -1.3950  1.8162 -0.0242
17317TIP3    H273443   2.270   5.810   0.512  4.2289 -1.1867 -2.0914
17318TIP3   OH273444   4.453   4.007  15.947  0.0510 -0.1935 -0.2563
17318TIP3    H173445   4.465   4.032  16.039 -0.8689 -1.6490  0.2937
17318TIP3    H273446   4.361   3.981  15.942 -0.1796  0.7903 -1.8461
17319TIP3   OH273447   4.623   5.952  14.534  0.1821 -0.0428  0.2363
17319TIP3    H173448   4.558   5.929  14.600 -0.1220 -0.4480 -0.1953
17319TIP3    H273449   4.645   6.043  14.552  2.0469 -0.8587  2.5332
17320TIP3   OH273450   3.990   0.383   3.900 -0.1112 -0.1255 -0.1664
17320TIP3    H173451   4.023   0.457   3.849  0.6494 -1.2465 -1.3740
17320TIP3    H273452   4.031   0.392   3.986 -0.0728  0.8672 -0.2779
17321TIP3   OH273453   4.518   2.640   2.689  0.0227  0.3833 -0.1361
17321TIP3    H173454   4.543   2.548   2.684 -3.1023 -0.5984 -0.1939
17321TIP3    H273455   4.549   2.669   2.775 -0.1197 -1.1541  0.4625
17322TIP3   OH273456   4.325   3.293  16.346 -0.0145 -0.2555 -0.1602
17322TIP3    H173457   4.373   3.318  16.266 -1.7255  0.6824 -0.9475
17322TIP3    H273458   4.394   3.273  16.409  1.4029 -1.0530 -1.8654
17323TIP3   OH273459   5.428   2.297   4.069  0.1322  0.9969 -0.1333
17323TIP3    H173460   5.358   2.272   4.009  1.3201  0.1960 -1.2623
17323TIP3    H273461   5.509   2.277   4.021  1.1381  1.3153  1.3418
17324TIP3   OH273462   2.284   2.755   3.765  0.1305 -0.2983 -0.0267
17324TIP3    H173463   2.220   2.788   3.701  0.2328 -0.8356 -0.4080
17324TIP3    H273464   2.353   2.716   3.711  0.6808  0.0851  0.3902
17325TIP3   OH273465   6.399   0.457   0.628 -0.0173  0.2316  0.0298
17325TIP3    H173466   6.403   0.464   0.533  1.9788 -0.5442  0.0143
17325TIP3    H273467   6.367   0.368   0.644 -2.8078  1.1637  0.1523
17326TIP3   OH273468   3.159   2.068   6.434 -0.3519  0.1959  0.0033
17326TIP3    H173469   3.168   2.151   6.387  2.3703  0.7255  1.2641
17326TIP3    H273470   3.249   2.043   6.456 -1.2111 -2.2669  1.0957
17327TIP3   OH273471   0.860   2.191  16.713 -0.5220  0.3367 -0.4816
17327TIP3    H173472   0.940   2.151  16.747 -1.0566 -0.6472 -0.3529
17327TIP3    H273473   0.799   2.191  16.787 -1.3665 -0.9252 -1.1316
17328TIP3   OH273474   2.089   5.059  13.355  0.1609  0.0165  0.4508
17328TIP3    H173475   2.012   5.008  13.381  0.9314 -0.7245  1.3459
17328TIP3    H273476   2.101   5.038  13.263 -0.0393 -0.7561  0.5940
17329TIP3   OH273477   2.222   4.202  14.828 -0.3330  0.3836  0.3312
17329TIP3    H173478   2.163   4.130  14.849 -1.4835  1.3060  0.3404
17329TIP3    H273479   2.275   4.214  14.907  0.4791 -0.9912  0.0323
17330TIP3   OH273480   1.833   6.004   2.261  0.6242  0.0997 -0.2533
17330TIP3    H173481   1.842   6.079   2.319 -0.7115 -0.4161  0.6948
17330TIP3    H273482   1.815   6.041   2.175  2.6657  0.8812 -0.3786
17331TIP3   OH273483   1.173   3.387  15.863 -0.3444  0.1608  0.2443
17331TIP3    H173484   1.179   3.365  15.956  1.1352  2.0940  0.6589
17331TIP3    H273485   1.237   3.457  15.851 -0.9033  0.3261 -2.1293
17332TIP3   OH273486   1.662   4.656   3.896  0.9860 -0.2185 -0.3131
17332TIP3    H173487   1.709   4.731   3.859 -0.7019  1.4468  0.7865
17332TIP3    H273488   1.651   4.596   3.822 -0.5935  2.1230 -2.1291
17333TIP3   OH273489   3.663   0.697   0.864  0.2524  0.5140 -0.1274
17333TIP3    H173490   3.611   0.740   0.932  0.1528 -0.0668  0.1697
17333TIP3    H273491   3.729   0.647   0.911 -0.7396 -1.1152 -0.3514
17334TIP3   OH273492   3.633   1.659   4.606  1.1211 -0.1724  0.1091
17334TIP3    H173493   3.687   1.589   4.642  2.1002  0.6686  0.3153
17334TIP3    H273494   3.661   1.738   4.653 -1.9187 -0.0324  1.9771
17335TIP3   OH273495   3.901   5.850  16.320  0.6405 -0.2213 -0.1545
17335TIP3    H173496   3.892   5.943  16.338  0.5346 -0.4120  0.8205
17335TIP3    H273497   3.816   5.812  16.345  0.5623 -0.5298 -0.8658
17336TIP3   OH273498   5.813   4.129   1.991  0.3471 -0.3074  0.1629
17336TIP3    H173499   5.904   4.157   1.996  0.5999 -1.1315  0.3821
17336TIP3    H273500   5.807   4.080   1.909  0.0747 -0.1653  0.0958
17337TIP3   OH273501   3.287   3.110   0.336  0.3837 -0.3776  0.3277
17337TIP3    H173502   3.285   3.135   0.244  2.3240  0.8650  0.5645
17337TIP3    H273503   3.325   3.022   0.336  2.9408  0.6508  0.0374
17338TIP3   OH273504   0.280   3.871  13.820  0.4700 -0.1334 -0.3751
17338TIP3    H173505   0.204   3.859  13.763 -0.9464  3.7276  0.3269
17338TIP3    H273506   0.244   3.862  13.909  1.4828 -1.0524 -0.0489
17339TIP3   OH273507   4.235   3.128  12.743  0.5497 -0.0998  0.1239
17339TIP3    H173508   4.273   3.201  12.794  1.0852  0.3700 -0.9148
17339TIP3    H273509   4.260   3.147  12.653 -2.1695  0.2300 -0.6595
17340TIP3   OH273510   1.267   3.289  13.793  0.0478  0.5264 -0.5022
17340TIP3    H173511   1.335   3.226  13.766  2.9451  3.0092  0.4411
17340TIP3    H273512   1.300   3.374  13.764 -2.4385  1.9554  0.5614
17341TIP3   OH273513   5.396   1.693   0.492  0.8339  0.3457  0.1095
17341TIP3    H173514   5.342   1.639   0.550  0.0690  2.3131  1.3298
17341TIP3    H273515   5.461   1.632   0.456  0.6628 -1.1828  2.1863
17342TIP3   OH273516   4.767   4.367   5.241 -0.5541  0.0538 -0.1182
17342TIP3    H173517   4.804   4.341   5.157 -0.1033  1.8218 -0.5130
17342TIP3    H273518   4.672   4.370   5.226 -0.6244 -1.1975 -0.0655
17343TIP3   OH273519   3.704   4.843   5.314  0.3130 -0.0002 -0.0353
17343TIP3    H173520   3.654   4.761   5.319 -0.6673  0.6582  2.4811
17343TIP3    H273521   3.761   4.841   5.391  0.5642  1.5173 -0.1531
17344TIP3   OH273522   6.318   6.636   2.422 -0.1033 -0.2601  0.3410
17344TIP3    H173523   6.272   6.655   2.340 -1.0862 -0.4049  0.8406
17344TIP3    H273524   6.405   6.674   2.410 -0.3836  0.1167 -0.5943
17345TIP3   OH273525   0.482   1.234   2.838 -0.9498  0.3264 -0.2874
17345TIP3    H173526   0.455   1.281   2.916 -2.7069 -1.1844  0.0797
17345TIP3    H273527   0.564   1.192   2.862 -0.6332  1.1842  0.1710
17346TIP3   OH273528   6.115   3.908  12.518 -0.1778 -0.6516 -0.4578
17346TIP3    H173529   6.135   3.820  12.550  0.8453 -0.4512 -0.5009
17346TIP3    H273530   6.187   3.962  12.552 -1.5869  0.4766  0.8744
17347TIP3   OH273531   0.294   2.034   5.490  0.0102  0.2261  0.1279
17347TIP3    H173532   0.208   2.050   5.452 -0.0483 -1.8298 -0.7459
17347TIP3    H273533   0.355   2.076   5.429 -0.3001  0.5377  0.0270
17348TIP3   OH273534   0.814   0.287   4.875  0.2448  0.2453 -0.2683
17348TIP3    H173535   0.738   0.276   4.817  0.4871 -2.1482 -0.2308
17348TIP3    H273536   0.841   0.198   4.895  2.9860  1.0334 -0.1455
17349TIP3   OH273537   6.054   6.054  14.442  0.4450 -0.5381 -0.2625
17349TIP3    H173538   6.076   6.098  14.359 -0.4080  1.5266  0.5578
17349TIP3    H273539   6.036   5.963  14.416  0.2820  0.0219 -2.3333
17350TIP3   OH273540   5.278   5.350   3.085  0.5359  0.3149  0.0321
17350TIP3    H173541   5.360   5.363   3.037 -0.4943 -1.8442 -2.6180
17350TIP3    H273542   5.213   5.334   3.016 -1.9630  1.0861  2.0706
17351TIP3   OH273543   0.878   6.365   1.114  0.1347 -0.5154 -0.1335
17351TIP3    H173544   0.856   6.398   1.027  0.2356  2.3560  0.8254
17351TIP3    H273545   0.797   6.372   1.164  0.3436 -1.0901  0.2951
17352TIP3   OH273546   5.393   4.131   3.474 -0.3345 -0.0187 -0.3740
17352TIP3    H173547   5.428   4.047   3.504  1.0594  1.4457  2.5404
17352TIP3    H273548   5.471   4.184   3.458 -1.0770  1.9137  1.8322
17353TIP3   OH273549   1.531   6.044   2.228 -0.2162  0.1253 -0.2419
17353TIP3    H173550   1.579   5.988   2.167  1.0976 -0.3796  1.1792
17353TIP3    H273551   1.506   5.985   2.300 -0.2506  1.0164  0.4929
17354TIP3   OH273552   5.246   3.353  16.147  0.4863  1.0668  0.1821
17354TIP3    H173553   5.258   3.414  16.074  2.0333  1.5333  0.7803
17354TIP3    H273554   5.300   3.388  16.217  0.2823 -0.2295  1.0335
17355TIP3   OH273555   3.750   4.999  12.892  0.3852 -0.2559 -0.9567
17355TIP3    H173556   3.834   5.010  12.849 -0.1937 -2.1675 -2.7353
17355TIP3    H273557   3.751   4.910  12.927 -0.3667  0.1894  0.2938
17356TIP3   OH273558   0.492   4.606  11.763 -0.3968  0.3955  0.7081
17356TIP3    H173559   0.582   4.628  11.741 -0.4053  0.8751  1.1481
17356TIP3    H273560   0.467   4.541  11.697  0.5773 -0.4637  1.1590
17357TIP3   OH273561   5.439   6.473  16.540  0.3580 -0.1853 -0.2094
17357TIP3    H173562   5.510   6.511  16.593  1.0590 -1.1054 -0.4730
17357TIP3    H273563   5.415   6.393  16.586 -1.7499  0.9651  0.8409
17358TIP3   OH273564   5.516   5.693   1.292  0.1033 -0.5668  0.2530
17358TIP3    H173565   5.529   5.727   1.380  2.8575  2.0321 -0.9748
17358TIP3    H273566   5.446   5.746   1.255  0.4763 -0.0987  0.2033
17359TIP3   OH273567   4.868   1.340   5.707 -0.3506 -0.4597  0.1289
17359TIP3    H173568   4.929   1.297   5.766  0.3079 -0.2778 -0.4160
17359TIP3    H273569   4.878   1.433   5.725  0.5687 -0.3371 -0.9462
17360TIP3   OH273570   1.898   3.867  16.936 -0.7375 -0.4866  0.0672
17360TIP3    H173571   1.960   3.794  16.933 -0.7554 -0.5230  0.5357
17360TIP3    H273572   1.952   3.944  16.954 -0.7290 -0.3889 -0.3484
17361TIP3   OH273573   4.566   3.865  11.908  0.4026 -0.3230  0.4321
17361TIP3    H173574   4.549   3.922  11.833 -0.5896 -1.1666  0.0042
17361TIP3    H273575   4.531   3.914  11.983 -1.4506 -0.7972 -0.0690
17362TIP3   OH273576   6.588   4.984   2.710 -0.1406 -0.1754 -0.5848
17362TIP3    H173577   6.517   4.998   2.648  0.8697  1.1472 -1.4713
17362TIP3    H273578   6.647   4.924   2.665  1.8515  2.6745 -2.0552
17363TIP3   OH273579   4.499   4.203   0.068 -0.2116 -0.1090 -0.0103
17363TIP3    H173580   4.432   4.202  -0.000 -1.6924  0.7550  1.3699
17363TIP3    H273581   4.549   4.283   0.050 -0.2323 -0.1793 -0.4068
17364TIP3   OH273582   3.063   2.220   4.557  0.0374  0.0714 -0.2487
17364TIP3    H173583   3.031   2.278   4.626 -0.3872 -0.2448 -0.1766
17364TIP3    H273584   3.050   2.132   4.591  0.3333 -0.0786 -0.5112
17365TIP3   OH273585   5.498   4.820   5.054 -0.3932 -0.0141  0.3467
17365TIP3    H173586   5.556   4.792   4.983 -0.1567 -0.5075  0.7180
17365TIP3    H273587   5.410   4.801   5.023 -0.2604 -0.7795  0.4046
17366TIP3   OH273588   4.777   6.206   5.920  0.4948  0.1445  0.2175
17366TIP3    H173589   4.706   6.234   5.863  0.2793  1.4046  1.0754
17366TIP3    H273590   4.798   6.117   5.890 -0.1559  0.4684 -1.2634
17367TIP3   OH273591   1.129   2.925  13.801  0.1822 -0.3212 -0.4583
17367TIP3    H173592   1.098   2.838  13.825  0.6002 -0.8721 -1.7971
17367TIP3    H273593   1.050   2.977  13.794 -0.0662 -0.5633  0.4402
17368TIP3   OH273594   1.332   0.286   0.235  0.2001  0.2243  0.6630
17368TIP3    H173595   1.375   0.287   0.321 -0.4759 -0.2285  1.0113
17368TIP3    H273596   1.388   0.342   0.180  0.1799  1.2286  1.6162
17369TIP3   OH273597   4.464   0.426  11.890  0.3951 -0.5048 -0.4140
17369TIP3    H173598   4.401   0.410  11.819  0.0858  0.2974 -0.3341
17369TIP3    H273599   4.419   0.395  11.969 -0.9445  2.2217  0.0084
17370TIP3   OH273600   3.431   3.903   0.560  0.5639  0.3110 -0.2980
17370TIP3    H173601   3.519   3.908   0.599  0.9775 -0.6427 -1.0633
17370TIP3    H273602   3.423   3.984   0.510  0.5793  0.8911  0.6120
17371TIP3   OH273603   1.933   3.809  15.078 -0.1410  0.3132 -0.0404
17371TIP3    H173604   1.969   3.741  15.021  0.3402 -0.6983  1.4175
17371TIP3    H273605   1.845   3.778  15.100 -0.8768  1.3980 -1.3267
17372TIP3   OH273606   6.072   1.963  12.884  0.4930  0.0166  0.2323
17372TIP3    H173607   6.147   1.994  12.834 -0.7856  0.7243 -1.3134
17372TIP3    H273608   5.998   1.970  12.824 -0.5956 -1.9851  1.2390
17373TIP3   OH273609   0.078   3.200  15.580 -0.3268  0.4172 -0.1719
17373TIP3    H173610  -0.016   3.193  15.599 -0.4573 -0.3902 -1.0349
17373TIP3    H273611   0.090   3.291  15.551 -0.9157  0.4102 -0.4457
17374TIP3   OH273612   5.698   3.642   3.946 -0.4689  0.2621  0.2472
17374TIP3    H173613   5.717   3.558   3.988 -2.0860 -1.9578 -3.0417
17374TIP3    H273614   5.783   3.671   3.911 -0.3875 -1.8442 -1.4773
17375TIP3   OH273615   3.144   5.899   1.777 -0.0554 -0.2416  0.3423
17375TIP3    H173616   3.060   5.945   1.771 -0.1194  0.0069  2.3414
17375TIP3    H273617   3.178   5.922   1.863  0.7302 -2.6015  0.7486
17376TIP3   OH273618   2.140   2.450   0.566 -0.5290  0.4679  0.1804
17376TIP3    H173619   2.234   2.461   0.554 -0.3300  0.0776  1.2429
17376TIP3    H273620   2.107   2.538   0.580 -0.1936  0.5315  0.5866
17377TIP3   OH273621   3.123   4.876   4.462  0.1058 -0.2667 -0.1081
17377TIP3    H173622   3.190   4.837   4.517 -0.8498 -2.6309 -0.4839
17377TIP3    H273623   3.168   4.898   4.380  0.4215 -2.2212 -0.5234
17378TIP3   OH273624   4.246   0.424   5.577 -0.1745 -0.0174  0.3151
17378TIP3    H173625   4.270   0.498   5.632  2.8205 -1.1385  0.7096
17378TIP3    H273626   4.318   0.416   5.514 -1.3496 -1.4380 -0.9499
17379TIP3   OH273627   2.576   1.658  11.463 -0.0207 -0.2312  0.1650
17379TIP3    H173628   2.482   1.668  11.448  0.0029 -1.4367 -0.9349
17379TIP3    H273629   2.608   1.748  11.474 -1.1045  0.2927 -0.7301
17380TIP3   OH273630   5.207   4.806  12.895 -0.1776 -0.2594  0.1446
17380TIP3    H173631   5.302   4.811  12.889 -0.1503  0.5146  0.9293
17380TIP3    H273632   5.182   4.883  12.947 -1.1449 -0.9742  0.7856
17381TIP3   OH273633   1.046   0.408  11.948 -0.4052 -0.5431 -0.8903
17381TIP3    H173634   0.979   0.370  12.005 -0.4625  1.4983  0.5244
17381TIP3    H273635   1.113   0.339  11.941 -1.5876 -1.7832 -0.4746
17382TIP3   OH273636   3.282   0.085   1.666  0.1573 -0.0848  0.3552
17382TIP3    H173637   3.367   0.129   1.659 -0.0468  0.0997 -1.7830
17382TIP3    H273638   3.218   0.153   1.649 -0.3834 -0.4307  0.9599
17383TIP3   OH273639   6.322   4.754  14.601 -0.2509  0.1701 -0.2021
17383TIP3    H173640   6.313   4.703  14.682  0.8372 -0.2174 -0.3094
17383TIP3    H273641   6.316   4.845  14.629 -2.5627  0.0204 -0.0452
17384TIP3   OH273642   0.298   3.338   3.775 -0.3312  0.0589 -0.3562
17384TIP3    H173643   0.269   3.292   3.853  2.1061  0.0457  0.6330
17384TIP3    H273644   0.388   3.364   3.794 -0.5770  2.5563 -2.0661
17385TIP3   OH273645   0.459   1.397   4.264  0.8809  0.3213 -0.0335
17385TIP3    H173646   0.382   1.340   4.277  0.4627  0.2120 -2.4568
17385TIP3    H273647   0.468   1.444   4.346 -0.5519 -1.1406  1.0369
17386TIP3   OH273648   0.876   0.880   1.363 -0.2749  0.0855 -0.1030
17386TIP3    H173649   0.933   0.863   1.438 -1.8428  1.5337  1.5089
17386TIP3    H273650   0.815   0.807   1.363  0.1927 -0.3136 -0.4665
17387TIP3   OH273651   5.460   4.164  15.328 -0.0399 -0.5531 -0.0471
17387TIP3    H173652   5.477   4.070  15.339  0.4034 -0.2470  2.5227
17387TIP3    H273653   5.377   4.168  15.281 -0.2578 -2.2518  0.1370
17388TIP3   OH273654   4.700   0.231  14.314  0.0192  0.0426 -0.5037
17388TIP3    H173655   4.689   0.153  14.261  0.7027 -0.0820 -0.4699
17388TIP3    H273656   4.696   0.199  14.404  0.3556  0.0351 -0.4900
17389TIP3   OH273657   3.630   6.138   1.916  0.6776  0.1347 -0.3769
17389TIP3    H173658   3.602   6.189   1.992  2.8857  0.3406  0.3752
17389TIP3    H273659   3.653   6.203   1.851  1.5604  0.0602 -0.1497
17390TIP3   OH273660   4.307   1.587  15.548  0.1458  0.6844  0.1528
17390TIP3    H173661   4.226   1.602  15.500 -0.4118  0.1149  0.8886
17390TIP3    H273662   4.343   1.674  15.565 -1.3538  1.0787  1.5530
17391TIP3   OH273663   1.148   5.429   5.833  0.3846 -0.1848  0.1428
17391TIP3    H173664   1.208   5.430   5.909  1.8532  0.0859 -0.9752
17391TIP3    H273665   1.145   5.337   5.807  2.1736  0.0707 -1.1605
17392TIP3   OH273666   0.316   2.992   5.734 -0.0771 -0.1202 -0.1988
17392TIP3    H173667   0.294   3.084   5.720 -0.9594  0.0497  1.8613
17392TIP3    H273668   0.387   2.994   5.798 -0.0528 -0.8607 -0.1946
17393TIP3   OH273669   2.251   0.485  17.219  0.4862  0.2907  0.0710
17393TIP3    H173670   2.271   0.568  17.262  1.4673 -0.5329  1.3085
17393TIP3    H273671   2.155   0.482  17.215  0.3496  0.4702  2.1411
17394TIP3   OH273672   5.387   4.396   5.148 -0.2466  0.0339 -0.6015
17394TIP3    H173673   5.404   4.479   5.193 -0.2182  0.7751 -1.9151
17394TIP3    H273674   5.456   4.390   5.082 -0.6619 -0.6778 -0.9791
17395TIP3   OH273675   6.393   1.866   2.569 -0.2971 -0.9196 -0.3861
17395TIP3    H173676   6.373   1.838   2.480  1.0177 -0.7132 -0.7622
17395TIP3    H273677   6.412   1.959   2.562 -0.0658 -0.9266  0.0831
17396TIP3   OH273678   5.638   2.185  11.629  0.2041  0.2733  0.5583
17396TIP3    H173679   5.617   2.150  11.715  1.4113  0.5997  1.0001
17396TIP3    H273680   5.721   2.231  11.641  0.0090  0.9829 -0.6092
17397TIP3   OH273681   4.534   0.884   4.847 -0.0734  0.3491 -0.0758
17397TIP3    H173682   4.552   0.883   4.753  1.4360 -2.3081  0.1341
17397TIP3    H273683   4.621   0.877   4.888 -0.8609 -2.5969  1.3482
17398TIP3   OH273684   5.778   6.495  10.775 -0.0633  0.6357 -0.0534
17398TIP3    H173685   5.786   6.588  10.755 -0.6582  0.4147 -1.4637
17398TIP3    H273686   5.857   6.474  10.825 -0.4557  2.1112  1.2444
17399TIP3   OH273687   6.519   1.471   5.041 -0.1929  0.1094 -0.2878
17399TIP3    H173688   6.541   1.556   5.002 -0.6376  0.3571 -0.0154
17399TIP3    H273689   6.527   1.485   5.135 -0.1181 -0.1977 -0.2476
17400TIP3   OH273690   0.815   4.311   3.614  0.7192 -0.3187 -0.8122
17400TIP3    H173691   0.813   4.338   3.522  2.5595 -1.1974 -1.1605
17400TIP3    H273692   0.807   4.216   3.611  1.6935 -0.4288 -0.1392
17401TIP3   OH273693   3.040   2.748  11.444 -0.8209 -0.6215  0.2342
17401TIP3    H173694   2.977   2.786  11.505 -3.4852 -1.8762 -1.4948
17401TIP3    H273695   3.013   2.781  11.358  1.4478 -0.5958 -0.5363
17402TIP3   OH273696   1.113   2.083   6.165 -0.1307 -0.0180  0.0693
17402TIP3    H173697   1.141   2.132   6.087 -0.0386  2.8097  1.7306
17402TIP3    H273698   1.173   2.009   6.169  0.8870  0.6281 -1.6754
17403TIP3   OH273699   1.400   1.164  11.805 -0.3766 -0.3935 -0.0407
17403TIP3    H173700   1.441   1.220  11.871  0.0225  0.9670 -1.3927
17403TIP3    H273701   1.308   1.160  11.831 -0.3278  0.5420  0.3192
17404TIP3   OH273702   5.279   3.762  13.262  0.3164 -0.4722 -0.2089
17404TIP3    H173703   5.236   3.845  13.283  0.5388 -0.5332  0.5294
17404TIP3    H273704   5.357   3.761  13.318  0.8071 -0.7622 -0.8869
17405TIP3   OH273705   2.766   2.958   2.523  0.5347  0.7717  0.1090
17405TIP3    H173706   2.747   2.926   2.611  0.9140  0.7250  0.1735
17405TIP3    H273707   2.717   3.040   2.516 -0.2717  0.2903  0.0192
17406TIP3   OH273708   5.645   1.745  11.370 -0.2092  0.1784  0.2264
17406TIP3    H173709   5.597   1.815  11.413 -1.0629  0.4904 -1.1505
17406TIP3    H273710   5.633   1.762  11.276 -1.1029 -2.1998 -0.1838
17407TIP3   OH273711   6.292   2.408   5.445  0.1218  0.4589  0.6932
17407TIP3    H173712   6.361   2.462   5.406  0.3041  0.7869  1.4582
17407TIP3    H273713   6.241   2.469   5.499  1.2444 -0.3762  2.7993
17408TIP3   OH273714   0.336   2.423  14.251  0.2732 -0.4699  0.3494
17408TIP3    H173715   0.260   2.410  14.307 -1.3568  0.9965 -1.3852
17408TIP3    H273716   0.371   2.508  14.277 -0.3224  0.0882 -0.6082
17409TIP3   OH273717   5.505   3.522   4.766  0.6207  0.0645 -0.2032
17409TIP3    H173718   5.448   3.456   4.807  2.4325 -0.4741  1.5895
17409TIP3    H273719   5.462   3.542   4.683 -1.6771 -0.9879  0.6482
17410TIP3   OH273720   3.999   6.745   5.654  0.3878 -0.7179  0.3195
17410TIP3    H173721   4.072   6.740   5.716  1.0287  0.7744 -0.2826
17410TIP3    H273722   4.010   6.830   5.610 -2.0038 -0.2321  0.5671
17411TIP3   OH273723   1.594   3.465  15.640  0.2231 -0.0021 -0.3036
17411TIP3    H173724   1.679   3.422  15.629 -0.4663 -1.4610 -0.2045
17411TIP3    H273725   1.549   3.412  15.706 -0.8937  0.5481 -0.5980
17412TIP3   OH273726   2.625   5.694   1.692 -0.1988 -0.2522  0.3832
17412TIP3    H173727   2.551   5.711   1.750  1.0271 -0.3108  2.0556
17412TIP3    H273728   2.700   5.683   1.751  0.9009 -1.6076 -1.1477
17413TIP3   OH273729   4.538   6.084  11.748 -0.2995 -0.2344 -0.0974
17413TIP3    H173730   4.484   6.129  11.813  2.0789  2.7125  0.1138
17413TIP3    H273731   4.541   6.144  11.674  3.2180  0.2683  0.2500
17414TIP3   OH273732   1.612   4.316   3.154  0.0943  0.1239  0.0345
17414TIP3    H173733   1.616   4.252   3.083  1.9280  0.9009 -0.6499
17414TIP3    H273734   1.593   4.399   3.110 -0.6570  0.3191  0.7099
17415TIP3   OH273735   1.983   1.663   0.305 -0.0531  0.0976 -0.3727
17415TIP3    H173736   2.077   1.680   0.302 -0.2653  1.1943 -1.7910
17415TIP3    H273737   1.972   1.578   0.262  0.2099  0.3182 -0.8745
17416TIP3   OH273738   0.215   1.426   0.552 -0.1098 -0.0587  0.6510
17416TIP3    H173739   0.223   1.482   0.629  1.1984  0.4563  0.1761
17416TIP3    H273740   0.135   1.455   0.509  1.7794  3.3489 -0.9786
17417TIP3   OH273741   0.104   1.583   1.775  0.8354  1.0726  0.1890
17417TIP3    H173742   0.200   1.584   1.778  0.8917  0.2002 -0.7777
17417TIP3    H273743   0.078   1.568   1.866  1.6816 -0.5026  0.2248
17418TIP3   OH273744   0.192   2.926   0.609  0.2925 -0.0068 -0.2003
17418TIP3    H173745   0.112   2.976   0.593  0.4970 -0.5560 -3.6179
17418TIP3    H273746   0.261   2.976   0.566  1.3521 -0.8506  0.4619
17419TIP3   OH273747   0.109   0.447  13.413 -0.2208 -0.1167 -0.0978
17419TIP3    H173748   0.052   0.419  13.342  0.8399  1.4179 -1.6405
17419TIP3    H273749   0.198   0.436  13.378  0.3538  0.1479  1.2103
17420TIP3   OH273750   6.678   0.385   1.951 -0.2334 -0.2036 -0.3930
17420TIP3    H173751   6.590   0.365   1.984  0.1184 -1.2535 -0.0510
17420TIP3    H273752   6.677   0.480   1.936 -0.7775  0.1467  1.5873
17421TIP3   OH273753   1.942   6.119  16.671  0.6393  0.3313  0.7857
17421TIP3    H173754   2.009   6.147  16.732 -0.1246 -0.4781  2.0294
17421TIP3    H273755   1.980   6.135  16.584  1.7240  1.5112  1.4524
17422TIP3   OH273756   1.324   5.897   2.994  0.1975  0.0222 -0.2014
17422TIP3    H173757   1.388   5.960   3.027  0.0912  0.3684 -0.6395
17422TIP3    H273758   1.274   5.946   2.929 -0.3980 -0.2954  0.0081
17423TIP3   OH273759   1.976   2.123  14.213 -0.4043  0.1627  0.1837
17423TIP3    H173760   2.045   2.059  14.228  0.0698  0.3975 -0.8847
17423TIP3    H273761   1.988   2.150  14.122 -0.8355  1.4797  0.4984
17424TIP3   OH273762   4.597   4.009   3.906 -0.0179 -0.7426 -0.7093
17424TIP3    H173763   4.667   4.058   3.950 -0.1307  0.0637 -1.3958
17424TIP3    H273764   4.614   3.918   3.929 -0.9433 -0.2692  2.2502
17425TIP3   OH273765   2.108   1.202   0.408 -0.4465 -0.1940 -0.3755
17425TIP3    H173766   2.101   1.282   0.460 -1.4226 -0.0403 -0.7171
17425TIP3    H273767   2.065   1.135   0.462  0.9903 -0.6670  0.2251
17426TIP3   OH273768   1.469   0.229  15.380  0.0281 -0.3020  0.1991
17426TIP3    H173769   1.449   0.273  15.298  0.5971 -1.5795 -0.6532
17426TIP3    H273770   1.406   0.157  15.385  1.3929 -1.5719 -0.2453
17427TIP3   OH273771   6.168   2.366   6.202  0.3724 -0.0375 -0.4596
17427TIP3    H173772   6.171   2.454   6.241 -0.5291 -0.1838 -0.0580
17427TIP3    H273773   6.180   2.382   6.108  1.0014  0.4441 -0.3063
17428TIP3   OH273774   3.775   1.388  13.040 -0.4249 -0.4933  0.2864
17428TIP3    H173775   3.784   1.304  12.995 -1.4481 -0.7205  0.5014
17428TIP3    H273776   3.684   1.392  13.067 -0.0485  0.0549  1.5542
17429TIP3   OH273777   0.795   1.914   4.047  0.0139  0.3250  0.8851
17429TIP3    H173778   0.869   1.965   4.016  0.1036 -1.5272 -2.3137
17429TIP3    H273779   0.825   1.875   4.129  1.7968  1.1792  0.6702
17430TIP3   OH273780   4.097   5.385   5.931 -0.5449  0.2704 -0.1426
17430TIP3    H173781   4.108   5.317   5.997 -1.4664 -0.0759 -0.3246
17430TIP3    H273782   4.056   5.457   5.977 -1.9399 -0.2718 -0.4763
17431TIP3   OH273783   0.219   2.014   3.598 -1.1214  0.2146  0.0850
17431TIP3    H173784   0.293   2.035   3.656 -2.3870  0.3546  1.7273
17431TIP3    H273785   0.240   2.058   3.516  1.7118 -1.6022 -0.3323
17432TIP3   OH273786   1.651   4.242  14.833  1.1866  0.2974 -0.0863
17432TIP3    H173787   1.634   4.160  14.881  1.6693  0.6350  0.6876
17432TIP3    H273788   1.731   4.224  14.784  0.1837 -0.3656 -1.5473
17433TIP3   OH273789   6.677   1.147   3.266  0.3433  0.1797  0.3186
17433TIP3    H173790   6.721   1.232   3.261  0.8163  0.0575  1.9438
17433TIP3    H273791   6.683   1.121   3.358  1.0391 -2.0500 -0.2696
17434TIP3   OH273792   1.015   0.195  14.141 -0.4741  0.5610 -0.6539
17434TIP3    H173793   0.951   0.223  14.205  1.3205  2.0043  0.6101
17434TIP3    H273794   0.978   0.115  14.103 -1.5010 -0.5508  2.3793
17435TIP3   OH273795   0.471   1.493  15.947  0.0828 -0.0162 -0.5325
17435TIP3    H173796   0.377   1.474  15.956 -0.6134  2.3127 -1.9238
17435TIP3    H273797   0.488   1.488  15.853  1.2617  0.0099 -0.3363
17436TIP3   OH273798   3.506   4.756   1.611 -0.2460 -0.3465  0.1725
17436TIP3    H173799   3.585   4.701   1.614 -0.1143 -0.4633 -2.7246
17436TIP3    H273800   3.459   4.734   1.692 -0.4987 -5.2433 -0.9957
17437TIP3   OH273801   3.708   1.170  12.189 -0.5820  0.2893  0.2289
17437TIP3    H173802   3.769   1.139  12.256 -2.3233  0.0445  1.7736
17437TIP3    H273803   3.622   1.160  12.228 -1.7351 -0.3687 -2.2750
17438TIP3   OH273804   3.729   2.939  15.323  0.9748  0.3423 -0.0367
17438TIP3    H173805   3.760   2.849  15.338 -1.6093 -0.5680  0.3563
17438TIP3    H273806   3.676   2.933  15.243  0.2873  1.3937  0.3185
17439TIP3   OH273807   0.278   2.305   4.018 -0.0203  0.1869 -0.7964
17439TIP3    H173808   0.283   2.232   3.957 -1.2281 -0.6034  0.0072
17439TIP3    H273809   0.364   2.307   4.061  0.3043 -0.2072 -1.4114
17440TIP3   OH273810   6.648   2.391   3.120 -0.4557  0.0304  0.0745
17440TIP3    H173811   6.622   2.481   3.136 -0.6161 -0.0592  0.3155
17440TIP3    H273812   6.743   2.396   3.104 -0.1273  0.0297  1.8733
17441TIP3   OH273813   6.068   4.167   6.316  0.4014 -0.2789 -0.0238
17441TIP3    H173814   6.117   4.148   6.237  0.9852  0.0773  0.2497
17441TIP3    H273815   6.103   4.106   6.381  0.1860 -0.3086  0.0676
17442TIP3   OH273816   5.761   4.383   5.080  0.0280 -0.9357 -0.6576
17442TIP3    H173817   5.740   4.341   5.164 -1.7361 -3.0890 -2.0631
17442TIP3    H273818   5.683   4.371   5.027  0.2940  2.2359 -2.0021
17443TIP3   OH273819   3.677   2.993   0.861  0.4654 -0.6384  0.0191
17443TIP3    H173820   3.760   3.022   0.823 -0.6245  0.6903 -1.4438
17443TIP3    H273821   3.673   3.036   0.947  0.9747 -0.1837 -0.1838
17444TIP3   OH273822   1.714   2.600   2.656 -0.1423 -0.0375  0.0198
17444TIP3    H173823   1.732   2.658   2.729 -2.3811 -2.4155  2.7333
17444TIP3    H273824   1.774   2.527   2.667 -1.3060 -0.9948  0.2872
17445TIP3   OH273825   1.466   0.637  14.233  0.6362 -0.3495  0.5578
17445TIP3    H173826   1.425   0.577  14.295  0.4361 -0.1431  0.6272
17445TIP3    H273827   1.412   0.629  14.154 -1.4150  2.1043  1.5555
17446TIP3   OH273828   0.502   3.589   0.452 -0.4278 -0.1211 -0.3222
17446TIP3    H173829   0.513   3.682   0.473 -1.0847  0.0947 -0.9130
17446TIP3    H273830   0.464   3.588   0.364  0.0145 -0.9626 -0.5148
17447TIP3   OH273831   0.437   3.299  15.983  0.2901 -0.2235  0.0841
17447TIP3    H173832   0.478   3.337  16.061  0.5247 -1.0548  0.3708
17447TIP3    H273833   0.472   3.351  15.910 -1.4034  1.8628  0.6426
17448TIP3   OH273834   0.763   2.393   2.175  0.2087  0.2913 -0.2968
17448TIP3    H173835   0.687   2.450   2.170  0.1653  0.1951 -0.7714
17448TIP3    H273836   0.730   2.306   2.152  0.9853  0.7245 -3.5305
17449TIP3   OH273837   2.428   6.649   2.263 -0.1790 -0.1918 -0.3410
17449TIP3    H173838   2.368   6.603   2.205 -2.4117  0.3404  1.4145
17449TIP3    H273839   2.458   6.582   2.325  0.4453 -0.2868 -0.7368
17450TIP3   OH273840   2.390   0.881  16.253 -0.0478 -0.1073 -0.1422
17450TIP3    H173841   2.453   0.932  16.203  0.8639  0.8474  1.8434
17450TIP3    H273842   2.404   0.791  16.224  2.2638  0.0720  0.2109
17451TIP3   OH273843   6.229   3.506  13.120  0.1439 -0.0069  0.1797
17451TIP3    H173844   6.324   3.499  13.126  0.0325 -0.3506  2.4794
17451TIP3    H273845   6.203   3.556  13.197 -1.4920  0.8534 -0.8705
17452TIP3   OH273846   4.182   6.728   4.950  0.3026 -0.1375 -0.0532
17452TIP3    H173847   4.224   6.669   5.013 -0.9290  0.3114  1.2666
17452TIP3    H273848   4.163   6.673   4.874 -0.4623 -1.3814  0.9970
17453TIP3   OH273849   3.798   3.266   4.993 -0.1440  0.0612 -0.3260
17453TIP3    H173850   3.752   3.340   4.953  0.8180  0.3325 -0.9461
17453TIP3    H273851   3.891   3.285   4.980  0.1155 -1.3165 -0.5825
17454TIP3   OH273852   5.986   3.680   0.718 -0.0572  0.3076  0.1225
17454TIP3    H173853   5.923   3.739   0.759  0.5109  0.7038  0.4480
17454TIP3    H273854   5.986   3.602   0.773  0.4530  0.7019  0.7059
17455TIP3   OH273855   3.411   6.427   1.057 -0.0700  0.0982  0.4235
17455TIP3    H173856   3.443   6.517   1.053  0.3389 -0.0160  0.9042
17455TIP3    H273857   3.347   6.421   0.987 -0.7576  1.0160  0.9453
17456TIP3   OH273858   0.942   5.840   6.266  0.2684 -0.1052 -0.0382
17456TIP3    H173859   0.951   5.780   6.340 -0.3230  1.7689  1.6495
17456TIP3    H273860   1.015   5.901   6.276  0.5303 -0.1560 -1.3928
17457TIP3   OH273861   0.677   5.947   2.714  0.1937  0.1621  0.0011
17457TIP3    H173862   0.747   5.983   2.659  0.0949  1.3960  0.6401
17457TIP3    H273863   0.672   5.855   2.690  1.9323  0.0835 -0.1889
17458TIP3   OH273864   3.356   3.933   5.674 -0.2771  0.4234 -0.2101
17458TIP3    H173865   3.394   3.997   5.734  0.1189 -0.3646  0.3857
17458TIP3    H273866   3.265   3.961   5.664 -0.4976  0.2659  1.1721
17459TIP3   OH273867   6.238   4.324  16.956 -0.0129  0.8572 -0.1610
17459TIP3    H173868   6.186   4.329  16.876  2.1186  0.2664 -1.6768
17459TIP3    H273869   6.195   4.258  17.010 -1.6380  1.4665 -0.6540
17460TIP3   OH273870   2.020   2.405   2.888  0.7771 -0.4297 -0.1375
17460TIP3    H173871   1.984   2.412   2.800  0.2366  3.1364  0.2216
17460TIP3    H273872   1.945   2.414   2.946  1.2613 -1.6263  0.7150
17461TIP3   OH273873   4.661   5.031   0.321  0.7261 -0.3650 -0.1352
17461TIP3    H173874   4.632   4.939   0.320  2.9620 -1.1552 -1.4309
17461TIP3    H273875   4.602   5.074   0.382 -0.9058 -2.4963 -0.0638
17462TIP3   OH273876   5.344   3.575   4.505  0.0923  0.0137 -0.3806
17462TIP3    H173877   5.427   3.590   4.460 -0.7131  1.7788 -1.3904
17462TIP3    H273878   5.324   3.483   4.489  0.6723  0.1742 -2.1951
17463TIP3   OH273879   6.771   1.818  14.727 -0.5469  0.1882 -0.3511
17463TIP3    H173880   6.694   1.772  14.762 -1.0900 -0.0268 -1.7745
17463TIP3    H273881   6.846   1.773  14.767 -1.0457 -2.0320 -1.7499
17464TIP3   OH273882   5.751   4.843   4.519  0.1849  0.0822 -0.3275
17464TIP3    H173883   5.657   4.828   4.525  0.0505  0.4078 -1.4151
17464TIP3    H273884   5.790   4.772   4.570 -0.5529 -1.6193 -2.0100
17465TIP3   OH273885   6.085   4.238  15.117 -0.6633  0.0959  0.0798
17465TIP3    H173886   6.153   4.301  15.095  0.2498 -1.7314 -2.9091
17465TIP3    H273887   6.010   4.261  15.062 -1.2639  0.1005  0.8790
17466TIP3   OH273888   4.575   1.859  12.038  0.3779 -0.8257  0.0089
17466TIP3    H173889   4.506   1.801  12.005 -0.7090 -0.2344  1.1587
17466TIP3    H273890   4.585   1.836  12.130 -0.1631  0.8400  0.5268
17467TIP3   OH273891   4.436   0.577   0.466 -0.0823  0.3649 -0.1580
17467TIP3    H173892   4.459   0.633   0.391  0.1827 -0.3007 -0.5824
17467TIP3    H273893   4.517   0.568   0.516 -0.0250  0.0432 -0.3052
17468TIP3   OH273894   5.613   4.833  16.814 -0.5141  0.1261  0.0314
17468TIP3    H173895   5.668   4.845  16.891 -2.6228  0.1752  1.6069
17468TIP3    H273896   5.614   4.738  16.799  1.1586  0.2540 -0.9086
17469TIP3   OH273897   2.287   5.782  16.007  0.1331  0.0842  0.5314
17469TIP3    H173898   2.220   5.851  16.002  1.1886  1.0841 -0.0596
17469TIP3    H273899   2.345   5.798  15.933  0.7728 -1.0661  0.7547
17470TIP3   OH273900   6.001   3.321  16.003  0.0907  0.6583  0.4021
17470TIP3    H173901   6.038   3.388  15.946  1.4894 -1.4740 -1.3896
17470TIP3    H273902   6.077   3.284  16.048 -0.5733 -0.0494  0.9676
17471TIP3   OH273903   3.241   3.637  11.450  0.1434 -0.0622 -0.2223
17471TIP3    H173904   3.197   3.570  11.398  0.7807 -1.3961  0.8825
17471TIP3    H273905   3.193   3.717  11.432 -0.0520 -0.6046 -2.3265
17472TIP3   OH273906   5.778   5.566   3.361  0.2808  0.2157 -1.1742
17472TIP3    H173907   5.869   5.549   3.386 -0.0248  0.1410 -0.0154
17472TIP3    H273908   5.730   5.493   3.399 -0.5384  1.4390  0.2812
17473TIP3   OH273909   2.661   6.501   0.709  0.4950 -0.1857  0.2104
17473TIP3    H173910   2.614   6.419   0.727  0.6635 -0.2908  0.1796
17473TIP3    H273911   2.657   6.511   0.614 -0.2164  0.2616  0.2776
17474TIP3   OH273912   4.818   4.442  16.394 -0.7384  0.3221 -0.2517
17474TIP3    H173913   4.887   4.463  16.331 -0.1768  1.1880  0.6346
17474TIP3    H273914   4.859   4.450  16.479 -1.3689 -1.2912  0.2488
17475TIP3   OH273915   0.359   1.509  12.925 -0.2324  0.1341  0.3133
17475TIP3    H173916   0.363   1.520  13.020  0.1833 -1.8571  0.5697
17475TIP3    H273917   0.320   1.423  12.913 -0.3160  0.3794 -1.3430
17476TIP3   OH273918   0.260   4.711  11.905  0.2110  0.5760  0.2605
17476TIP3    H173919   0.186   4.719  11.845 -0.1932 -1.7211  0.3562
17476TIP3    H273920   0.333   4.683  11.850  0.3410  0.3437  0.5501
17477TIP3   OH273921   3.292   5.676   3.266  0.1861  0.2734  0.6095
17477TIP3    H173922   3.355   5.604   3.251 -0.0104  0.3532 -0.7442
17477TIP3    H273923   3.287   5.684   3.361  1.1351 -0.7020  0.7650
17478TIP3   OH273924   2.099   5.973   4.724  0.0366 -0.3689 -0.7529
17478TIP3    H173925   2.044   6.035   4.772 -0.6209 -1.0451 -0.6044
17478TIP3    H273926   2.123   5.907   4.789  0.7671 -0.2480 -0.8960
17479TIP3   OH273927   0.305   0.893  13.829 -0.2215  0.2077  0.2637
17479TIP3    H173928   0.262   0.820  13.873  1.3189 -0.4999  0.6582
17479TIP3    H273929   0.351   0.853  13.755 -0.3765  0.9588 -0.2557
17480TIP3   OH273930   2.945   0.132   4.757  0.4926  0.2877  0.0367
17480TIP3    H173931   2.919   0.219   4.728  0.7498  0.0884 -0.8300
17480TIP3    H273932   3.027   0.115   4.710  0.7018 -0.2213  0.5768
17481TIP3   OH273933   6.603   0.107  13.693 -0.2860 -0.0792  0.1883
17481TIP3    H173934   6.606   0.011  13.687 -0.4011 -0.1022  0.4830
17481TIP3    H273935   6.657   0.128  13.770  1.4101  0.2253 -1.0174
17482TIP3   OH273936   0.290   2.951   6.410  0.0701  0.2318  0.7020
17482TIP3    H173937   0.326   2.902   6.336 -1.2185  0.5788 -0.1926
17482TIP3    H273938   0.196   2.957   6.391 -0.1967  0.8181  2.0931
17483TIP3   OH273939   6.569   0.519  12.543  0.2671  0.3568 -0.1141
17483TIP3    H173940   6.627   0.518  12.466  0.2860 -0.4532 -0.0989
17483TIP3    H273941   6.575   0.430  12.578  1.0503  0.9744  1.4176
17484TIP3   OH273942   4.925   3.665   1.910 -0.4386 -0.2917 -0.1302
17484TIP3    H173943   4.991   3.732   1.928 -0.4605 -0.0956 -0.7526
17484TIP3    H273944   4.842   3.705   1.936 -0.3405 -0.4574  0.4472
17485TIP3   OH273945   6.398   4.622  15.751 -0.0480  0.3889 -0.3046
17485TIP3    H173946   6.423   4.653  15.838 -0.4669  2.4092 -0.8570
17485TIP3    H273947   6.439   4.535  15.745 -0.4808 -0.0637  2.0868
17486TIP3   OH273948   0.730   0.727   6.766 -0.6517  0.2461  0.0045
17486TIP3    H173949   0.705   0.700   6.678 -2.1732  1.4434  0.0291
17486TIP3    H273950   0.766   0.815   6.754  1.9125 -0.6924  0.2333
17487TIP3   OH273951   3.142   3.242   2.365  0.5104 -0.4213  0.1561
17487TIP3    H173952   3.155   3.249   2.460  1.6303  0.2020 -0.0211
17487TIP3    H273953   3.212   3.182   2.337 -0.1648 -1.0482 -0.2113
17488TIP3   OH273954   3.823   6.079  17.056 -0.2810 -0.1629 -0.5171
17488TIP3    H173955   3.881   6.099  16.982  0.6628 -0.1111  0.2076
17488TIP3    H273956   3.820   6.161  17.106 -1.0936 -0.1307 -0.6104
17489TIP3   OH273957   2.625   3.121   6.234  0.1294  0.0934  0.3847
17489TIP3    H173958   2.577   3.196   6.269 -1.7678  0.1546 -2.1168
17489TIP3    H273959   2.717   3.148   6.238 -0.1844  1.0891  2.7243
17490TIP3   OH273960   4.662   2.890  12.668 -0.3516  0.0554 -0.1859
17490TIP3    H173961   4.703   2.817  12.716 -0.1979  0.5233  0.4109
17490TIP3    H273962   4.595   2.848  12.614  1.0112 -0.7578 -1.3268
17491TIP3   OH273963   3.645   4.279   4.038  0.8489  0.4365 -0.0740
17491TIP3    H173964   3.664   4.186   4.042  0.6267  0.4261  2.2926
17491TIP3    H273965   3.559   4.284   3.995 -0.3215 -0.7207  1.9586
17492TIP3   OH273966   3.963   0.052  14.502 -0.4770 -0.0302  0.6433
17492TIP3    H173967   3.954   0.024  14.411  1.2787 -0.6735  0.6113
17492TIP3    H273968   3.937   0.144  14.502  0.7632  0.3775 -0.8235
17493TIP3   OH273969   0.136   5.544  14.363 -0.0813 -0.2738  0.5061
17493TIP3    H173970   0.191   5.466  14.371  0.0904 -0.3380 -0.9842
17493TIP3    H273971   0.161   5.583  14.279 -0.2567  1.3290  1.1559
17494TIP3   OH273972   5.941   2.151   3.596  0.2238 -0.5262  0.3304
17494TIP3    H173973   6.034   2.162   3.615 -0.0086  1.0771  0.6988
17494TIP3    H273974   5.936   2.151   3.500  0.5917 -0.5007  0.3098
17495TIP3   OH273975   5.897   2.115   2.821 -0.3849  0.5884 -0.3053
17495TIP3    H173976   5.949   2.115   2.901 -2.8338 -1.8548  1.4562
17495TIP3    H273977   5.897   2.024   2.792 -0.4492  1.2424 -2.5254
17496TIP3   OH273978   0.523   5.157   5.488 -0.0517  0.1659  0.2453
17496TIP3    H173979   0.441   5.136   5.445  0.3012 -1.1199  0.1663
17496TIP3    H273980   0.504   5.236   5.540 -1.7765 -1.0228  1.4981
17497TIP3   OH273981   6.696   4.299   4.940  0.2219  0.1143 -0.4193
17497TIP3    H173982   6.713   4.211   4.907  0.2949  0.1537 -0.4856
17497TIP3    H273983   6.603   4.314   4.921  0.3300  0.2421 -0.8493
17498TIP3   OH273984   1.966   4.384   4.923  0.2460 -0.1537 -0.3326
17498TIP3    H173985   2.043   4.441   4.921  0.0756  0.0712 -2.3888
17498TIP3    H273986   1.899   4.436   4.968  0.5029  0.7283 -0.9384
17499TIP3   OH273987   2.959   5.292   1.890 -0.4906  0.1629 -0.0424
17499TIP3    H173988   2.933   5.201   1.877  2.5537 -0.8456  0.0098
17499TIP3    H273989   3.042   5.300   1.841  0.0733  2.4769  1.1600
17500TIP3   OH273990   5.946   4.784  11.880 -0.3968 -0.1083  0.6804
17500TIP3    H173991   6.014   4.742  11.826 -1.1283  0.8569 -1.0633
17500TIP3    H273992   5.967   4.877  11.877 -0.8332  0.0226  1.5336
17501TIP3   OH273993   6.746   3.854  13.337 -0.2210 -0.7487  0.2799
17501TIP3    H173994   6.809   3.880  13.404  0.0917  0.8230 -0.5923
17501TIP3    H273995   6.671   3.912  13.350  0.4785  0.6921 -1.6840
17502TIP3   OH273996   4.788   3.083  12.267  0.9400 -0.1571  0.0830
17502TIP3    H173997   4.701   3.059  12.233  0.4306  1.1849  0.3996
17502TIP3    H273998   4.844   3.087  12.190  0.6601 -0.7272 -0.1588
17503TIP3   OH273999   2.296   5.571  16.190  0.0894  0.2476  0.7155
17503TIP3    H174000   2.268   5.655  16.153 -0.9430  0.8461  2.6936
17503TIP3    H274001   2.217   5.535  16.230  0.7157 -1.2735  0.6526
17504TIP3   OH274002   2.469   0.519  15.697  0.4763 -0.1409  0.4301
17504TIP3    H174003   2.386   0.480  15.726  0.2467  1.0952  1.5423
17504TIP3    H274004   2.462   0.523  15.602 -0.0254 -1.5982  0.3853
17505TIP3   OH274005   2.736   2.503  17.300  0.0269 -0.4843 -0.6379
17505TIP3    H174006   2.717   2.418  17.262 -0.0202 -0.9180  0.3370
17505TIP3    H274007   2.803   2.486  17.366 -1.3802 -0.1176  0.9669
17506TIP3   OH274008   4.906   2.872   3.611 -0.1459  0.0054 -0.7304
17506TIP3    H174009   4.960   2.905   3.683 -1.1530  0.6136 -0.2250
17506TIP3    H274010   4.966   2.867   3.536  0.6537  0.4650 -0.1433
17507TIP3   OH274011   0.759   5.130   0.181  0.6278 -0.1552  0.3758
17507TIP3    H174012   0.815   5.052   0.180  1.8417  0.6901  0.1899
17507TIP3    H274013   0.807   5.193   0.235  0.0427  0.7390 -0.1215
17508TIP3   OH274014   6.472   0.363   5.540  0.2210 -0.3432 -0.3842
17508TIP3    H174015   6.447   0.317   5.460  0.6025  1.9940 -1.9650
17508TIP3    H274016   6.565   0.345   5.550 -0.0241 -1.3982  0.0980
17509TIP3   OH274017   3.209   6.101  14.105  0.1685 -0.0484  0.2365
17509TIP3    H174018   3.156   6.180  14.103  0.2626  0.0393 -2.5351
17509TIP3    H274019   3.146   6.029  14.107  0.0631  0.0679  1.5436
17510TIP3   OH274020   4.707   2.220  13.944 -0.3955 -0.9456  0.0349
17510TIP3    H174021   4.787   2.189  13.903  0.6275 -0.2995  1.4686
17510TIP3    H274022   4.649   2.144  13.945 -0.1863 -1.1728 -1.8711
17511TIP3   OH274023   4.042   5.525  10.864 -0.3325 -0.5176  0.1074
17511TIP3    H174024   3.963   5.514  10.812  1.1438 -0.7164 -2.2354
17511TIP3    H274025   4.071   5.435  10.882 -0.1483 -0.4513  0.1472
17512TIP3   OH274026   4.358   4.149   2.827 -0.0173  0.3722  0.5079
17512TIP3    H174027   4.346   4.238   2.862  0.7105 -0.4358  3.0861
17512TIP3    H274028   4.311   4.093   2.889  1.0725 -1.1731 -0.0058
17513TIP3   OH274029   6.602   2.448  16.874 -0.1903 -0.0589 -0.0007
17513TIP3    H174030   6.595   2.357  16.904 -0.3512  0.3104  1.1401
17513TIP3    H274031   6.673   2.485  16.927  1.3017 -0.0547 -1.8986
17514TIP3   OH274032   3.558   3.985   6.596 -0.5348  0.6257  0.7262
17514TIP3    H174033   3.536   3.960   6.506 -0.9503  1.0260  0.7133
17514TIP3    H274034   3.543   4.079   6.599  0.9864  0.8888  0.7842
17515TIP3   OH274035   1.566   1.723   4.336  0.0447  0.4358 -0.4659
17515TIP3    H174036   1.503   1.728   4.408  0.4409  2.0775 -0.1873
17515TIP3    H274037   1.532   1.655   4.278 -0.3449 -0.8553  1.2057
17516TIP3   OH274038   4.215   1.282   5.536 -0.0860 -0.1248 -0.1692
17516TIP3    H174039   4.174   1.327   5.610  0.8519  0.4174  0.0422
17516TIP3    H274040   4.295   1.331   5.520 -1.1206  0.8991 -2.7352
17517TIP3   OH274041   1.529   3.353   4.320 -0.3777  0.3942 -0.1255
17517TIP3    H174042   1.615   3.349   4.360 -0.5671  1.2003  0.3907
17517TIP3    H274043   1.515   3.446   4.302 -1.4490  0.3752  0.5005
17518TIP3   OH274044   4.322   1.017   5.446  0.1600  0.1268  0.7175
17518TIP3    H174045   4.285   1.102   5.467  0.8097  0.6979 -0.3520
17518TIP3    H274046   4.322   1.014   5.350  1.3848 -0.5058  0.7191
17519TIP3   OH274047   5.177   6.270   3.594  0.4387 -0.1797 -0.1911
17519TIP3    H174048   5.117   6.314   3.654 -0.0575 -0.2190 -0.6531
17519TIP3    H274049   5.159   6.177   3.606  0.5988 -0.2027 -0.1303
17520TIP3   OH274050   5.913   0.349   1.586 -0.0547 -0.1041  0.2434
17520TIP3    H174051   5.982   0.342   1.520 -0.4540 -0.1260 -0.1760
17520TIP3    H274052   5.950   0.405   1.654 -0.5093  1.9762 -1.1527
17521TIP3   OH274053   6.752   5.391  11.941  0.5542  0.4317  0.9559
17521TIP3    H174054   6.667   5.415  11.904  0.3711  0.4739  1.3969
17521TIP3    H274055   6.731   5.342  12.020  0.9356 -1.1164  0.1254
17522TIP3   OH274056   6.733   1.010   3.544 -0.1171  0.4130 -0.0138
17522TIP3    H174057   6.756   0.990   3.635 -1.8107  2.3174  0.9060
17522TIP3    H274058   6.638   1.014   3.543 -0.0815  2.8051 -1.2662
17523TIP3   OH274059   4.921   1.370  14.248  0.0464  0.5058  0.5358
17523TIP3    H174060   4.919   1.328  14.334 -0.9037 -1.7155 -0.4925
17523TIP3    H274061   5.013   1.390  14.233  0.3261  0.1792  1.7115
17524TIP3   OH274062   5.721   3.371  16.441 -0.3541 -0.2182  0.4993
17524TIP3    H174063   5.683   3.406  16.361  0.5911 -2.4575 -1.0423
17524TIP3    H274064   5.645   3.344  16.493 -1.0059  2.0497  0.8242
17525TIP3   OH274065   1.097   0.086   2.785 -0.0480 -0.1159 -0.1244
17525TIP3    H174066   1.185   0.062   2.759 -0.1652 -1.1508  0.4064
17525TIP3    H274067   1.070   0.152   2.721  0.5609 -0.8529 -1.1554
17526TIP3   OH274068   5.207   0.494   0.001 -1.0454  0.4165 -0.0799
17526TIP3    H174069   5.268   0.429   0.036 -0.3665 -0.0210 -1.9515
17526TIP3    H274070   5.255   0.577   0.006 -1.0774  0.4132  0.3011
17527TIP3   OH274071   6.090   4.703   4.148  0.1808  0.0550  0.3508
17527TIP3    H174072   6.159   4.765   4.173  1.6333 -1.9988  1.7898
17527TIP3    H274073   6.012   4.735   4.192  1.0528  0.5528  1.5961
17528TIP3   OH274074   1.606   4.425  11.618  0.3655  0.2608  0.1640
17528TIP3    H174075   1.585   4.332  11.611  1.0049  0.1117  0.1736
17528TIP3    H274076   1.672   4.440  11.550 -0.0138  0.7959 -0.1007
17529TIP3   OH274077   0.277   0.384  13.050 -0.5595  0.0674 -0.4003
17529TIP3    H174078   0.189   0.401  13.085 -0.2243  1.7138 -0.2788
17529TIP3    H274079   0.268   0.301  13.003 -2.2018  0.2293 -0.4497
17530TIP3   OH274080   1.042   5.978  15.651  0.3097  0.0379 -0.0371
17530TIP3    H174081   0.968   6.027  15.615  0.3607 -0.8749 -1.4725
17530TIP3    H274082   1.119   6.016  15.608  0.5660  0.2210  0.5796
17531TIP3   OH274083   2.095   1.941   4.596 -0.5584  0.1890 -0.2493
17531TIP3    H174084   2.020   1.913   4.649 -0.4627 -0.0600 -0.2433
17531TIP3    H274085   2.079   1.902   4.510  0.9709 -2.2815  0.4947
17532TIP3   OH274086   5.159   4.062   0.541  0.5906 -0.2465 -0.1803
17532TIP3    H174087   5.217   3.993   0.509  0.5754 -0.6796  0.7268
17532TIP3    H274088   5.073   4.039   0.505  0.6623 -0.4771 -0.2076
17533TIP3   OH274089   1.595   4.310  12.128  0.2437  0.5541  0.4828
17533TIP3    H174090   1.643   4.306  12.045  3.6566  1.6675  2.2131
17533TIP3    H274091   1.626   4.235  12.178  0.8076  1.7081  1.9427
17534TIP3   OH274092   0.574   0.178  14.478  0.4359  0.0820  0.3603
17534TIP3    H174093   0.540   0.152  14.563 -0.0924 -0.0706  0.1022
17534TIP3    H274094   0.592   0.272  14.487  0.5950  0.0175  0.7078
17535TIP3   OH274095   6.672   6.638  12.645  0.0401 -0.1906  0.6016
17535TIP3    H174096   6.688   6.546  12.626 -3.7342 -1.1267  1.0349
17535TIP3    H274097   6.669   6.680  12.559  0.0822 -0.8472  0.2752
17536TIP3   OH274098   3.536   1.136  14.121  0.2131 -0.0979 -0.0163
17536TIP3    H174099   3.561   1.228  14.117 -0.5687  0.1108 -0.2720
17536TIP3    H274100   3.483   1.130  14.201  1.0300 -0.5294  0.5119
17537TIP3   OH274101   2.228   2.219  14.334 -0.1827  0.4681 -0.2342
17537TIP3    H174102   2.304   2.265  14.368 -1.2181  2.6728 -0.7426
17537TIP3    H274103   2.177   2.286  14.289 -1.5978 -1.2671 -1.3829
17538TIP3   OH274104   1.772   1.891   0.994 -0.1876 -0.0970  0.0816
17538TIP3    H174105   1.751   1.916   0.904  0.9869 -0.0338 -0.2018
17538TIP3    H274106   1.862   1.924   1.007  0.1090 -1.1616  0.8665
17539TIP3   OH274107   1.853   2.941   0.609  0.2932  0.4803 -0.0189
17539TIP3    H174108   1.767   2.944   0.651  0.8064 -0.4656  1.1370
17539TIP3    H274109   1.843   2.880   0.536 -0.2171  1.0015 -0.3933
17540TIP3   OH274110   0.430   3.017   0.426 -0.2951 -0.2491 -0.3546
17540TIP3    H174111   0.514   3.011   0.471  0.1366  0.2608 -1.0679
17540TIP3    H274112   0.398   2.927   0.423 -1.2037 -0.1204  2.5080
17541TIP3   OH274113   2.780   0.190   1.033  0.0617 -0.6339 -0.2379
17541TIP3    H174114   2.735   0.149   1.107  0.4180 -0.2066  0.2202
17541TIP3    H274115   2.816   0.116   0.983  0.3845 -0.9035  0.3837
17542TIP3   OH274116   5.977   1.543  10.715 -0.5618 -0.4096 -0.3351
17542TIP3    H174117   5.997   1.451  10.731  0.9348 -0.3000 -1.3728
17542TIP3    H274118   6.061   1.582  10.690 -1.8124  0.3031 -4.0710
17543TIP3   OH274119   0.910   3.690  16.951 -0.1343 -0.0429  0.2047
17543TIP3    H174120   0.832   3.718  16.903  0.3799  0.4950 -0.3319
17543TIP3    H274121   0.935   3.767  17.003  0.2314 -0.1029  0.1203
17544TIP3   OH274122   1.048   0.608   3.240  0.1756  0.3636  0.2600
17544TIP3    H174123   1.076   0.517   3.244  1.5786  0.7539 -0.0747
17544TIP3    H274124   0.987   0.618   3.313  0.0925 -0.8048  0.3708
17545TIP3   OH274125   6.072   3.583  15.579 -0.2812 -0.2284  0.1531
17545TIP3    H174126   6.055   3.563  15.671 -0.0938 -0.2005  0.1946
17545TIP3    H274127   6.123   3.664  15.582  1.1440 -1.0993  0.1000
17546TIP3   OH274128   3.795   0.681   2.910 -0.0322 -0.2003  0.6779
17546TIP3    H174129   3.823   0.590   2.900  0.4870 -0.0611  0.8416
17546TIP3    H274130   3.871   0.726   2.948 -0.0145  0.4695 -0.1217
17547TIP3   OH274131   3.363   6.017   9.817  0.1143 -0.0994 -0.3493
17547TIP3    H174132   3.294   5.954   9.794 -1.3398  1.8661 -1.7645
17547TIP3    H274133   3.361   6.021   9.912 -1.5753 -0.3183 -0.3361
17548TIP3   OH274134   4.292   2.058  17.452 -0.0408 -0.2624 -0.0369
17548TIP3    H174135   4.354   2.130  17.462 -0.1778 -0.2970  1.2079
17548TIP3    H274136   4.208   2.101  17.439  0.2437 -0.2137 -2.0081
17549TIP3   OH274137   2.683   3.617   5.620  0.0036  0.0426  0.1330
17549TIP3    H174138   2.755   3.607   5.558  0.0032 -0.0725  0.1499
17549TIP3    H274139   2.604   3.597   5.569  0.0861 -1.0397  0.4159
17550TIP3   OH274140   1.235   5.700   1.756  0.0463 -0.0906  0.0059
17550TIP3    H174141   1.248   5.786   1.796 -1.5357  0.4538 -0.5776
17550TIP3    H274142   1.293   5.699   1.680 -0.8865  1.0020 -0.7412
17551TIP3   OH274143   3.159   4.831   1.225 -0.0946  0.3745 -0.3843
17551TIP3    H174144   3.134   4.890   1.153 -1.3579  2.7029  1.8048
17551TIP3    H274145   3.228   4.878   1.271 -1.2973  0.3189  1.5805
17552TIP3   OH274146   3.183   4.579   1.310 -0.4082  0.1824  0.0047
17552TIP3    H174147   3.153   4.663   1.277  0.6722  0.2791 -0.8010
17552TIP3    H274148   3.177   4.587   1.405 -1.0527  0.8796 -0.0874
17553TIP3   OH274149   5.176   0.240   5.298  0.2498 -0.3067 -0.5590
17553TIP3    H174150   5.161   0.232   5.392 -0.2125  0.1757 -0.5866
17553TIP3    H274151   5.092   0.219   5.258  0.0113  0.9939 -0.7865
17554TIP3   OH274152   2.818   6.666  12.007  0.0976 -0.5422 -0.0072
17554TIP3    H174153   2.784   6.643  11.921 -0.1554 -2.3259  0.5275
17554TIP3    H274154   2.912   6.680  11.993  0.0758 -0.9087 -0.5669
17555TIP3   OH274155   4.663   3.914  11.639 -0.0607  0.2126 -0.2108
17555TIP3    H174156   4.706   3.828  11.637 -3.0869 -1.4719  1.1013
17555TIP3    H274157   4.640   3.932  11.548  0.0842 -0.6729 -0.4325
17556TIP3   OH274158   4.942   1.581   6.613 -0.7255  0.2709  0.0425
17556TIP3    H174159   5.029   1.619   6.625 -1.1014  0.6241  1.9323
17556TIP3    H274160   4.919   1.545   6.699 -2.8024  0.9635 -0.1693
17557TIP3   OH274161   4.547   4.885   2.726 -0.5301  0.0026  0.3718
17557TIP3    H174162   4.484   4.907   2.658 -0.4615 -2.6911 -0.6843
17557TIP3    H274163   4.626   4.935   2.703 -1.3920  1.3534  0.2027
17558TIP3   OH274164   3.938   1.050   4.198 -0.3062 -0.4142  0.3581
17558TIP3    H174165   3.857   1.069   4.151 -0.8194 -0.1403  1.3180
17558TIP3    H274166   3.920   0.969   4.246  1.0790 -2.1389 -1.8617
17559TIP3   OH274167   2.744   3.660  13.761  0.0493  0.6888 -0.3968
17559TIP3    H174168   2.790   3.576  13.766  0.9850  1.1114 -1.6427
17559TIP3    H274169   2.767   3.696  13.676  0.2154  2.5364  0.3777
17560TIP3   OH274170   4.676   0.957   1.688 -0.1207  0.2413  0.0740
17560TIP3    H174171   4.701   1.020   1.756  1.3041  0.1533 -0.3314
17560TIP3    H274172   4.716   0.874   1.716 -0.5816 -0.0922 -0.2397
17561TIP3   OH274173   3.644   5.968  13.974  0.5279 -0.0711  0.1773
17561TIP3    H174174   3.615   5.994  13.887 -1.6360  0.4474  0.9875
17561TIP3    H274175   3.712   6.032  13.997 -0.8894  1.5740 -0.0359
17562TIP3   OH274176   2.490   6.516  15.583  0.1141 -0.2242  0.2373
17562TIP3    H174177   2.557   6.504  15.649  0.6025 -0.7837 -0.3506
17562TIP3    H274178   2.413   6.470  15.617 -0.6010  1.8975  1.7618
17563TIP3   OH274179   0.700   1.799   2.346 -0.1114  0.3528 -0.4106
17563TIP3    H174180   0.745   1.728   2.300  0.4652  0.1243  0.4849
17563TIP3    H274181   0.612   1.765   2.363 -0.3647  0.4795 -1.4164
17564TIP3   OH274182   1.634   0.209   2.752 -0.5444 -0.2720 -0.2464
17564TIP3    H174183   1.725   0.223   2.725 -0.0685 -2.3335  0.1049
17564TIP3    H274184   1.638   0.133   2.810 -2.3653  0.2801  0.6812
17565TIP3   OH274185   2.796   3.232   0.905  0.5090  0.4635 -0.0591
17565TIP3    H174186   2.710   3.206   0.871 -0.4158  3.0265  0.1397
17565TIP3    H274187   2.830   3.293   0.840  2.1312 -0.3778 -0.0340
17566TIP3   OH274188   0.911   3.603  15.903 -0.2464  0.2538  0.2973
17566TIP3    H174189   0.942   3.586  15.992 -1.1086 -0.4322  0.4754
17566TIP3    H274190   0.977   3.562  15.847  0.9900  1.7900  0.5530
17567TIP3   OH274191   4.382   2.704  14.521  0.2501  0.1582  0.0825
17567TIP3    H174192   4.379   2.672  14.610 -0.6106 -0.6449 -0.2241
17567TIP3    H274193   4.367   2.627  14.466  3.2117  0.1152 -0.8954
17568TIP3   OH274194   2.071   6.188  12.077  0.5026  0.3445 -0.6928
17568TIP3    H174195   2.103   6.260  12.023  0.1314 -0.1910 -1.6508
17568TIP3    H274196   2.113   6.201  12.162  0.8168  1.4102 -0.9979
17569TIP3   OH274197   4.746   0.637  13.980 -0.3126  0.2230  0.0504
17569TIP3    H174198   4.721   0.700  13.913  1.1325  0.2735 -0.4667
17569TIP3    H274199   4.810   0.684  14.034 -1.1178  0.0310  1.2186
17570TIP3   OH274200   1.460   3.571  16.795  0.0584 -0.0675 -0.2593
17570TIP3    H174201   1.451   3.619  16.877 -1.5313 -0.2728 -0.2891
17570TIP3    H274202   1.494   3.485  16.821 -0.5773 -0.1823  0.2039
17571TIP3   OH274203   1.099   4.233   5.344  0.1289 -0.0381  0.5032
17571TIP3    H174204   1.094   4.156   5.401  0.4067 -1.3859 -1.1992
17571TIP3    H274205   1.175   4.217   5.289  1.7719  2.7258  1.7418
17572TIP3   OH274206   2.930   0.868  12.174  0.1254 -0.0747  0.0112
17572TIP3    H174207   2.900   0.857  12.084 -1.2987 -0.4598  0.4910
17572TIP3    H274208   2.933   0.963  12.187 -1.4517  0.0022  0.0672
17573TIP3   OH274209   5.821   1.165   5.304 -0.1759  0.0257  0.0232
17573TIP3    H174210   5.792   1.144   5.393 -0.0555  1.1024  0.3388
17573TIP3    H274211   5.853   1.255   5.311  1.3158 -0.4185 -0.7711
17574TIP3   OH274212   5.856   3.464   4.378  0.3180  0.2709 -0.2686
17574TIP3    H174213   5.860   3.534   4.444 -3.1761  1.3780 -1.0133
17574TIP3    H274214   5.834   3.386   4.428  1.6394  0.2217  0.2758
17575TIP3   OH274215   4.913   4.485  13.991 -0.1632 -0.0201 -0.1936
17575TIP3    H174216   4.881   4.413  14.045  0.2565 -0.5409 -0.6250
17575TIP3    H274217   4.871   4.473  13.906 -0.8760  0.8371  0.0230
17576TIP3   OH274218   6.407   0.167  13.506 -0.6140  0.4769 -0.5473
17576TIP3    H174219   6.465   0.112  13.558 -1.5903  0.2421  0.3310
17576TIP3    H274220   6.450   0.253  13.504 -1.2394  0.8996  1.9079
17577TIP3   OH274221   1.381   2.844  12.735  1.1045  0.4934 -0.1239
17577TIP3    H174222   1.306   2.785  12.743  0.5761  0.8700 -1.8909
17577TIP3    H274223   1.456   2.791  12.762  0.1448  0.3979  2.6267
17578TIP3   OH274224   0.965   4.579  14.214  0.0580  0.0729  0.0094
17578TIP3    H174225   0.964   4.493  14.172  0.9870  0.1386 -0.1620
17578TIP3    H274226   0.978   4.641  14.143 -0.7165  0.3798  0.1197
17579TIP3   OH274227   6.540   6.560   6.107  0.1870  0.0403 -0.1235
17579TIP3    H174228   6.525   6.574   6.013 -1.5309 -1.1389 -0.0705
17579TIP3    H274229   6.501   6.636   6.149  1.1674  0.6896 -0.3353
17580TIP3   OH274230   1.013   5.039   3.166 -0.1746 -0.6110 -0.0081
17580TIP3    H174231   1.040   5.130   3.168  0.0195 -0.5635 -2.0911
17580TIP3    H274232   0.918   5.042   3.162 -0.2185 -0.5547  0.8649
17581TIP3   OH274233   3.881   4.836  16.455  0.2308  0.2849  0.0370
17581TIP3    H174234   3.804   4.816  16.508  1.5546 -0.9279  1.6287
17581TIP3    H274235   3.876   4.773  16.383 -2.0528  2.5260 -1.9502
17582TIP3   OH274236   4.481   0.774   1.544 -0.0282  0.2731  0.2338
17582TIP3    H174237   4.478   0.682   1.568  0.9936 -0.1033 -0.9985
17582TIP3    H274238   4.562   0.784   1.495 -1.4966  1.1756 -2.2080
17583TIP3   OH274239   3.482   0.687   2.969  0.6520 -0.6845 -0.4289
17583TIP3    H174240   3.574   0.697   2.948  1.1816  0.1008  1.9722
17583TIP3    H274241   3.476   0.604   3.015  0.8635  0.7168  2.3781
17584TIP3   OH274242   0.555   6.378  14.102 -0.0266  0.4331 -0.4334
17584TIP3    H174243   0.597   6.356  14.019  1.5929 -0.9090  0.6742
17584TIP3    H274244   0.621   6.429  14.150 -1.1189  1.6276 -0.1313
17585TIP3   OH274245   3.674   3.093   4.766 -0.2227 -0.2307  0.1923
17585TIP3    H174246   3.763   3.076   4.734 -0.3202 -3.3590  1.2056
17585TIP3    H274247   3.686   3.126   4.855 -0.0712 -0.1511  0.1433
17586TIP3   OH274248   6.376   0.817   2.799 -0.5625  0.1612 -0.0702
17586TIP3    H174249   6.377   0.912   2.805 -1.6298  0.2420 -0.8154
17586TIP3    H274250   6.341   0.798   2.712 -0.8809 -0.8998  0.2608
17587TIP3   OH274251   3.301   2.855   0.234  0.8136  0.4223  0.4480
17587TIP3    H174252   3.373   2.794   0.217  0.3909  0.1812 -0.5467
17587TIP3    H274253   3.271   2.882   0.147  0.3303  1.2728  0.8603
17588TIP3   OH274254   0.107   6.331   1.973 -0.3275  0.0496  0.0569
17588TIP3    H174255   0.166   6.340   2.047 -1.2101  1.3069  0.6346
17588TIP3    H274256   0.093   6.420   1.942 -1.9664 -0.2147 -0.0365
17589TIP3   OH274257   1.156   6.036  11.546  0.1520  0.1390 -0.6670
17589TIP3    H174258   1.200   6.064  11.626 -1.0196  0.8962 -0.2632
17589TIP3    H274259   1.094   5.968  11.575 -2.8159  2.7766 -0.2180
17590TIP3   OH274260   2.463   2.489   0.813  0.0541  0.4090  0.2636
17590TIP3    H174261   2.394   2.555   0.802 -0.1223  0.0534 -0.7944
17590TIP3    H274262   2.542   2.532   0.780  0.4741  0.9874  1.8995
17591TIP3   OH274263   2.320   2.735  15.522 -0.9426  0.3096 -0.1551
17591TIP3    H174264   2.326   2.757  15.429 -1.6016 -1.4092 -0.6432
17591TIP3    H274265   2.316   2.819  15.566  1.9975  1.2618 -1.4424
17592TIP3   OH274266   3.475   1.150  15.480 -0.0888 -0.1489  0.6692
17592TIP3    H174267   3.431   1.116  15.402  0.5781  1.5615 -0.5121
17592TIP3    H274268   3.553   1.097  15.490  1.0448  1.0643 -1.2571
17593TIP3   OH274269   0.575   2.984  16.429  0.2220  0.3430 -0.1829
17593TIP3    H174270   0.552   3.076  16.443 -1.5301 -0.0138 -0.4502
17593TIP3    H274271   0.576   2.946  16.516  0.0483  0.4370 -0.1371
17594TIP3   OH274272   1.706   5.333  11.209  0.2394  0.2703  0.6031
17594TIP3    H174273   1.708   5.361  11.300  1.7913  1.2108  0.3206
17594TIP3    H274274   1.747   5.246  11.209 -1.3339 -0.5014  1.0034
17595TIP3   OH274275   5.675   3.704   0.605 -0.5216 -1.5251 -0.1354
17595TIP3    H174276   5.636   3.775   0.656  0.7626 -0.6648 -0.3292
17595TIP3    H274277   5.669   3.628   0.663  1.2324 -0.5020  1.5185
17596TIP3   OH274278   6.622   3.363   3.220  0.3221  0.6816 -1.0036
17596TIP3    H174279   6.538   3.331   3.252 -1.3690  2.4074 -3.3911
17596TIP3    H274280   6.642   3.438   3.275  0.4675  0.0863 -0.2367
17597TIP3   OH274281   1.980   4.251   0.978  0.3035 -0.3726 -0.1280
17597TIP3    H174282   1.952   4.300   0.901  1.1819  0.1415 -0.1226
17597TIP3    H274283   1.906   4.257   1.038 -0.5314 -1.0594 -1.0422
17598TIP3   OH274284   3.324   1.532   3.353  0.2338 -0.1181  0.1143
17598TIP3    H174285   3.362   1.604   3.303 -0.5041  0.3409  0.1942
17598TIP3    H274286   3.241   1.514   3.310 -1.1581  1.3112  2.0197
17599TIP3   OH274287   2.828   0.373  12.626  0.3260  0.0292  0.0049
17599TIP3    H174288   2.887   0.345  12.556 -0.2747  0.7890 -0.8157
17599TIP3    H274289   2.839   0.468  12.630 -1.7547  0.3528 -1.0205
17600TIP3   OH274290   6.626   6.667  16.264  0.1766 -0.1788  0.1961
17600TIP3    H174291   6.648   6.653  16.356 -2.2930  0.3580  0.9709
17600TIP3    H274292   6.612   6.579  16.229 -2.0565 -0.3596  1.3133
17601TIP3   OH274293   6.144   0.549   4.780 -0.1348 -0.4866 -0.4153
17601TIP3    H174294   6.210   0.604   4.824 -0.1553 -0.3334 -0.5792
17601TIP3    H274295   6.087   0.520   4.851 -0.5192  0.2441 -0.4186
17602TIP3   OH274296   4.486   0.342   6.204  0.1659  0.3964  0.0297
17602TIP3    H174297   4.534   0.318   6.283 -0.2020  0.5309  0.2988
17602TIP3    H274298   4.546   0.399   6.155  0.4704  0.1437  0.1108
17603TIP3   OH274299   5.741   1.335  11.418  0.4480  0.3673  0.6395
17603TIP3    H174300   5.680   1.332  11.491  0.4931 -0.7776  0.6421
17603TIP3    H274301   5.739   1.426  11.388  0.5545  0.8922  2.1611
17604TIP3   OH274302   4.196   5.734  11.739  0.0524 -0.4605  0.0120
17604TIP3    H174303   4.257   5.758  11.808 -1.2511 -0.3274  1.1628
17604TIP3    H274304   4.251   5.712  11.664  1.4392  1.2062  0.5021
17605TIP3   OH274305   1.326   2.971  15.908  0.6142 -0.3576 -0.5086
17605TIP3    H174306   1.402   3.006  15.861 -0.4111  2.3123 -0.3594
17605TIP3    H274307   1.256   2.969  15.842  0.0556  0.0604  0.0604
17606TIP3   OH274308   2.608   1.934   3.817 -0.1666  0.2291  0.2512
17606TIP3    H174309   2.520   1.966   3.834 -1.0444 -1.4018 -0.9033
17606TIP3    H274310   2.661   2.013   3.803 -0.4470  1.4845  4.7680
17607TIP3   OH274311   2.074   4.866   0.777 -0.5883 -0.6258  0.1544
17607TIP3    H174312   2.076   4.804   0.851  0.0814 -0.0853  0.6070
17607TIP3    H274313   2.154   4.918   0.788 -0.6653 -0.3032 -0.7586
17608TIP3   OH274314   0.963   1.424   6.230  0.7333  0.4752 -0.5944
17608TIP3    H174315   0.886   1.480   6.222  0.1809 -0.2077 -0.1629
17608TIP3    H274316   0.984   1.424   6.323  2.0291  1.6545 -0.8637
17609TIP3   OH274317   1.809   1.430   2.568 -0.8709  0.5360 -0.1183
17609TIP3    H174318   1.721   1.393   2.575  0.0483 -1.8665 -0.5008
17609TIP3    H274319   1.855   1.398   2.645  0.3453 -0.2754 -1.1557
17610TIP3   OH274320   2.779   3.625   3.464  0.4409  0.1689 -0.0235
17610TIP3    H174321   2.691   3.655   3.486  0.7789 -0.2022  1.9875
17610TIP3    H274322   2.834   3.655   3.536  1.4559 -2.0278  0.2054
17611TIP3   OH274323   0.322   5.747   3.106 -0.0807 -0.3085  0.0838
17611TIP3    H174324   0.302   5.654   3.095  2.0839 -0.8199 -0.0539
17611TIP3    H274325   0.307   5.764   3.199  2.1059 -1.5641  0.7445
17612TIP3   OH274326   2.422   2.814  12.981 -0.3875  0.1003 -0.0360
17612TIP3    H174327   2.396   2.895  13.025 -1.6879  0.0273 -0.6178
17612TIP3    H274328   2.497   2.782  13.031  0.2689  1.7519  0.0879
17613TIP3   OH274329   4.766   5.181   0.116 -0.2938  0.5383 -0.2226
17613TIP3    H174330   4.746   5.124   0.190 -0.1235 -0.1288 -0.6772
17613TIP3    H274331   4.853   5.153   0.087 -0.5376  0.4975 -0.9365
17614TIP3   OH274332   5.201   1.319   3.112  0.1612 -0.5623 -0.0979
17614TIP3    H174333   5.270   1.253   3.109  1.7715  0.9678  1.3183
17614TIP3    H274334   5.160   1.306   3.198  0.8406  0.5600  0.4182
17615TIP3   OH274335   3.356   4.524   1.779  0.5531  0.2219 -0.2462
17615TIP3    H174336   3.440   4.482   1.758  0.2251 -1.2037  1.0748
17615TIP3    H274337   3.364   4.546   1.872 -0.7203 -0.4440  0.0367
17616TIP3   OH274338   3.088   0.475  13.321 -0.4460 -0.2108 -0.0865
17616TIP3    H174339   3.023   0.414  13.285  1.1745 -3.0593  1.4203
17616TIP3    H274340   3.140   0.501  13.245 -0.4071 -1.7688 -0.6362
17617TIP3   OH274341   5.823   6.057  15.017  0.3187  0.8123 -0.6950
17617TIP3    H174342   5.789   6.116  15.084  1.3367  0.5371  0.1032
17617TIP3    H274343   5.845   6.114  14.943  1.7321  1.5479  0.2311
17618TIP3   OH274344   0.037   2.562  16.040  0.4917 -0.0857  0.3057
17618TIP3    H174345   0.010   2.648  16.072 -0.7801 -0.8587  1.3896
17618TIP3    H274346   0.034   2.506  16.117 -0.1861 -1.4518 -0.6862
17619TIP3   OH274347   5.578   2.844   5.808  0.0706  0.2042  0.5526
17619TIP3    H174348   5.637   2.782   5.850  2.5982  2.6838  0.9517
17619TIP3    H274349   5.570   2.812   5.718  1.3875 -0.6615  0.7115
17620TIP3   OH274350   0.889   6.211   3.689  0.3785 -0.1177  0.3532
17620TIP3    H174351   0.832   6.240   3.618  1.3416  1.6854  0.2557
17620TIP3    H274352   0.850   6.247   3.768  1.5103  1.4523  0.2475
17621TIP3   OH274353   3.443   5.446   3.460 -0.5073 -0.4082 -0.3267
17621TIP3    H174354   3.367   5.493   3.495 -0.2589  0.3100 -0.7273
17621TIP3    H274355   3.515   5.509   3.468 -0.5155 -0.0668 -2.4561
17622TIP3   OH274356   4.876   4.767  11.974  0.4109 -0.1285 -0.0578
17622TIP3    H174357   4.905   4.806  11.891 -0.0431 -0.8918 -0.5889
17622TIP3    H274358   4.820   4.694  11.948 -0.0296 -0.1618  0.9309
17623TIP3   OH274359   2.730   6.738  15.659 -0.1389  0.0832 -0.3491
17623TIP3    H174360   2.706   6.701  15.574  0.9950  0.1219 -0.7063
17623TIP3    H274361   2.754   6.828  15.640  0.1166  0.0928  0.0145
17624TIP3   OH274362   3.928   0.606  15.123  0.0251  0.1782  0.6340
17624TIP3    H174363   4.008   0.629  15.170 -0.7479  2.1697  1.0652
17624TIP3    H274364   3.867   0.678  15.141 -1.7882 -1.1241  0.0976
17625TIP3   OH274365   4.113   2.043   4.596  0.2444  0.4221 -0.2793
17625TIP3    H174366   4.094   1.949   4.590  0.8005  0.3098 -0.3514
17625TIP3    H274367   4.189   2.048   4.653 -1.1536  1.0107  1.6431
17626TIP3   OH274368   1.169   4.603   4.166 -0.0761  0.3722 -0.1528
17626TIP3    H174369   1.244   4.599   4.226  0.2016  0.1286 -0.5097
17626TIP3    H274370   1.186   4.534   4.102  0.3996  1.5991 -1.3995
17627TIP3   OH274371   3.827   1.246  15.528  0.3241 -0.2635 -0.0787
17627TIP3    H174372   3.889   1.199  15.583  1.1139 -2.2804 -2.5322
17627TIP3    H274373   3.862   1.335  15.522  1.4735 -0.6458  0.7511
17628TIP3   OH274374   0.936   6.247   4.455 -0.1733 -0.4143  0.4488
17628TIP3    H174375   0.968   6.254   4.545  0.2770  0.8787  0.2207
17628TIP3    H274376   1.013   6.221   4.404  0.0895  0.7961  0.1801
17629TIP3   OH274377   0.835   4.803  17.042  0.3081 -0.2662 -0.0925
17629TIP3    H174378   0.923   4.791  17.004  0.6466  0.9614  0.2679
17629TIP3    H274379   0.848   4.865  17.113 -0.5837 -1.3711  1.0853
17630TIP3   OH274380   5.690   1.898   0.261 -0.2664 -0.2352  0.0589
17630TIP3    H174381   5.747   1.925   0.189  0.1338  0.7967  0.7495
17630TIP3    H274382   5.713   1.956   0.333 -1.6808 -0.2941  0.5767
17631TIP3   OH274383   2.625   3.724  14.002  0.2607 -0.4199 -0.4563
17631TIP3    H174384   2.669   3.707  13.919  0.3862 -1.4036 -0.2009
17631TIP3    H274385   2.684   3.689  14.068  0.9919  1.8950  0.2155
17632TIP3   OH274386   3.515   4.014   1.526  0.0889  0.6000  0.3302
17632TIP3    H174387   3.464   3.970   1.595 -0.4712  0.4864 -0.1448
17632TIP3    H274388   3.606   3.993   1.546 -0.0370  0.8673  1.2432
17633TIP3   OH274389   5.092   6.144  11.731  0.5919  0.7948  0.0448
17633TIP3    H174390   4.999   6.131  11.750  1.0328 -0.9218  1.3837
17633TIP3    H274391   5.118   6.216  11.788  0.0558  1.4414 -0.5092
17634TIP3   OH274392   1.918   5.153   2.192  0.1596  0.4855 -0.7040
17634TIP3    H174393   1.920   5.152   2.096  3.0357  0.8027 -0.7330
17634TIP3    H274394   1.968   5.231   2.216  0.0056  0.0740  1.0645
17635TIP3   OH274395   2.082   4.753  16.134  0.3442  0.0204  0.4090
17635TIP3    H174396   2.068   4.743  16.040  0.1117  0.2793  0.4131
17635TIP3    H274397   2.165   4.709  16.151 -0.3363 -1.3650  0.3362
17636TIP3   OH274398   3.959   5.243  13.937 -0.0663  0.4706 -0.3982
17636TIP3    H174399   3.937   5.259  14.029 -0.1246 -0.8547 -0.1567
17636TIP3    H274400   4.034   5.300  13.920  0.5731  0.0250  0.7730
17637TIP3   OH274401   1.073   3.361   5.363 -0.5902  0.3022  0.5559
17637TIP3    H174402   1.033   3.446   5.342 -1.4267  0.2568  1.8787
17637TIP3    H274403   1.032   3.300   5.302 -0.1804  0.7876 -0.2293
17638TIP3   OH274404   4.736   1.196  15.655 -0.0950 -0.1085 -0.9226
17638TIP3    H174405   4.654   1.149  15.671 -0.1878 -0.1595 -1.5329
17638TIP3    H274406   4.756   1.238  15.739 -1.1241  0.4882 -0.9497
17639TIP3   OH274407   0.779   5.527  16.127  0.0673  1.0774 -0.2692
17639TIP3    H174408   0.711   5.540  16.061 -0.6622 -0.1719  0.1901
17639TIP3    H274409   0.738   5.471  16.193  1.5248  0.3408  0.0613
17640TIP3   OH274410   2.854   0.781  11.646  0.3356 -0.2542 -0.0602
17640TIP3    H174411   2.922   0.722  11.678  0.7826  0.0278 -0.4615
17640TIP3    H274412   2.894   0.868  11.653  0.0323 -0.0920 -0.3485
17641TIP3   OH274413   0.230   2.350   0.609 -0.0597 -0.2892 -0.5734
17641TIP3    H174414   0.324   2.334   0.614  0.2150  1.1686 -0.5780
17641TIP3    H274415   0.218   2.434   0.654 -1.3561 -0.4558 -0.5831
17642TIP3   OH274416   1.847   5.581  13.851  0.2442 -0.3392  0.0556
17642TIP3    H174417   1.876   5.630  13.774  0.1964  0.4944  0.5619
17642TIP3    H274418   1.901   5.501  13.850  0.6704 -0.0532 -0.4955
17643TIP3   OH274419   4.899   6.739   5.451  0.1784 -0.0155  0.2855
17643TIP3    H174420   4.847   6.813   5.484 -0.4756  0.6420 -2.0401
17643TIP3    H274421   4.849   6.662   5.478 -0.3773  0.4802  0.7148
17644TIP3   OH274422   1.771   3.513   3.430  0.4203 -0.4830 -0.0043
17644TIP3    H174423   1.769   3.593   3.377 -0.1968 -1.2143 -1.1338
17644TIP3    H274424   1.776   3.442   3.366 -1.7298 -1.4709  0.8065
17645TIP3   OH274425   5.826   6.228   0.679 -0.4253 -0.3676  0.3136
17645TIP3    H174426   5.916   6.209   0.706 -0.6385 -2.4050 -0.2476
17645TIP3    H274427   5.834   6.256   0.588 -0.3035  0.3432  0.5320
17646TIP3   OH274428   3.482   0.399  12.449 -0.7706  0.1796  0.0846
17646TIP3    H174429   3.512   0.462  12.516 -1.5127  1.8942 -1.1268
17646TIP3    H274430   3.542   0.412  12.376 -0.0551 -1.5839  0.3256
17647TIP3   OH274431   0.073   2.304  11.960  0.4106 -0.1203 -0.3639
17647TIP3    H174432   0.089   2.275  11.870 -0.1064  0.9554 -0.8236
17647TIP3    H274433   0.099   2.397  11.960 -0.1243  0.0379  0.4436
17648TIP3   OH274434   4.401   6.149   5.463  0.6356 -0.2077 -0.1383
17648TIP3    H174435   4.406   6.081   5.397  1.7508 -1.2980  1.0227
17648TIP3    H274436   4.331   6.121   5.522  0.4725  0.1308 -0.1663
17649TIP3   OH274437   2.144   1.276  15.691 -0.0124  0.2747 -0.4443
17649TIP3    H174438   2.211   1.345  15.697  0.7730 -0.6246  2.6729
17649TIP3    H274439   2.061   1.323  15.696  0.4964  1.1069  0.5872
17650TIP3   OH274440   0.525   0.073  11.182 -0.2396 -0.4703  0.1686
17650TIP3    H174441   0.467   0.138  11.222 -1.5479 -1.1786 -0.5143
17650TIP3    H274442   0.515  -0.005  11.237  0.7103 -0.3653  0.5155
17651TIP3   OH274443   4.392   5.472  15.728  0.2173  0.1053 -0.1192
17651TIP3    H174444   4.334   5.431  15.792 -2.3268  1.0414 -1.6613
17651TIP3    H274445   4.419   5.554  15.768 -1.6973  0.8844 -0.3480
17652TIP3   OH274446   0.240   0.406  14.849 -0.0290 -0.1032 -0.3286
17652TIP3    H174447   0.334   0.427  14.849 -0.0196 -0.1398 -0.0916
17652TIP3    H274448   0.236   0.317  14.813 -0.0198  0.0953 -0.8225
17653TIP3   OH274449   5.562   2.630  16.947  0.0936  0.1577  0.5036
17653TIP3    H174450   5.479   2.676  16.947  0.1363  0.2503 -0.2313
17653TIP3    H274451   5.546   2.551  16.895  0.6129  0.4760 -0.1597
17654TIP3   OH274452   6.484   3.322   2.968  0.4554 -0.3360  0.3110
17654TIP3    H174453   6.555   3.313   3.031 -0.3242  0.4338  1.3176
17654TIP3    H274454   6.432   3.396   2.999 -0.6720 -0.7434 -0.5191
17655TIP3   OH274455   0.433   0.583   0.141 -0.0703  0.0685  0.2280
17655TIP3    H174456   0.438   0.561   0.048  0.2170 -0.2224  0.3094
17655TIP3    H274457   0.503   0.647   0.153  0.0661 -0.0917  0.2960
17656TIP3   OH274458   5.422   3.556   5.623  0.5464 -0.1076  0.1130
17656TIP3    H174459   5.476   3.518   5.693  1.4249  2.3564  0.8693
17656TIP3    H274460   5.367   3.621   5.667 -0.4814 -0.0519 -1.1947
17657TIP3   OH274461   3.973   3.259   1.390 -0.2775 -0.2180 -0.2258
17657TIP3    H174462   3.897   3.201   1.393  0.2631 -1.2306 -3.2398
17657TIP3    H274463   4.037   3.218   1.448 -1.9241  0.6646  2.3806
17658TIP3   OH274464   3.124   6.010   3.840  0.1201  0.0922  0.2492
17658TIP3    H174465   3.210   6.045   3.864  0.5238  0.7435 -1.9711
17658TIP3    H274466   3.086   6.075   3.781  0.1331 -2.2833 -2.6008
17659TIP3   OH274467   4.906   0.458   5.549 -0.2435  0.7683 -0.3532
17659TIP3    H174468   4.945   0.540   5.517  1.1218  0.4228  0.3731
17659TIP3    H274469   4.974   0.392   5.537 -0.8473  0.0007  0.3189
17660TIP3   OH274470   0.499   0.986  15.882 -0.3537 -0.0811 -0.3380
17660TIP3    H174471   0.408   1.006  15.862 -0.9809 -2.5137 -0.1981
17660TIP3    H274472   0.499   0.955  15.972  0.5962 -0.1754 -0.3530
17661TIP3   OH274473   5.644   6.589  15.715  0.1563  0.4748  0.1519
17661TIP3    H174474   5.607   6.567  15.629 -0.6205  1.8264  0.1093
17661TIP3    H274475   5.619   6.680  15.729  1.2767  0.6290  1.3102
17662TIP3   OH274476   3.307   0.992  12.406 -0.2703 -0.4590  0.4072
17662TIP3    H174477   3.294   0.901  12.377  2.0424 -0.8996  0.5423
17662TIP3    H274478   3.242   1.004  12.475 -0.6921 -1.9928  0.3329
17663TIP3   OH274479   6.584   5.490  14.931 -0.0362  0.3258 -0.4433
17663TIP3    H174480   6.633   5.489  15.013 -1.1041  0.1073  0.2060
17663TIP3    H274481   6.500   5.449  14.952  0.0452 -0.6814 -1.8955
17664TIP3   OH274482   2.994   5.536   1.625  0.1498  0.0423 -0.0971
17664TIP3    H174483   3.048   5.463   1.592 -0.4132 -0.1723 -0.5582
17664TIP3    H274484   2.991   5.598   1.552 -1.8452 -0.8382 -0.8226
17665TIP3   OH274485   3.244   0.166  13.726  0.6434 -0.1690 -0.2158
17665TIP3    H174486   3.323   0.153  13.778  0.9719  1.4984 -0.2540
17665TIP3    H274487   3.252   0.255  13.691 -0.0131 -0.8808 -2.3682
17666TIP3   OH274488   2.167   5.891  12.001  0.6607  0.1592  0.0418
17666TIP3    H174489   2.083   5.872  12.042 -0.5171  2.1235 -1.2808
17666TIP3    H274490   2.192   5.978  12.035  2.0961 -0.3191  0.2972
17667TIP3   OH274491   1.520   3.676   2.405 -0.2359 -0.5042  0.6321
17667TIP3    H174492   1.577   3.661   2.481 -0.7967 -0.0286  1.1638
17667TIP3    H274493   1.506   3.589   2.368 -0.1824 -0.7883  1.2518
17668TIP3   OH274494   0.384   4.763  11.170  0.2522 -0.0810 -0.2822
17668TIP3    H174495   0.443   4.731  11.101 -1.6186  1.4112 -2.7848
17668TIP3    H274496   0.297   4.748  11.134 -0.7689  2.0102  1.1866
17669TIP3   OH274497   1.615   6.507   5.451  0.1846 -0.0840 -0.6429
17669TIP3    H174498   1.636   6.503   5.544  1.0293  1.7395 -0.7266
17669TIP3    H274499   1.529   6.464   5.444 -0.7402  1.3361  1.2353
17670TIP3   OH274500   6.284   4.671   1.031 -0.0523  0.2484 -0.1000
17670TIP3    H174501   6.220   4.741   1.037  1.3119  1.4284  2.0214
17670TIP3    H274502   6.331   4.687   0.949 -2.1962 -0.5030 -1.5660
17671TIP3   OH274503   0.253   4.542   4.258 -0.5980 -0.2859 -0.8666
17671TIP3    H174504   0.255   4.470   4.195 -3.0794 -0.7842 -0.5030
17671TIP3    H274505   0.211   4.504   4.335 -1.3023  1.3440 -0.4007
17672TIP3   OH274506   3.400   2.541  14.362 -0.4901  0.0385  0.1823
17672TIP3    H174507   3.438   2.454  14.355 -0.3165 -0.0347  1.6441
17672TIP3    H274508   3.445   2.593  14.296  2.4177  0.0132  1.9618
17673TIP3   OH274509   6.132   3.428  14.278 -0.0704  0.0071 -0.1064
17673TIP3    H174510   6.212   3.435  14.329  0.9794  0.8105 -1.7976
17673TIP3    H274511   6.073   3.492  14.317 -0.7194 -1.9251  2.4197
17674TIP3   OH274512   1.518   3.005  14.638 -0.1581  0.1400 -0.1983
17674TIP3    H174513   1.553   2.955  14.564  0.0747  2.5409 -1.8227
17674TIP3    H274514   1.456   2.946  14.680  3.4232 -3.2158  0.9339
17675TIP3   OH274515   2.567   3.104  15.795 -0.4037  0.2751 -0.0004
17675TIP3    H174516   2.477   3.072  15.796 -0.7919  1.2028 -1.7474
17675TIP3    H274517   2.606   3.069  15.875 -1.7542 -1.7186 -0.1674
17676TIP3   OH274518   1.381   0.218   3.733  0.3724  0.1043  0.4442
17676TIP3    H174519   1.470   0.249   3.749 -0.1778  1.5705  0.8531
17676TIP3    H274520   1.342   0.285   3.676 -0.4467 -0.5421  0.2190
17677TIP3   OH274521   1.298   0.303   6.593 -0.5090 -0.1047 -0.0297
17677TIP3    H174522   1.324   0.321   6.503  0.8570  2.7697  0.8007
17677TIP3    H274523   1.335   0.216   6.612  3.8318  1.3225 -0.7729
17678TIP3   OH274524   4.766   5.608  13.139  0.2586 -0.3490  0.2874
17678TIP3    H174525   4.720   5.539  13.187  2.2655 -1.8522  0.1745
17678TIP3    H274526   4.758   5.685  13.195 -3.9926  0.1314 -0.6014
17679TIP3   OH274527   6.316   4.233  14.813  0.3773 -0.2912  0.6140
17679TIP3    H174528   6.409   4.243  14.791 -0.0519  1.9603 -0.4651
17679TIP3    H274529   6.303   4.291  14.887 -0.4481  0.5530 -0.1736
17680TIP3   OH274530   3.545   1.520  12.326 -0.4124 -1.1736  0.2337
17680TIP3    H174531   3.483   1.509  12.254  0.0577 -0.2813 -0.3168
17680TIP3    H274532   3.506   1.589  12.380 -0.5551 -1.5475  0.6142
17681TIP3   OH274533   0.765   1.473   2.554  0.4602 -0.3361  0.3340
17681TIP3    H174534   0.690   1.531   2.541  0.7427 -0.1515 -0.5331
17681TIP3    H274535   0.762   1.451   2.647 -1.8952 -2.0366 -0.0656
17682TIP3   OH274536   5.020   4.474  16.566  0.2375  0.0098  0.1348
17682TIP3    H174537   5.041   4.393  16.519 -0.7075  0.0696 -0.4215
17682TIP3    H274538   5.091   4.484  16.629  1.0976 -0.5260 -0.7043
17683TIP3   OH274539   3.181   6.130   0.517  0.2666  0.1361  0.2605
17683TIP3    H174540   3.098   6.175   0.506 -0.1771 -0.8191 -0.4640
17683TIP3    H274541   3.193   6.123   0.612 -0.2289  0.7114  0.3697
17684TIP3   OH274542   5.824   2.777  14.267  0.1113 -0.1277 -0.2646
17684TIP3    H174543   5.838   2.822  14.184 -2.3678  0.1467 -0.5929
17684TIP3    H274544   5.843   2.685  14.248  1.5996  0.2046 -0.5354
17685TIP3   OH274545   5.484   4.118  14.035  0.2117 -0.6356 -0.3640
17685TIP3    H174546   5.523   4.163  14.110  0.5827  0.4084 -1.1515
17685TIP3    H274547   5.543   4.046  14.016 -0.4756 -1.6203  1.0272
17686TIP3   OH274548   5.895   4.772   1.547 -0.1658  0.8194 -0.6941
17686TIP3    H174549   5.979   4.729   1.531 -0.2550  0.3896 -0.0483
17686TIP3    H274550   5.858   4.725   1.621 -1.4116  0.3830 -1.5593
17687TIP3   OH274551   5.921   5.487   4.328 -0.3582 -0.0368  0.0605
17687TIP3    H174552   6.006   5.529   4.343 -0.0383 -0.1917 -1.1750
17687TIP3    H274553   5.904   5.502   4.235 -0.6166 -1.9348 -0.2333
17688TIP3   OH274554   2.317   5.703  12.104  0.0159  0.0134  0.3965
17688TIP3    H174555   2.276   5.784  12.073 -1.6343 -1.4971 -1.6951
17688TIP3    H274556   2.367   5.671  12.028  0.2357 -1.1496  1.0023
17689TIP3   OH274557   0.749   3.840  13.222 -0.2867 -0.1659  0.3513
17689TIP3    H174558   0.794   3.821  13.139 -1.1933 -0.9879  0.0273
17689TIP3    H274559   0.667   3.881  13.196 -0.3042  0.1364  0.8727
17690TIP3   OH274560   3.563   5.292   0.340 -0.2381  0.1143 -0.3820
17690TIP3    H174561   3.550   5.203   0.307  2.6323 -0.8490  0.7098
17690TIP3    H274562   3.563   5.347   0.262  2.1588 -1.4896 -1.6374
17691TIP3   OH274563   5.212   3.904  13.927  0.7843  0.3150 -0.5808
17691TIP3    H174564   5.212   3.821  13.974  1.7921  0.4397 -0.3484
17691TIP3    H274565   5.249   3.883  13.841  0.8871  0.4854 -0.5791
17692TIP3   OH274566   5.354   2.468  16.865 -0.7761 -0.0431  0.1809
17692TIP3    H174567   5.337   2.374  16.864  0.5533 -0.2918 -0.3763
17692TIP3    H274568   5.413   2.483  16.792 -0.3666  1.1099  0.7215
17693TIP3   OH274569   1.673   3.880  17.093  0.2602 -0.3758 -0.0595
17693TIP3    H174570   1.746   3.899  17.034 -0.9072  2.1823 -0.8084
17693TIP3    H274571   1.702   3.912  17.178  0.8606 -1.5108  0.1876
17694TIP3   OH274572   0.209   2.751  12.769  0.2007 -0.4579 -0.0135
17694TIP3    H174573   0.299   2.744  12.800  1.4673  2.0927 -2.5623
17694TIP3    H274574   0.161   2.785  12.844  1.2235 -2.1619  1.5045
17695TIP3   OH274575   4.477   6.319   2.032  0.4734  0.1720  0.3657
17695TIP3    H174576   4.471   6.359   1.945 -0.9194 -0.6138  0.0642
17695TIP3    H274577   4.548   6.256   2.024  0.2298 -0.0328 -0.2758
17696TIP3   OH274578   1.498   0.957  11.385  0.3006 -0.1246 -0.7961
17696TIP3    H174579   1.556   0.986  11.315  0.0577  0.1799 -0.8750
17696TIP3    H274580   1.485   1.035  11.440 -2.3392  0.6865 -2.3727
17697TIP3   OH274581   6.574   0.809   4.796  0.1480  0.1294  0.0092
17697TIP3    H174582   6.659   0.852   4.795 -0.5843  1.6271 -0.7173
17697TIP3    H274583   6.528   0.844   4.719 -1.0661 -0.7547  0.3045
17698TIP3   OH274584   2.107   3.344   5.038  0.0689  0.0057 -0.0739
17698TIP3    H174585   2.082   3.298   5.118 -0.9536  0.8087  0.0781
17698TIP3    H274586   2.099   3.278   4.969 -2.7375  0.2635 -0.0731
17699TIP3   OH274587   2.006   1.691  11.854 -0.5695 -0.0422 -0.6308
17699TIP3    H174588   1.948   1.767  11.855  0.3413  0.6665 -1.0222
17699TIP3    H274589   1.948   1.617  11.876 -1.6479  0.6209 -1.1377
17700TIP3   OH274590   0.570   3.767  14.029 -0.0194 -0.0876  0.4993
17700TIP3    H174591   0.549   3.811  13.946 -0.5236 -1.7620 -0.3190
17700TIP3    H274592   0.665   3.756  14.028 -0.0101  0.0164  0.1934
17701TIP3   OH274593   6.678   4.337  14.222 -0.0187 -0.3114 -0.0897
17701TIP3    H174594   6.645   4.381  14.143  0.2873  0.3024  0.1178
17701TIP3    H274595   6.730   4.265  14.188  0.6047  0.3026 -0.4736
17702TIP3   OH274596   6.528   0.949   1.769 -0.1057 -0.3335  0.1626
17702TIP3    H174597   6.473   0.885   1.724 -0.2905  0.1370 -0.3054
17702TIP3    H274598   6.480   0.970   1.849  0.0700 -0.9443  0.4333
17703TIP3   OH274599   3.440   1.277   2.330 -0.6221 -0.0950 -0.1096
17703TIP3    H174600   3.466   1.220   2.402 -1.4034 -0.1403  0.1452
17703TIP3    H274601   3.386   1.344   2.370  0.7586  1.1895 -0.3221
17704TIP3   OH274602   6.707   4.792   4.619 -0.4557 -0.2065  0.3369
17704TIP3    H174603   6.618   4.793   4.586 -0.1357  2.3275 -0.6937
17704TIP3    H274604   6.701   4.827   4.708 -0.5456 -0.6899  0.5254
17705TIP3   OH274605   5.564   4.886   6.864 -0.2425 -0.1018 -0.0459
17705TIP3    H174606   5.548   4.978   6.845 -1.1204 -0.2956 -0.2562
17705TIP3    H274607   5.498   4.838   6.815 -0.4930 -0.7866  0.9165
17706TIP3   OH274608   4.525   1.432  15.026 -0.2009  0.6877  0.0610
17706TIP3    H174609   4.460   1.457  15.091  2.2225  0.3223  2.8628
17706TIP3    H274610   4.607   1.427  15.075  1.1475 -3.8637 -2.0853
17707TIP3   OH274611   0.871   1.733   4.670  0.3062  0.0605  0.2551
17707TIP3    H174612   0.950   1.682   4.654  0.8308  0.8159  0.3791
17707TIP3    H274613   0.833   1.696   4.749  0.3650 -0.5075  0.0206
17708TIP3   OH274614   1.675   3.360   1.843  0.3327  0.1220  0.3852
17708TIP3    H174615   1.681   3.430   1.779 -0.3398  0.0278  0.2127
17708TIP3    H274616   1.583   3.335   1.843  0.8032 -1.8557 -0.7316
17709TIP3   OH274617   6.619   1.676  15.041 -0.3782 -0.2479  0.4069
17709TIP3    H174618   6.651   1.763  15.016  0.9182 -0.3303  1.6628
17709TIP3    H274619   6.669   1.615  14.986 -0.9558 -0.2338 -0.1451
17710TIP3   OH274620   1.039   2.109   4.355  0.2385 -1.1150 -0.4398
17710TIP3    H174621   1.013   2.049   4.424  0.3305 -0.3020  0.3109
17710TIP3    H274622   1.071   2.187   4.400 -0.2717 -0.3217 -1.3867
17711TIP3   OH274623   4.672   6.160  12.823  0.1183  0.3717 -0.3001
17711TIP3    H174624   4.688   6.100  12.896 -0.2828 -0.7118 -1.0743
17711TIP3    H274625   4.577   6.175  12.825  0.0706  0.1443 -0.7329
17712TIP3   OH274626   6.401   4.888   1.340 -0.2575  0.9622  0.2686
17712TIP3    H174627   6.327   4.937   1.375  0.2573  1.2712  0.9491
17712TIP3    H274628   6.478   4.934   1.372  0.2772 -0.9949  2.0406
17713TIP3   OH274629   3.317   0.816  11.268  0.2044 -0.3328  0.2986
17713TIP3    H174630   3.297   0.813  11.175  1.1954 -0.2986  0.0766
17713TIP3    H274631   3.411   0.804  11.273  0.4145  1.3925  1.1963
17714TIP3   OH274632   0.360   0.963   3.011  0.2309 -0.4542 -0.1513
17714TIP3    H174633   0.281   1.016   3.001 -0.1687 -1.1597 -0.8327
17714TIP3    H274634   0.330   0.885   3.059  0.8963  0.1018  1.2273
17715TIP3   OH274635   1.124   4.131  15.062 -0.1809  0.3075  0.6594
17715TIP3    H174636   1.147   4.220  15.085  0.1295 -0.2406  2.6629
17715TIP3    H274637   1.182   4.109  14.989 -1.7139  2.3834 -1.3199
17716TIP3   OH274638   6.098   2.908   4.708  0.5007  0.3679  0.2023
17716TIP3    H174639   6.030   2.969   4.736  1.6124  0.9249  1.8570
17716TIP3    H274640   6.106   2.847   4.781  1.4691  0.0518 -0.1611
17717TIP3   OH274641   4.141   0.746  15.547  0.0973  0.4893 -0.3059
17717TIP3    H174642   4.074   0.682  15.572  0.1424  0.8440  0.8083
17717TIP3    H274643   4.207   0.738  15.615  1.9862 -0.9455 -2.2019
17718TIP3   OH274644   2.063   1.664  15.197 -0.2309  0.6131 -0.5519
17718TIP3    H174645   1.997   1.603  15.230  0.8163  0.1253  0.7681
17718TIP3    H274646   2.030   1.693  15.113 -1.8128 -0.1002 -0.2082
17719TIP3   OH274647   3.373   1.536   5.352 -0.1438 -0.6336  0.2463
17719TIP3    H174648   3.348   1.482   5.427  0.2095  0.0855  0.8851
17719TIP3    H274649   3.331   1.620   5.368  0.0069 -0.4454 -0.3243
17720TIP3   OH274650   5.506   6.598   5.368  0.2504  0.2240 -0.1369
17720TIP3    H174651   5.588   6.628   5.408  0.5005 -1.6554  0.8396
17720TIP3    H274652   5.438   6.643   5.419  0.6218 -0.6069  1.1459
17721TIP3   OH274653   2.222   4.045   4.485  0.2900  0.0193  0.4934
17721TIP3    H174654   2.159   3.988   4.441  0.2442  0.3842  0.0843
17721TIP3    H274655   2.170   4.121   4.512  0.7865  0.9023 -0.9442
17722TIP3   OH274656   5.110   3.860  16.447 -0.6378 -0.4592  0.0420
17722TIP3    H174657   5.041   3.924  16.433  0.6701  1.3920  1.6467
17722TIP3    H274658   5.126   3.823  16.359 -1.2829  1.5739 -0.9937
17723TIP3   OH274659   4.306   5.396   5.501 -0.7326  0.2231 -0.3359
17723TIP3    H174660   4.369   5.465   5.522 -0.8522 -0.3806  2.2914
17723TIP3    H274661   4.269   5.423   5.416  0.0708  2.7568  0.0286
17724TIP3   OH274662   6.772   0.704  13.622 -0.8910 -0.1533 -0.2589
17724TIP3    H174663   6.806   0.775  13.677 -0.6851 -0.2886 -0.2064
17724TIP3    H274664   6.815   0.626  13.657 -0.0453 -0.1233 -1.2027
17725TIP3   OH274665   3.494   6.100  13.772  0.1665  0.3661  1.2153
17725TIP3    H174666   3.446   6.154  13.834  1.5293  1.1345  1.6435
17725TIP3    H274667   3.566   6.156  13.741  2.3173 -1.4904  2.4964
17726TIP3   OH274668   0.204   6.409  14.296  0.0378  0.2812  0.4906
17726TIP3    H174669   0.286   6.374  14.330  1.2302  1.8110 -0.7051
17726TIP3    H274670   0.168   6.338  14.244  0.6956 -0.3281  0.8462
17727TIP3   OH274671   1.334   0.718   3.777 -0.2561 -0.2526  0.0849
17727TIP3    H174672   1.390   0.785   3.817 -0.9440 -0.3762  1.3065
17727TIP3    H274673   1.248   0.760   3.770 -0.5684 -0.8199  0.3956
17728TIP3   OH274674   6.321   5.578  11.276 -0.7919 -0.4867  0.2380
17728TIP3    H174675   6.240   5.629  11.274 -0.8989 -0.6246  0.9059
17728TIP3    H274676   6.310   5.514  11.205 -0.5539  0.5459 -0.7637
17729TIP3   OH274677   1.789   1.740   3.408 -0.5316  0.1665  0.3079
17729TIP3    H174678   1.720   1.695   3.457 -1.7280  2.1592  0.5579
17729TIP3    H274679   1.776   1.713   3.317 -0.4745 -0.8805  0.6015
17730TIP3   OH274680   5.067   4.839   4.628 -1.2748  0.2111  0.6894
17730TIP3    H174681   5.032   4.872   4.545 -0.0972  0.1278  0.1177
17730TIP3    H274682   5.103   4.753   4.605 -0.0754  0.5923  1.0511
17731TIP3   OH274683   2.823   2.028   5.399  0.0073 -0.2256  0.2171
17731TIP3    H174684   2.788   2.116   5.384 -1.0595 -0.8730 -1.4674
17731TIP3    H274685   2.837   1.993   5.311  0.6775 -1.6368  0.8518
17732TIP3   OH274686   1.292   6.061  14.977  0.0083 -0.4902  0.1983
17732TIP3    H174687   1.246   5.980  14.958 -2.0907  0.0422  2.4770
17732TIP3    H274688   1.353   6.038  15.048  0.5275 -0.3777 -0.2029
17733TIP3   OH274689   4.700   3.460   3.001  0.1845 -0.5645 -0.3882
17733TIP3    H174690   4.765   3.403   3.042  0.6887 -0.4670 -1.0402
17733TIP3    H274691   4.751   3.531   2.962 -0.3809 -0.0488 -0.2065
17734TIP3   OH274692   4.529   4.899   4.870  0.5984  0.1460  0.9118
17734TIP3    H174693   4.447   4.856   4.891  0.1504 -0.4321 -1.6527
17734TIP3    H274694   4.596   4.831   4.880  0.7621  0.5169  2.6292
17735TIP3   OH274695   6.720   3.210  17.439 -0.3246 -0.4058  0.2387
17735TIP3    H174696   6.701   3.207  17.345  3.9254 -0.3556 -0.8014
17735TIP3    H274697   6.713   3.303  17.462  0.6224 -0.1217 -0.5626
17736TIP3   OH274698   0.269   2.878  12.057 -0.2029  0.2792 -0.5723
17736TIP3    H174699   0.242   2.969  12.052 -1.1545 -0.0531 -2.6818
17736TIP3    H274700   0.188   2.830  12.076  0.0753 -0.2265 -0.6456
17737TIP3   OH274701   2.752   1.572  17.212 -0.3942  0.1895  0.2446
17737TIP3    H174702   2.659   1.591  17.199 -0.4855 -0.1578  0.3919
17737TIP3    H274703   2.794   1.601  17.131 -0.8590 -1.2665 -0.5399
17738TIP3   OH274704   4.676   5.314  17.182  0.4967 -0.3118 -0.0509
17738TIP3    H174705   4.748   5.376  17.174 -1.1922  1.7225 -0.3454
17738TIP3    H274706   4.662   5.305  17.276  0.6872 -0.2034 -0.0120
17739TIP3   OH274707   0.267   6.386  12.645  0.0323  0.7232  0.0350
17739TIP3    H174708   0.306   6.433  12.719 -0.2613 -0.1163  0.7428
17739TIP3    H274709   0.316   6.304  12.640 -0.3377  0.5178 -0.3316
17740TIP3   OH274710   0.039   2.974  12.322 -0.1309  0.3240 -0.3094
17740TIP3    H174711   0.101   2.961  12.393 -0.3981  2.9821  0.5233
17740TIP3    H274712  -0.039   3.011  12.364 -1.5921 -1.1268 -1.5896
17741TIP3   OH274713   5.435   2.959   4.536 -0.5930  0.0647 -0.0822
17741TIP3    H174714   5.390   3.018   4.597  0.1459 -0.6852  1.2294
17741TIP3    H274715   5.524   2.955   4.569  0.0326  0.2176 -1.6804
17742TIP3   OH274716   5.063   3.762   5.441 -0.4230  0.4151 -0.4057
17742TIP3    H174717   5.046   3.853   5.417 -1.5878  0.3642  0.1453
17742TIP3    H274718   5.051   3.713   5.360 -1.9107  0.5249 -0.2776
17743TIP3   OH274719   5.067   0.827   3.588  0.2908 -0.3734  0.1393
17743TIP3    H174720   5.077   0.732   3.582  1.6935 -0.4546  2.5405
17743TIP3    H274721   4.981   0.845   3.550 -0.2249 -2.6656  0.1130
17744TIP3   OH274722   1.086   2.047   0.715  0.2883 -0.9894  0.4492
17744TIP3    H174723   1.080   1.996   0.634 -0.0838 -0.3728  0.0771
17744TIP3    H274724   1.064   2.136   0.688 -1.9776 -1.1357  1.6277
17745TIP3   OH274725   5.493   3.597  16.919  0.1221 -0.5026 -0.1106
17745TIP3    H174726   5.510   3.655  16.994 -1.3436  0.5493 -0.5386
17745TIP3    H274727   5.398   3.599  16.909  0.1673 -1.8902 -1.0402
17746TIP3   OH274728   5.074   4.099  11.092 -0.2898 -0.0196  0.7880
17746TIP3    H174729   5.101   4.155  11.019  1.6480 -1.4214  0.3225
17746TIP3    H274730   5.099   4.147  11.170 -1.5520  1.1039  0.5306
17747TIP3   OH274731   6.126   6.021   1.045 -0.0057 -0.1678  0.3950
17747TIP3    H174732   6.200   6.008   1.104  2.8608  0.0079 -2.7977
17747TIP3    H274733   6.099   6.111   1.060  2.0075  0.5326  0.1384
17748TIP3   OH274734   0.953   0.831   4.011  0.3871  0.6034 -0.8869
17748TIP3    H174735   0.920   0.874   4.090 -0.0986 -1.2224 -0.0248
17748TIP3    H274736   1.030   0.782   4.042  1.4661  1.5151 -2.0152
17749TIP3   OH274737   3.030   0.614   0.721 -0.0733 -0.2343 -0.6957
17749TIP3    H174738   3.046   0.519   0.718 -1.3710 -0.4679 -0.9406
17749TIP3    H274739   2.963   0.624   0.788  0.9745  0.6745  0.2433
17750TIP3   OH274740   5.118   0.239  11.044  0.1015  0.3057  0.1949
17750TIP3    H174741   5.180   0.232  10.971  0.3408 -0.1045  0.4371
17750TIP3    H274742   5.047   0.180  11.020 -0.0764  0.5783  0.0421
17751TIP3   OH274743   0.454   1.965   1.170 -0.0036 -0.0698  0.2585
17751TIP3    H174744   0.368   1.953   1.211  0.0939  1.9293  1.1834
17751TIP3    H274745   0.469   2.060   1.174  1.8456 -0.2756 -0.7333
17752TIP3   OH274746   5.396   0.966   2.890 -0.0733 -0.4577 -0.3439
17752TIP3    H174747   5.346   1.014   2.824 -0.0254  0.3115  0.1567
17752TIP3    H274748   5.488   0.985   2.868 -0.0010  2.7898  1.9240
17753TIP3   OH274749   4.721   6.211  13.750 -0.0375 -0.2464  0.2616
17753TIP3    H174750   4.708   6.131  13.800  0.9373 -0.4679  0.1788
17753TIP3    H274751   4.817   6.219  13.742 -0.1570 -0.0674 -1.3116
17754TIP3   OH274752   1.360   4.096   3.804 -1.1528 -0.1510 -0.4362
17754TIP3    H174753   1.357   4.172   3.862  0.7501  0.0336 -0.5080
17754TIP3    H274754   1.415   4.124   3.731  0.4938 -1.8639  0.0535
17755TIP3   OH274755   6.240   5.249   0.727 -0.3277 -0.1936 -0.2515
17755TIP3    H174756   6.202   5.326   0.685 -1.3061 -0.2165  0.5532
17755TIP3    H274757   6.214   5.256   0.819  0.0377 -1.1916 -0.0571
17756TIP3   OH274758   2.378   1.094   4.441 -0.3260  0.1887 -0.2117
17756TIP3    H174759   2.330   1.104   4.523  1.2554 -1.2833  0.9720
17756TIP3    H274760   2.329   1.146   4.378 -0.7953  2.5765  1.9616
17757TIP3   OH274761   6.570   2.387  11.344  0.3648 -0.1905  0.5371
17757TIP3    H174762   6.619   2.462  11.377 -1.2446  0.5927  1.2466
17757TIP3    H274763   6.627   2.349  11.277  1.8850  0.7158  1.2601
17758TIP3   OH274764   2.447   3.136  11.801 -0.4153 -0.0706  0.0632
17758TIP3    H174765   2.459   3.199  11.872  1.1989 -1.1847  0.8292
17758TIP3    H274766   2.395   3.066  11.840 -0.6979 -0.0479 -0.2690
17759TIP3   OH274767   6.053   3.483  12.906 -0.0068 -0.8880  0.2601
17759TIP3    H174768   6.116   3.485  12.978  1.2819 -2.0169 -0.7816
17759TIP3    H274769   6.031   3.390  12.896 -0.6698 -0.6724 -0.3656
17760TIP3   OH274770   2.493   5.522   1.235 -0.6324  0.5067  0.4937
17760TIP3    H174771   2.461   5.437   1.204 -0.5635 -0.1714  2.1545
17760TIP3    H274772   2.455   5.531   1.322  1.4090  0.9729  1.4075
17761TIP3   OH274773   2.359   5.295  11.887 -0.3588  0.0777  0.0902
17761TIP3    H174774   2.387   5.339  11.807 -1.2752 -3.6631 -2.6095
17761TIP3    H274775   2.264   5.305  11.887 -0.4340 -0.6007  0.2333
17762TIP3   OH274776   2.509   6.017   2.461  0.7466 -0.5896  0.4023
17762TIP3    H174777   2.451   6.092   2.454 -0.6433 -1.7155 -0.6631
17762TIP3    H274778   2.553   6.029   2.546 -0.4471  0.6997  0.8815
17763TIP3   OH274779   3.830   5.623  13.191 -0.2111  0.1522  0.1288
17763TIP3    H174780   3.899   5.688  13.177 -0.5018  0.2158 -1.1121
17763TIP3    H274781   3.855   5.580  13.273  0.4073  1.2853  0.5662
17764TIP3   OH274782   4.305   2.246  13.985 -0.2553  0.4464 -0.2869
17764TIP3    H174783   4.264   2.182  14.043 -0.1902 -0.2124 -0.9482
17764TIP3    H274784   4.353   2.304  14.043 -0.1140 -0.2523  0.3110
17765TIP3   OH274785   4.797   6.518  17.252  0.1680 -0.1149  0.4373
17765TIP3    H174786   4.812   6.571  17.330  0.0696 -0.4588  0.6943
17765TIP3    H274787   4.736   6.450  17.281  0.1363 -0.2484  0.0632
17766TIP3   OH274788   1.173   3.506   1.267 -0.6444  0.3690  0.3294
17766TIP3    H174789   1.143   3.573   1.328 -2.0348  0.3536 -0.2907
17766TIP3    H274790   1.189   3.553   1.185 -0.7459  0.1008  0.1502
17767TIP3   OH274791   0.718   3.003   1.625 -0.4333  0.0482 -0.3744
17767TIP3    H174792   0.640   2.954   1.649  1.1999 -1.8701  1.5157
17767TIP3    H274793   0.697   3.045   1.542 -3.0441 -1.2896 -0.4655
17768TIP3   OH274794   0.272   6.176  16.165 -0.0043  0.0273 -0.3193
17768TIP3    H174795   0.220   6.097  16.151 -0.3479  0.1474  0.2538
17768TIP3    H274796   0.360   6.153  16.136 -0.5104  0.0295 -1.9560
17769TIP3   OH274797   5.874   3.924  12.949 -0.0641 -0.3911 -0.0253
17769TIP3    H174798   5.840   3.835  12.935  1.4395 -0.8181 -1.0900
17769TIP3    H274799   5.964   3.921  12.919  0.3389  1.2443  0.9081
17770TIP3   OH274800   3.125   1.379   2.128  0.1477  0.1546 -0.4074
17770TIP3    H174801   3.085   1.393   2.214 -0.4310  0.4487 -0.7129
17770TIP3    H274802   3.171   1.461   2.110 -0.3082  0.3524 -0.6761
17771TIP3   OH274803   5.786   1.110  13.939  0.0335  0.4295 -0.1447
17771TIP3    H174804   5.760   1.170  13.869  3.2535  2.9500  0.5690
17771TIP3    H274805   5.857   1.058  13.900  0.6739  0.6647  0.6660
17772TIP3   OH274806   5.526   5.253   5.549  0.5363  0.0791 -1.0649
17772TIP3    H174807   5.572   5.210   5.621 -1.3025  2.0528  1.4797
17772TIP3    H274808   5.548   5.346   5.559 -1.3967  0.6511 -1.7438
17773TIP3   OH274809   3.267   1.283   5.389  0.4156 -0.0946 -0.1089
17773TIP3    H174810   3.278   1.238   5.473 -1.1430  0.6328  0.5408
17773TIP3    H274811   3.356   1.306   5.362  0.9474 -0.1510  1.4756
17774TIP3   OH274812   3.913   1.049   1.753 -0.3595  0.3322  0.2804
17774TIP3    H174813   3.911   1.114   1.683 -1.4577  0.3833  0.3339
17774TIP3    H274814   3.860   1.087   1.823  0.7585  0.2977  1.1661
17775TIP3   OH274815   3.962   1.897   3.711  0.0144 -0.2869 -0.3873
17775TIP3    H174816   3.892   1.881   3.774 -0.4345 -0.5916 -0.9519
17775TIP3    H274817   4.042   1.897   3.763 -0.3763 -0.2859  0.2162
17776TIP3   OH274818   1.329   5.999  11.816 -0.0484  0.2745 -0.6584
17776TIP3    H174819   1.306   6.047  11.896  2.4093  0.5063 -0.0136
17776TIP3    H274820   1.423   6.013  11.806 -0.2776  0.3441 -3.6774
17777TIP3   OH274821   4.923   1.698  15.120 -0.4290 -0.2068 -0.0125
17777TIP3    H174822   4.855   1.722  15.183 -0.3509  0.2137 -0.0866
17777TIP3    H274823   4.971   1.627  15.162 -1.2628 -0.8995 -0.1869
17778TIP3   OH274824   3.966   0.118  13.442  0.0697 -0.1261 -0.1843
17778TIP3    H174825   4.018   0.038  13.430 -1.0645 -0.8857 -0.2720
17778TIP3    H274826   3.951   0.123  13.536  0.2558  0.0613 -0.1648
17779TIP3   OH274827   0.852   1.123   1.675 -0.1295 -0.0729  0.0209
17779TIP3    H174828   0.939   1.094   1.701 -0.2083  0.1262  0.5149
17779TIP3    H274829   0.857   1.131   1.580  0.2314 -0.5813 -0.0048
17780TIP3   OH274830   1.457   0.210   4.018  0.3548 -0.3905 -0.3718
17780TIP3    H174831   1.443   0.166   3.933  3.2413  0.5472 -1.4777
17780TIP3    H274832   1.421   0.298   4.006 -0.3216 -0.6363 -0.1772
17781TIP3   OH274833   1.663   3.504  11.527 -0.2492  0.4233  0.3952
17781TIP3    H174834   1.715   3.565  11.475  0.2940 -0.5356 -0.2167
17781TIP3    H274835   1.576   3.544  11.529 -0.6787 -0.1183 -2.4290
17782TIP3   OH274836   2.737   2.874   2.812 -0.7239 -0.2878  0.0078
17782TIP3    H174837   2.824   2.913   2.810 -0.2194 -0.9430  3.1842
17782TIP3    H274838   2.683   2.937   2.861 -0.7451 -1.8982  2.2247
17783TIP3   OH274839   6.629   0.289  13.283  0.0365 -0.6876  0.2161
17783TIP3    H174840   6.603   0.327  13.367 -0.0748 -1.8867  0.7524
17783TIP3    H274841   6.549   0.293  13.230 -0.5209 -1.8498  0.9181
17784TIP3   OH274842   1.931   2.958   2.158  0.2407 -0.1627 -0.0255
17784TIP3    H174843   1.948   3.022   2.227 -2.4238 -0.1122  0.6848
17784TIP3    H274844   1.970   2.877   2.190  0.2170  0.1888  0.9328
17785TIP3   OH274845   0.396   2.336  13.289 -0.1339  0.3801 -0.5607
17785TIP3    H174846   0.407   2.348  13.383  1.4501  0.0404 -0.6798
17785TIP3    H274847   0.387   2.425  13.254 -0.8350  0.5016 -0.0965
17786TIP3   OH274848   2.432   4.051  12.646  0.2940 -0.0106 -0.3010
17786TIP3    H174849   2.456   4.079  12.558 -0.3615  0.6598 -0.2765
17786TIP3    H274850   2.472   4.117  12.703 -2.0853  1.5382 -0.2902
17787TIP3   OH274851   0.146   1.860  17.126 -0.3167 -0.5507 -0.2859
17787TIP3    H174852   0.170   1.790  17.188 -2.3185 -1.9974 -1.0348
17787TIP3    H274853   0.053   1.846  17.109  0.0605  0.0178 -3.3530
17788TIP3   OH274854   1.858   0.547   1.856 -0.4817  0.0897  0.0322
17788TIP3    H174855   1.937   0.552   1.910 -0.1698  0.2054 -0.4299
17788TIP3    H274856   1.875   0.474   1.796 -0.3990  0.6028 -0.5807
17789TIP3   OH274857   3.589   4.568  11.461 -0.2449  0.3100  0.1438
17789TIP3    H174858   3.588   4.541  11.370  0.1202  0.7303  0.0093
17789TIP3    H274859   3.675   4.541  11.493  0.1923  1.4260 -0.0389
17790TIP3   OH274860   2.244   1.168  13.218 -1.0266 -0.4167 -0.6676
17790TIP3    H174861   2.204   1.094  13.172 -1.9545  0.6529 -1.6709
17790TIP3    H274862   2.212   1.245  13.171 -1.2512  0.7044  1.2126
17791TIP3   OH274863   4.418   1.532  13.596 -0.2973 -0.2564 -0.3915
17791TIP3    H174864   4.384   1.460  13.542 -0.5904  1.5477 -2.8213
17791TIP3    H274865   4.340   1.585  13.615  0.4473  2.1368 -3.1857
17792TIP3   OH274866   0.096   2.411  16.270 -0.4190  0.5956 -0.0674
17792TIP3    H174867   0.023   2.467  16.297  0.5375  0.9851  1.9823
17792TIP3    H274868   0.170   2.441  16.324  0.3720 -2.0029  0.4469
17793TIP3   OH274869   1.438   0.655   2.500  0.0068 -0.1948 -0.4445
17793TIP3    H174870   1.500   0.582   2.496  1.3717  0.9350 -0.8628
17793TIP3    H274871   1.480   0.725   2.449 -0.9385  1.1147  0.5055
17794TIP3   OH274872   2.817   2.040   0.474  0.4824 -0.3964 -0.1179
17794TIP3    H174873   2.888   2.005   0.528  1.2844  2.1306  0.5839
17794TIP3    H274874   2.821   2.135   0.487 -1.9001 -0.0276 -1.4795
17795TIP3   OH274875   0.534   4.369  13.479 -0.0832 -0.1394 -0.0760
17795TIP3    H174876   0.558   4.391  13.389 -2.0667 -1.9170 -1.1384
17795TIP3    H274877   0.548   4.275  13.485  0.5287  0.0270  1.6949
17796TIP3   OH274878   0.971   6.275  14.299  1.2481  0.2906  0.4207
17796TIP3    H174879   0.964   6.353  14.355 -1.1218  1.4215 -1.2778
17796TIP3    H274880   0.966   6.201  14.361  2.0821  1.4493  1.9522
17797TIP3   OH274881   5.878   2.655   2.557  0.2583  0.3730  0.5510
17797TIP3    H174882   5.834   2.655   2.642  2.2394  0.8695  1.6382
17797TIP3    H274883   5.970   2.639   2.577  0.3921 -2.8968 -1.8117
17798TIP3   OH274884   0.877   0.711  15.811 -0.3426 -0.8225  0.3212
17798TIP3    H174885   0.969   0.736  15.806 -0.7006  0.7808  1.0584
17798TIP3    H274886   0.863   0.652  15.736  0.9197  0.0885 -0.6607
17799TIP3   OH274887   1.841   4.527   4.716  0.6566 -0.2562  0.4458
17799TIP3    H174888   1.874   4.586   4.649  0.6719 -0.1488  0.5474
17799TIP3    H274889   1.919   4.486   4.753  0.6467 -0.3326  0.3827
17800TIP3   OH274890   1.936   1.207  13.269 -0.1699  0.0280 -0.4669
17800TIP3    H174891   1.934   1.134  13.330 -1.4404  0.3779 -0.0589
17800TIP3    H274892   1.963   1.282  13.321 -1.6151  0.4046 -0.2007
17801TIP3   OH274893   1.726   3.712   5.952  0.3004  0.0350 -0.0422
17801TIP3    H174894   1.806   3.703   5.901 -0.3181  0.4009 -1.1001
17801TIP3    H274895   1.690   3.623   5.957  0.8427 -0.1564  0.5705
17802TIP3   OH274896   1.990   3.475  11.506  0.4387 -0.5159  0.7065
17802TIP3    H174897   1.935   3.539  11.551 -0.5787 -1.2012  0.4933
17802TIP3    H274898   2.020   3.416  11.576  3.1182  1.3126  1.2539
17803TIP3   OH274899   5.480   3.752  13.789 -0.0868  0.3288 -0.3618
17803TIP3    H174900   5.411   3.711  13.737  1.1084 -0.3857 -1.4818
17803TIP3    H274901   5.488   3.697  13.867 -1.3257  0.9104  0.1939
17804TIP3   OH274902   0.718   1.425  13.821 -0.2233  0.4693  0.1392
17804TIP3    H174903   0.731   1.442  13.914 -0.1250  1.4892 -0.0472
17804TIP3    H274904   0.735   1.509  13.779  0.1083 -0.0765 -0.8398
17805TIP3   OH274905   5.492   2.490  17.423  0.0089  0.5845 -0.4236
17805TIP3    H174906   5.428   2.537  17.369 -0.1222  2.0051  0.9020
17805TIP3    H274907   5.505   2.546  17.500  1.1622 -0.7537  0.4130
17806TIP3   OH274908   5.162   2.376  17.306  0.1217 -0.0463 -0.2019
17806TIP3    H174909   5.165   2.469  17.282  1.1795 -0.1024 -0.3435
17806TIP3    H274910   5.070   2.360  17.328 -0.2223  0.8499 -0.8915
17807TIP3   OH274911   6.218   0.597   1.329  0.2423 -0.1027  0.1104
17807TIP3    H174912   6.184   0.510   1.347 -0.4654  0.0287 -0.5109
17807TIP3    H274913   6.153   0.657   1.366  0.9930  0.1699  1.0132
17808TIP3   OH274914   6.258   1.770  14.407 -0.2953  0.1264  0.2270
17808TIP3    H174915   6.278   1.702  14.343 -1.0639  0.1238 -0.0202
17808TIP3    H274916   6.286   1.733  14.491 -0.3763 -0.3486  0.0469
17809TIP3   OH274917   0.904   4.801  15.632  0.1311 -0.5455 -0.3087
17809TIP3    H174918   0.808   4.808  15.633  0.1729  0.8306 -1.5602
17809TIP3    H274919   0.933   4.871  15.692  0.3609  0.4307 -1.5248
17810TIP3   OH274920   3.407   0.565   5.891  0.6118  0.1559  0.8972
17810TIP3    H174921   3.405   0.594   5.800  2.1189 -1.3224  0.3481
17810TIP3    H274922   3.478   0.617   5.931  0.4623  0.2557  1.0362
17811TIP3   OH274923   0.347   5.177   2.833 -0.4330 -0.0357  0.0754
17811TIP3    H174924   0.294   5.111   2.788 -0.1490  0.0719 -0.4336
17811TIP3    H274925   0.384   5.132   2.909  1.7583 -1.2368 -1.5657
17812TIP3   OH274926   3.843   3.803  15.846  0.0241  0.3588 -0.2139
17812TIP3    H174927   3.869   3.823  15.756  0.3761  0.5067 -0.0823
17812TIP3    H274928   3.781   3.731  15.837  1.2501 -0.7006 -0.4843
17813TIP3   OH274929   3.200   6.399  15.294  0.0923  0.0417  0.2137
17813TIP3    H174930   3.146   6.409  15.372 -0.5426 -1.1426 -0.0463
17813TIP3    H274931   3.289   6.420  15.322 -0.1568 -0.2001  1.2061
17814TIP3   OH274932   0.300   3.761   3.086  0.4721  0.0195 -0.4299
17814TIP3    H174933   0.335   3.762   2.997  1.1442 -0.5086 -0.1717
17814TIP3    H274934   0.249   3.842   3.091 -1.9776 -1.2511 -2.2268
17815TIP3   OH274935   0.198   2.085  13.806 -0.0331  0.3390 -0.0263
17815TIP3    H174936   0.125   2.023  13.803 -0.7005  1.0456  1.0279
17815TIP3    H274937   0.221   2.091  13.899  0.7863  0.8021 -0.2446
17816TIP3   OH274938   0.907   3.874  16.264  0.3639  0.0998  0.1291
17816TIP3    H174939   0.862   3.824  16.196  1.4371  1.1918 -1.4496
17816TIP3    H274940   0.842   3.938  16.293 -0.2888 -0.7454  0.5758
17817TIP3   OH274941   0.255   1.092   2.733  0.4476 -0.8772 -0.4080
17817TIP3    H174942   0.333   1.139   2.762 -1.2371  2.5620 -0.9494
17817TIP3    H274943   0.266   1.082   2.639  0.7552 -1.5354 -0.3088
17818TIP3   OH274944   5.847   4.522   0.951 -0.9887 -0.0302 -0.8467
17818TIP3    H174945   5.928   4.503   0.998 -0.8799  0.8858 -0.6463
17818TIP3    H274946   5.855   4.614   0.925 -2.9718  0.8203  1.2323
17819TIP3   OH274947   5.581   6.328   3.164 -0.1180  0.1275  0.1046
17819TIP3    H174948   5.528   6.262   3.119 -2.2542  2.0545 -0.3958
17819TIP3    H274949   5.555   6.411   3.124  2.1700  1.3475  0.9809
17820TIP3   OH274950   0.761   0.688  13.577 -0.7035  1.2023  0.2064
17820TIP3    H174951   0.831   0.753  13.581  0.7216 -0.2867  0.4971
17820TIP3    H274952   0.739   0.682  13.484 -0.1268  1.3501  0.0575
17821TIP3   OH274953   2.603   6.266  17.012 -0.6657 -0.4721  0.4188
17821TIP3    H174954   2.680   6.314  16.982 -2.2266  1.5922 -0.5607
17821TIP3    H274955   2.638   6.186  17.050  1.8058 -0.8742 -2.3122
17822TIP3   OH274956   4.336   3.838  11.422 -0.1828 -0.4753 -0.3273
17822TIP3    H174957   4.380   3.791  11.493  1.5213  0.1600 -0.8941
17822TIP3    H274958   4.384   3.812  11.343 -0.9477  0.1263 -1.0127
17823TIP3   OH274959   1.334   5.558   2.203 -0.1247 -0.1111  0.1718
17823TIP3    H174960   1.285   5.479   2.180  1.7616 -1.4163  0.3764
17823TIP3    H274961   1.417   5.525   2.237  0.9792  1.9999 -0.3274
17824TIP3   OH274962   1.796   0.799  15.014  0.2155  0.1213  0.3652
17824TIP3    H174963   1.875   0.750  15.038  0.3354  0.5550  0.8653
17824TIP3    H274964   1.809   0.822  14.922 -0.4182 -1.8895 -0.2921
17825TIP3   OH274965   3.280   2.073  11.397 -0.1117  0.2460  0.0460
17825TIP3    H174966   3.287   2.103  11.488  0.6272 -0.1676  0.1305
17825TIP3    H274967   3.336   1.995  11.393 -1.4279 -0.7194 -0.3470
17826TIP3   OH274968   5.581   4.640  13.032 -0.6727  0.0918  0.2731
17826TIP3    H174969   5.525   4.642  12.954 -1.2618  0.8450  0.6932
17826TIP3    H274970   5.525   4.603  13.100  0.6154 -2.9588 -0.1957
17827TIP3   OH274971   4.810   0.454   5.792  0.0616  0.6455 -0.2136
17827TIP3    H174972   4.865   0.444   5.714  0.5345 -2.3229  0.3740
17827TIP3    H274973   4.867   0.430   5.865 -1.4032 -0.4979  0.6193
17828TIP3   OH274974   1.837   2.076   4.734  0.8705 -0.6079  0.5747
17828TIP3    H174975   1.754   2.115   4.762  1.6803  2.6315 -1.0439
17828TIP3    H274976   1.820   1.982   4.734 -1.9774 -0.2352  2.7029
17829TIP3   OH274977   5.289   1.613   5.044 -0.3078 -0.0844 -0.0564
17829TIP3    H174978   5.383   1.603   5.055 -0.3155 -1.4078 -1.0368
17829TIP3    H274979   5.251   1.535   5.082 -0.9080 -0.2368 -0.9262
17830TIP3   OH274980   0.200   5.059  11.746  0.3566  0.0498  0.1010
17830TIP3    H174981   0.281   5.007  11.746  1.4731  1.7050  0.9977
17830TIP3    H274982   0.198   5.099  11.659  0.7183  0.3167  0.2135
17831TIP3   OH274983   1.512   6.166  15.282 -0.4465  0.8130  0.5033
17831TIP3    H174984   1.520   6.168  15.377  1.3444 -2.9481  0.6308
17831TIP3    H274985   1.471   6.081  15.264 -0.2604  1.1935 -2.0928
17832TIP3   OH274986   6.673   5.565   2.936 -0.2758  0.2586 -0.2908
17832TIP3    H174987   6.711   5.621   2.868  1.2254 -0.5013 -0.1173
17832TIP3    H274988   6.590   5.607   2.958  0.0855  1.5457 -1.2611
17833TIP3   OH274989   3.573   1.861  11.814 -0.6127  0.0662 -0.2978
17833TIP3    H174990   3.535   1.801  11.878 -0.4975 -0.0848 -0.3694
17833TIP3    H274991   3.584   1.944  11.861  0.9455 -0.4660  0.3572
17834TIP3   OH274992   1.309   4.097  14.404  0.0689 -0.5451 -0.2553
17834TIP3    H174993   1.358   4.031  14.453 -0.6695 -1.8068 -1.1726
17834TIP3    H274994   1.238   4.122  14.463  1.6970  1.2907  1.0822
17835TIP3   OH274995   2.982   4.057  16.428 -0.1929  0.5005 -0.1289
17835TIP3    H174996   2.922   3.992  16.391 -0.7448 -0.6467  2.4779
17835TIP3    H274997   2.928   4.135  16.442 -0.4415  0.3134 -0.0463
17836TIP3   OH274998   2.072   5.934   2.609 -0.6581 -0.4341 -0.0761
17836TIP3    H174999   2.093   5.878   2.684  0.2663  0.1697  0.1385
17836TIP3    H275000   1.993   5.896   2.572 -0.2314 -1.6940  0.2474
17837TIP3   OH275001   3.495   2.859   1.922  0.0126  0.4166  0.0753
17837TIP3    H175002   3.493   2.952   1.899  0.9264  0.2987 -0.5332
17837TIP3    H275003   3.407   2.840   1.954 -0.7494  1.0684 -1.5308
17838TIP3   OH275004   1.689   4.652  12.420  0.0527  0.2772  0.3192
17838TIP3    H175005   1.664   4.617  12.335 -0.5686  0.8284  0.2622
17838TIP3    H275006   1.699   4.746  12.405 -0.4641  0.4354  0.9427
17839TIP3   OH275007   4.277   1.009  16.356 -0.4375 -0.1736  0.1544
17839TIP3    H175008   4.245   1.016  16.447 -1.5467  2.3676 -0.3268
17839TIP3    H275009   4.198   0.992  16.305 -0.3722  1.6322 -0.6086
17840TIP3   OH275010   3.642   3.802   2.447  0.4260 -0.0238  0.3499
17840TIP3    H175011   3.713   3.851   2.404 -0.0441  0.6928  0.3767
17840TIP3    H275012   3.653   3.820   2.540 -0.4856  1.0503  0.2651
17841TIP3   OH275013   4.209   4.762  13.976 -0.5763  0.0827  0.2231
17841TIP3    H175014   4.210   4.695  13.907 -1.2674  0.9640 -0.6885
17841TIP3    H275015   4.144   4.826  13.945 -1.0622  0.3998  1.8104
17842TIP3   OH275016   2.515   4.198  16.589  0.5670 -0.3893  0.1710
17842TIP3    H175017   2.433   4.149  16.592 -0.9936  2.1288  0.8192
17842TIP3    H275018   2.583   4.130  16.596 -1.2425 -2.8975 -3.4408
17843TIP3   OH275019   1.008   2.375  13.490 -0.0208  0.5433 -0.2549
17843TIP3    H175020   0.983   2.354  13.580  0.2500  1.0620 -0.0532
17843TIP3    H275021   0.939   2.432  13.458 -0.9403 -0.8854 -0.9223
17844TIP3   OH275022   6.407   2.362   5.739 -0.1480 -0.8051 -0.6247
17844TIP3    H175023   6.387   2.399   5.653 -1.6399  0.4536  0.2129
17844TIP3    H275024   6.493   2.321   5.728  0.2738  0.4276 -2.3835
17845TIP3   OH275025   6.679   0.980  11.205  0.0787 -0.2134  0.0562
17845TIP3    H175026   6.657   0.908  11.145 -0.9646  1.5736 -1.8637
17845TIP3    H275027   6.605   1.040  11.196  0.6871  0.8760  1.9757
17846TIP3   OH275028   2.305   5.581  11.066  0.3221 -0.4299  0.4835
17846TIP3    H175029   2.261   5.646  11.121 -2.8800 -2.1779  0.2720
17846TIP3    H275030   2.310   5.503  11.121  2.5431 -0.5753  0.1709
17847TIP3   OH275031   4.398   2.300   0.053  0.0967 -0.1650 -0.1500
17847TIP3    H175032   4.333   2.359   0.089 -0.1564  0.6535 -1.8533
17847TIP3    H275033   4.464   2.291   0.122  0.3669  2.4679  0.0302
17848TIP3   OH275034   5.731   0.689  17.186 -0.1437 -0.2653  0.0768
17848TIP3    H175035   5.825   0.688  17.205 -0.1569 -0.1451  0.1500
17848TIP3    H275036   5.724   0.647  17.100  0.0108  0.0009 -0.0710
17849TIP3   OH275037   0.616   6.111  14.178 -0.2759  0.5671  0.4122
17849TIP3    H175038   0.601   6.200  14.145 -0.3795 -0.0782 -1.3498
17849TIP3    H275039   0.677   6.072  14.116 -0.6735 -0.7844  0.8385
17850TIP3   OH275040   3.238   2.273  13.904  0.2946  0.2049  0.8786
17850TIP3    H175041   3.145   2.262  13.881  0.5656  1.5972 -1.1261
17850TIP3    H275042   3.271   2.183  13.912 -0.1933 -0.5072 -3.0943
17851TIP3   OH275043   2.130   2.239  16.607  0.0068 -0.0059 -0.0264
17851TIP3    H175044   2.208   2.184  16.599 -0.0907 -0.3073  0.9625
17851TIP3    H275045   2.059   2.187  16.569 -0.2914 -1.0618  1.8183
17852TIP3   OH275046   2.359   3.436  14.540  0.1661 -0.4162 -0.1426
17852TIP3    H175047   2.375   3.512  14.485  2.5011 -0.9937 -0.3804
17852TIP3    H275048   2.290   3.387  14.495  0.0309  0.5591 -1.0248
17853TIP3   OH275049   5.249   4.227   1.023 -0.2257 -0.3198 -0.0652
17853TIP3    H175050   5.223   4.140   0.991 -1.5048 -0.5806  1.6059
17853TIP3    H275051   5.205   4.237   1.107 -0.7297  2.2914 -0.5590
17854TIP3   OH275052   3.469   3.930  15.416  0.4234 -0.4937 -0.1856
17854TIP3    H175053   3.519   3.851  15.395 -0.1874 -1.5733  2.0878
17854TIP3    H275054   3.509   3.963  15.496 -1.5286 -0.5251  0.8419
17855TIP3   OH275055   5.769   0.852   4.333 -0.0134 -0.3233  0.1406
17855TIP3    H175056   5.858   0.883   4.313 -0.3745 -0.1586 -1.3322
17855TIP3    H275057   5.719   0.932   4.348  0.0796 -0.4169  0.9789
17856TIP3   OH275058   1.418   3.932  15.731 -0.0032  0.1597 -0.6122
17856TIP3    H175059   1.487   3.871  15.704 -0.5867 -1.2256  0.8918
17856TIP3    H275060   1.360   3.937  15.656  0.1406 -1.0357 -0.8195
17857TIP3   OH275061   1.937   6.708   1.132 -0.7355 -0.1759 -0.1637
17857TIP3    H175062   2.012   6.667   1.174 -2.7399 -2.2468  1.7103
17857TIP3    H275063   1.926   6.791   1.177 -1.1635 -1.1171  1.5876
17858TIP3   OH275064   1.366   6.204  15.775 -0.3672 -0.0606  0.2265
17858TIP3    H175065   1.297   6.173  15.833 -1.2288  1.3234 -0.0166
17858TIP3    H275066   1.355   6.154  15.695 -0.5870 -0.4034  0.4687
17859TIP3   OH275067   6.057   0.827  10.688 -0.2305  0.5343  0.2856
17859TIP3    H175068   6.053   0.917  10.721 -2.5336  0.2626  0.9337
17859TIP3    H275069   5.991   0.780  10.740  2.3132 -2.0676  1.4639
17860TIP3   OH275070   1.737   1.967  12.429 -0.3909  0.2043 -0.0502
17860TIP3    H175071   1.683   1.926  12.362 -0.0005 -1.6430  0.6960
17860TIP3    H275072   1.797   2.024  12.380 -0.0247 -1.1962 -1.3132
17861TIP3   OH275073   5.242   2.368   3.267 -0.2692 -0.4167  0.0245
17861TIP3    H175074   5.217   2.304   3.201 -0.5559  1.0463 -1.3487
17861TIP3    H275075   5.309   2.324   3.319  0.1543 -1.5396 -1.3974
17862TIP3   OH275076   2.957   4.685  13.167 -0.3992 -0.0008  0.1686
17862TIP3    H175077   2.965   4.778  13.189  1.5385  0.1220 -0.8865
17862TIP3    H275078   2.864   4.666  13.179 -0.9486  2.2232 -0.1619
17863TIP3   OH275079   5.155   3.177  16.720  0.1021  0.4029  0.0062
17863TIP3    H175080   5.107   3.221  16.650  0.6061 -1.7373 -1.7960
17863TIP3    H275081   5.222   3.126  16.674 -1.8863 -4.1098  1.6358
17864TIP3   OH275082   2.074   1.002  11.015  0.1548  0.3861 -0.7732
17864TIP3    H175083   2.170   1.001  11.019  0.1183  0.6000  1.1504
17864TIP3    H275084   2.053   0.951  10.936  1.8370  0.0314 -1.0356
17865TIP3   OH275085   6.040   2.495   5.660 -0.0925  0.0645 -0.4613
17865TIP3    H175086   5.968   2.553   5.685 -1.9150 -2.4321  0.5957
17865TIP3    H275087   6.020   2.469   5.570 -0.5302 -0.5984 -0.1809
17866TIP3   OH275088   0.975   1.603   2.433 -0.3069 -0.0590 -0.5459
17866TIP3    H175089   0.901   1.592   2.493  0.0027 -0.0414 -0.1531
17866TIP3    H275090   1.051   1.618   2.491  0.3608 -2.0030 -0.8547
17867TIP3   OH275091   2.927   1.678  16.991 -0.2398  0.1009 -0.4216
17867TIP3    H175092   2.990   1.620  16.949 -0.2743  0.3229 -0.7887
17867TIP3    H275093   2.851   1.677  16.932 -1.0697 -1.1085  0.6100
17868TIP3   OH275094   4.868   3.292  15.325  0.4434 -0.5051 -0.0263
17868TIP3    H175095   4.838   3.206  15.353  1.1185 -1.3121 -1.6768
17868TIP3    H275096   4.835   3.301  15.236  1.0083  0.6301 -0.1365
17869TIP3   OH275097   4.102   3.486   5.251 -0.0186  0.4373 -0.1390
17869TIP3    H175098   4.013   3.507   5.278 -0.1597 -0.8240  0.4299
17869TIP3    H275099   4.117   3.398   5.283  1.0514  0.2062 -1.1899
17870TIP3   OH275100   1.942   4.976  16.241  0.4720 -0.0524 -0.5458
17870TIP3    H175101   1.868   4.948  16.294 -1.1344  2.7763 -1.0721
17870TIP3    H275102   1.982   4.895  16.209 -4.0090 -1.8376 -2.4525
17871TIP3   OH275103   6.080   4.127  11.678 -0.7873 -0.2949  0.0371
17871TIP3    H175104   6.026   4.204  11.656  0.6077  0.6158 -0.3528
17871TIP3    H275105   6.118   4.100  11.594  0.2298 -0.2161  0.4587
17872TIP3   OH275106   5.662   2.001  14.109  1.0879 -0.6981  0.4286
17872TIP3    H175107   5.744   1.955  14.123  0.8384 -0.8402  1.4963
17872TIP3    H275108   5.594   1.936  14.125  0.7536 -0.3995  0.2551
17873TIP3   OH275109   5.734   0.569   2.281  0.1479  0.2653 -0.2063
17873TIP3    H175110   5.708   0.578   2.373 -0.7668 -0.2138 -0.4083
17873TIP3    H275111   5.827   0.547   2.284  0.2949  0.9430  0.5786
17874TIP3   OH275112   3.378   3.794  15.866 -0.5055 -0.2026  0.7347
17874TIP3    H175113   3.417   3.874  15.901  0.0861  0.2287 -0.8594
17874TIP3    H275114   3.286   3.816  15.852 -0.1014  0.6202 -0.8203
17875TIP3   OH275115   0.550   5.711  16.332  0.2628 -0.2965 -0.0103
17875TIP3    H175116   0.548   5.618  16.354 -0.8548  0.2644  2.6391
17875TIP3    H275117   0.466   5.728  16.291 -0.7040  0.0024  1.9786
17876TIP3   OH275118   2.104   2.263  10.521  0.2117 -0.0570  0.4399
17876TIP3    H175119   2.047   2.283  10.446  0.9625 -1.7437 -0.6384
17876TIP3    H275120   2.045   2.224  10.586 -0.1583 -0.2598 -0.0061
17877TIP3   OH275121   1.347   4.056  13.835  0.1492  0.0399  0.4403
17877TIP3    H175122   1.280   4.110  13.794 -0.0245 -0.0241  0.6344
17877TIP3    H275123   1.352   4.089  13.925 -0.6986 -0.9354  0.8685
17878TIP3   OH275124   4.259   1.685   1.627  0.4592 -0.3796  0.0760
17878TIP3    H175125   4.279   1.595   1.600  0.8112  0.0857 -1.3167
17878TIP3    H275126   4.214   1.723   1.551  0.8609  0.8039  0.4145
17879TIP3   OH275127   3.971   3.809   1.109 -0.6718  0.8237 -0.3630
17879TIP3    H175128   3.968   3.852   1.023 -0.8726 -0.3512 -0.9695
17879TIP3    H275129   3.898   3.846   1.158 -0.2883  1.8288 -0.5388
17880TIP3   OH275130   0.959   2.359  12.461  0.4375 -0.4366 -0.1087
17880TIP3    H175131   0.897   2.376  12.532  1.9867  0.3828  1.1093
17880TIP3    H275132   1.000   2.275  12.484  2.4324  0.7924  1.1898
17881TIP3   OH275133   4.204   5.435   6.210 -0.1044 -0.2957 -0.0825
17881TIP3    H175134   4.206   5.358   6.266  0.3076 -0.6126 -0.5257
17881TIP3    H275135   4.257   5.500   6.256 -0.8407 -0.1052  0.5220
17882TIP3   OH275136   4.131   0.356   3.462  0.2180  0.3922 -0.3776
17882TIP3    H175137   4.169   0.303   3.392 -0.2062  1.4549 -1.4453
17882TIP3    H275138   4.179   0.331   3.541  1.2228 -0.2748 -1.1857
17883TIP3   OH275139   3.809   4.595   1.000  0.1633 -0.3072  0.3982
17883TIP3    H175140   3.793   4.642   1.082 -0.9704 -2.0157  1.2349
17883TIP3    H275141   3.722   4.570   0.969  0.6971 -2.4262  0.4146
17884TIP3   OH275142   2.340   4.020  11.971  0.4841  0.7234  0.4104
17884TIP3    H175143   2.279   3.950  11.995 -0.6975  1.9239  1.0603
17884TIP3    H275144   2.427   3.983  11.985 -0.1128 -0.6742  0.5174
17885TIP3   OH275145   5.044   5.747  14.920 -0.0640  0.0725  0.9769
17885TIP3    H175146   4.998   5.825  14.952  0.9640  0.2002  2.1858
17885TIP3    H275147   5.136   5.772  14.918  0.0143 -0.1518 -1.5184
17886TIP3   OH275148   3.030   4.446  12.752  0.1339  0.1449 -0.1656
17886TIP3    H175149   3.034   4.499  12.672 -1.5732  2.0162  0.8980
17886TIP3    H275150   3.099   4.481  12.808  2.6274 -2.4122 -1.3901
17887TIP3   OH275151   3.776   5.631  10.879  0.3595 -0.4540  0.5230
17887TIP3    H175152   3.753   5.719  10.849 -0.7785 -0.7743  0.4098
17887TIP3    H275153   3.820   5.645  10.962 -1.8937  0.1410  1.7024
17888TIP3   OH275154   1.043   0.116   5.227  0.6073 -0.4432 -0.1918
17888TIP3    H175155   0.963   0.065   5.237  0.5222 -0.1351  0.7984
17888TIP3    H275156   1.014   0.201   5.194  0.3624  0.1034  1.3565
17889TIP3   OH275157   1.476   0.954   1.772  0.5373  0.4971 -0.4804
17889TIP3    H175158   1.567   0.970   1.799  0.5399  0.6198 -0.5624
17889TIP3    H275159   1.431   0.929   1.852  0.5914  0.6626 -0.3995
17890TIP3   OH275160   1.694   1.485  15.890 -0.0699 -0.9100  0.0600
17890TIP3    H175161   1.785   1.475  15.917  0.3530 -1.5102 -1.4744
17890TIP3    H275162   1.651   1.527  15.965  1.7299  0.6093  0.3263
17891TIP3   OH275163   4.360   0.738  13.699  0.4092 -0.1080  0.1227
17891TIP3    H175164   4.372   0.646  13.675  0.9860 -0.1397  0.5057
17891TIP3    H275165   4.268   0.743  13.727  0.5504 -0.7253  0.7447
17892TIP3   OH275166   3.023   0.192   1.343  0.1858 -0.6144 -0.3367
17892TIP3    H175167   2.950   0.133   1.363  0.4840 -0.4891  1.2438
17892TIP3    H275168   3.093   0.135   1.313 -0.2511 -0.8162 -1.0202
17893TIP3   OH275169   5.120   1.376   4.777  0.3625  0.2258 -0.5226
17893TIP3    H175170   5.055   1.381   4.707 -0.0153 -0.3401 -0.2274
17893TIP3    H275171   5.076   1.414   4.853  0.2522 -0.4547 -0.2388
17894TIP3   OH275172   0.097   5.360   0.523 -0.4058 -0.2840 -0.3383
17894TIP3    H175173   0.149   5.359   0.603  0.1454 -2.0180 -0.6642
17894TIP3    H275174   0.148   5.410   0.461 -0.0439 -0.3396 -0.0860
17895TIP3   OH275175   2.373   3.505   3.536 -0.1455 -0.4095 -0.3761
17895TIP3    H175176   2.291   3.554   3.542  0.3968  0.4436  0.1174
17895TIP3    H275177   2.372   3.447   3.612 -0.4309 -0.6414 -0.5505
17896TIP3   OH275178   1.075   6.020  16.905 -0.0044 -0.1254  0.0355
17896TIP3    H175179   1.071   6.056  16.817  0.6865 -0.2711 -0.0578
17896TIP3    H275180   1.019   6.078  16.957  1.3442  1.3045 -0.0368
17897TIP3   OH275181   0.856   1.669  16.016 -0.0143 -0.1096  0.0542
17897TIP3    H175182   0.880   1.740  16.075 -1.0472  0.8766 -0.6940
17897TIP3    H275183   0.867   1.705  15.929  2.0022 -1.7124 -0.4373
17898TIP3   OH275184   1.328   5.641   2.902 -0.4034  0.1760 -0.3964
17898TIP3    H175185   1.423   5.631   2.900 -0.3649  0.5802 -1.7493
17898TIP3    H275186   1.314   5.727   2.943 -0.0811  0.9294 -1.8041
17899TIP3   OH275187   1.288   5.998  14.340 -0.5231 -0.1962  0.0423
17899TIP3    H175188   1.275   5.935  14.411  1.1883  0.3601  0.9020
17899TIP3    H275189   1.333   6.072  14.381  0.2461  0.2678 -1.5514
17900TIP3   OH275190   4.630   1.349   2.400 -0.4755  0.6312 -0.0623
17900TIP3    H175191   4.591   1.265   2.375 -1.5138  0.6064  1.4844
17900TIP3    H275192   4.686   1.327   2.475 -0.0149  1.1849 -0.2395
17901TIP3   OH275193   4.167   0.944  17.294  0.1028  0.0195 -0.2046
17901TIP3    H175194   4.079   0.911  17.315  0.2632 -0.0571  0.3604
17901TIP3    H275195   4.226   0.891  17.347  0.5018  0.0077 -0.6541
17902TIP3   OH275196   0.018   1.029  15.344 -0.0735 -0.3934 -0.1014
17902TIP3    H175197  -0.075   1.042  15.326  0.0127 -0.4263 -0.5752
17902TIP3    H275198   0.043   1.103  15.400 -0.7512 -1.2081  1.3485
17903TIP3   OH275199   4.842   2.258  12.315 -0.3863 -0.6339 -0.2504
17903TIP3    H175200   4.924   2.296  12.285 -0.5345 -1.0395 -1.1919
17903TIP3    H275201   4.805   2.324  12.374  1.1539 -0.9254  1.1216
17904TIP3   OH275202   0.023   4.710  15.256 -0.1986  0.7239 -0.4114
17904TIP3    H175203   0.114   4.741  15.256 -0.2096  1.0416  2.4266
17904TIP3    H275204  -0.015   4.747  15.176  2.7155 -1.4581 -3.0837
17905TIP3   OH275205   5.430   2.265  16.480 -0.3202 -0.5491 -0.2668
17905TIP3    H175206   5.475   2.313  16.549 -0.8332  1.1220 -1.0454
17905TIP3    H275207   5.464   2.176  16.487 -0.8544 -0.6510  2.5797
17906TIP3   OH275208   2.793   5.228  14.125  0.8651 -0.2091 -0.1285
17906TIP3    H175209   2.811   5.148  14.075  0.2030 -0.5336  0.1427
17906TIP3    H275210   2.713   5.208  14.174  2.5487 -0.6804  2.6733
17907TIP3   OH275211   0.711   2.968  12.642 -0.3301  0.4390 -0.0083
17907TIP3    H175212   0.687   3.006  12.726  2.6107  0.5529  0.8827
17907TIP3    H275213   0.682   3.032  12.578 -2.8335  0.2449  0.7980
17908TIP3   OH275214   6.360   4.959   3.691  0.2070  0.2452 -0.2924
17908TIP3    H175215   6.453   4.957   3.671  0.1362 -0.2125 -0.5855
17908TIP3    H275216   6.322   4.889   3.638 -0.3273  0.5281 -0.2975
17909TIP3   OH275217   6.165   2.184  14.892  0.3897  0.3359 -0.0441
17909TIP3    H175218   6.098   2.224  14.948  0.8211  1.3262 -0.2040
17909TIP3    H275219   6.248   2.216  14.928  0.7440 -0.3442 -0.2494
17910TIP3   OH275220   4.127   6.542   4.025  0.3365  0.1477 -0.3545
17910TIP3    H175221   4.032   6.547   4.018 -0.1239 -3.6700  0.9940
17910TIP3    H275222   4.152   6.475   3.962  1.9748  0.1902  0.2104
17911TIP3   OH275223   6.389   1.634   0.213 -0.6619  0.3932 -0.0798
17911TIP3    H175224   6.450   1.569   0.248 -1.7894 -0.3263  0.6108
17911TIP3    H275225   6.440   1.683   0.148  0.0722 -1.5801 -1.0760
17912TIP3   OH275226   3.031   1.831   1.166 -0.4701 -0.0417  0.4152
17912TIP3    H175227   3.065   1.751   1.125 -0.4527 -0.4198  1.1376
17912TIP3    H275228   3.077   1.836   1.250  0.6568  1.5662 -0.2426
17913TIP3   OH275229   1.995   0.517  16.412 -0.0188  0.1679 -0.0362
17913TIP3    H175230   2.059   0.520  16.483 -1.5093  0.4489  1.3703
17913TIP3    H275231   1.935   0.589  16.431  0.0502  0.8385 -2.1389
17914TIP3   OH275232   3.539   4.012   5.113  0.4163 -0.3342  0.7431
17914TIP3    H175233   3.569   3.922   5.108  2.3941  0.3521 -2.0152
17914TIP3    H275234   3.468   4.018   5.048  1.5215  0.4440 -0.4440
17915TIP3   OH275235   1.329   4.672  11.350 -0.3689 -0.0588 -0.2360
17915TIP3    H175236   1.303   4.673  11.258 -1.1657 -0.3799 -0.0271
17915TIP3    H275237   1.413   4.626  11.351  0.0735  0.7139 -0.8967
17916TIP3   OH275238   2.335   3.174  16.445  0.5647  0.0771  0.3266
17916TIP3    H175239   2.396   3.132  16.506 -0.4013 -1.3992  0.3290
17916TIP3    H275240   2.311   3.104  16.384  0.4806  1.1839 -0.9465
17917TIP3   OH275241   3.843   1.613   2.104 -0.0358 -0.4724  0.4911
17917TIP3    H175242   3.896   1.540   2.137  0.1607 -0.8143 -0.5305
17917TIP3    H275243   3.758   1.573   2.085  0.8617 -1.1623 -2.7057
17918TIP3   OH275244   5.293   1.147   0.705 -0.5689 -0.5248 -0.7956
17918TIP3    H175245   5.278   1.054   0.720 -1.7613 -0.5237 -1.8685
17918TIP3    H275246   5.281   1.159   0.611  0.4392  0.5760 -0.8089
17919TIP3   OH275247   2.544   3.201   0.792 -0.5184  0.1049 -0.2023
17919TIP3    H175248   2.490   3.158   0.727  0.4433 -1.8146  0.1955
17919TIP3    H275249   2.502   3.181   0.876 -0.1749  0.1155 -0.0244
17920TIP3   OH275250   3.824   4.511   4.961 -0.4165  0.2465 -0.2245
17920TIP3    H175251   3.766   4.579   4.925  0.3747  1.0460 -0.0383
17920TIP3    H275252   3.787   4.491   5.047 -0.7337  0.3422 -0.3373
17921TIP3   OH275253   2.489   3.006   5.038 -0.2459 -0.0170  0.5309
17921TIP3    H175254   2.407   2.958   5.027 -0.4129  0.5540 -1.1236
17921TIP3    H275255   2.541   2.982   4.961 -0.6690  3.0220 -0.8614
17922TIP3   OH275256   1.641   3.205  11.100 -0.0145 -0.3626  0.1994
17922TIP3    H175257   1.589   3.279  11.132  0.2847 -0.1461  0.1892
17922TIP3    H275258   1.582   3.159  11.040 -0.7183 -0.9766  1.3201
17923TIP3   OH275259   5.736   3.659  16.425 -0.1877  0.1859  0.7930
17923TIP3    H175260   5.807   3.605  16.390 -1.7425 -0.9569 -0.7917
17923TIP3    H275261   5.676   3.597  16.465 -0.4991  1.0965  1.7969
17924TIP3   OH275262   6.585   6.308   0.269 -0.1604  0.5009 -0.6515
17924TIP3    H175263   6.566   6.398   0.298 -2.2525 -0.2374  0.4675
17924TIP3    H275264   6.590   6.257   0.349  0.6643 -0.4787 -1.2954
17925TIP3   OH275265   2.933   5.495  17.199 -0.2307 -0.0112 -0.1194
17925TIP3    H175266   3.015   5.447  17.205 -0.4004 -0.3301 -0.2713
17925TIP3    H275267   2.952   5.581  17.235  0.5758  0.4356 -1.5225
17926TIP3   OH275268   6.406   4.658   4.013  0.7772  0.4518  0.0535
17926TIP3    H175269   6.384   4.739   4.060 -0.2461 -1.3305  2.8898
17926TIP3    H275270   6.492   4.633   4.048  0.0442 -0.8605  0.9710
17927TIP3   OH275271   4.488   1.582  14.371  0.6005 -0.2682  0.2086
17927TIP3    H175272   4.456   1.508  14.319 -2.3944  1.3775 -0.5141
17927TIP3    H275273   4.485   1.551  14.461  1.0466 -1.5526 -0.1851
17928TIP3   OH275274   3.787   4.787  11.547  0.5172  0.3337 -0.4760
17928TIP3    H175275   3.765   4.712  11.601 -1.5972  1.1891 -0.0436
17928TIP3    H275276   3.728   4.781  11.472  0.5793  1.3647 -0.6216
17929TIP3   OH275277   4.188   2.701  14.239  0.4715 -0.3794 -0.0392
17929TIP3    H175278   4.228   2.638  14.300 -0.8769  0.6509  2.0258
17929TIP3    H275279   4.165   2.776  14.294 -1.5248  0.2989 -1.6809
17930TIP3   OH275280   0.490   1.989  10.916  0.2258 -0.3338 -0.5632
17930TIP3    H175281   0.421   2.013  10.977  1.2186 -1.1253  0.9374
17930TIP3    H275282   0.474   2.043  10.839 -0.3268  1.6778  0.8812
17931TIP3   OH275283   3.197   0.762  13.048  0.6052 -0.0185 -0.2917
17931TIP3    H175284   3.245   0.829  13.097  1.8147 -0.6969 -0.5008
17931TIP3    H275285   3.240   0.680  13.071 -0.8399 -0.7392 -0.0623
17932TIP3   OH275286   1.034   5.132  13.211  0.2117 -0.0049 -0.5472
17932TIP3    H175287   1.049   5.145  13.117 -1.1242  1.3800 -0.5951
17932TIP3    H275288   0.986   5.209  13.239 -2.6674 -1.9969  0.4997
17933TIP3   OH275289   6.146   5.849   1.706  0.0077 -0.4304  0.0073
17933TIP3    H175290   6.072   5.857   1.645  0.7519  1.4532 -0.6982
17933TIP3    H275291   6.161   5.937   1.738  0.5257 -1.1625  1.9221
17934TIP3   OH275292   0.236   2.662  16.349  0.3972  0.1072  0.1723
17934TIP3    H175293   0.180   2.711  16.410  0.4015 -0.5224  0.6955
17934TIP3    H275294   0.244   2.719  16.273 -0.6247  0.3811  0.2546
17935TIP3   OH275295   0.096   4.036   2.878 -0.2016 -0.1491 -0.2488
17935TIP3    H175296   0.101   4.081   2.793  0.8067 -0.2702 -0.2683
17935TIP3    H275297   0.144   4.093   2.938  0.4679 -0.8408 -0.1163
17936TIP3   OH275298   0.429   5.524  15.726  0.1354  0.2253  0.2750
17936TIP3    H175299   0.375   5.498  15.800 -0.6792 -1.9318 -0.9901
17936TIP3    H275300   0.518   5.498  15.751 -0.3544 -2.0188 -0.0764
17937TIP3   OH275301   6.748   5.942   5.106  0.1735  0.0266  0.6476
17937TIP3    H175302   6.805   6.013   5.133  0.1979  0.6552 -0.9605
17937TIP3    H275303   6.788   5.907   5.026 -2.0705  1.0639 -1.0586
17938TIP3   OH275304   5.323   1.485  16.121 -0.1773  0.1871 -0.3479
17938TIP3    H175305   5.349   1.411  16.177  1.6648  2.1871  1.6455
17938TIP3    H275306   5.387   1.486  16.051  0.0559  0.1609 -0.1353
17939TIP3   OH275307   1.326   3.007   5.956  0.0787 -0.0440  0.6375
17939TIP3    H175308   1.415   3.036   5.976  0.1028  0.4198 -0.0770
17939TIP3    H275309   1.316   3.025   5.862 -0.4477 -0.9529  0.5069
17940TIP3   OH275310   4.147   4.730   1.643  0.1396 -0.2037  0.0828
17940TIP3    H175311   4.164   4.706   1.734 -0.7393  0.7436  0.5115
17940TIP3    H275312   4.100   4.655   1.607 -0.3239 -0.2051  0.6750
17941TIP3   OH275313   4.637   2.832   5.462  0.4252 -0.2736  0.0351
17941TIP3    H175314   4.626   2.784   5.380 -0.0322 -0.8084  0.4021
17941TIP3    H275315   4.548   2.852   5.490  0.6115  1.0044 -0.2277
17942TIP3   OH275316   0.858   1.492   3.058 -0.5042  0.8372 -0.2201
17942TIP3    H175317   0.898   1.516   2.975 -0.0930 -0.8220 -0.5323
17942TIP3    H275318   0.898   1.408   3.081 -1.2036  0.8697  1.2474
17943TIP3   OH275319   1.478   2.485  13.244 -0.0631  0.0923  0.1256
17943TIP3    H175320   1.524   2.402  13.236  1.4616  0.9556 -0.4648
17943TIP3    H275321   1.387   2.464  13.222 -0.0381 -1.6855  1.4651
17944TIP3   OH275322   6.086   6.620  13.515 -0.0738 -0.3947 -0.5926
17944TIP3    H175323   6.104   6.538  13.563 -1.0473 -0.5263 -0.4267
17944TIP3    H275324   6.121   6.604  13.427 -0.1887 -0.9634 -0.5428
17945TIP3   OH275325   0.142   2.180  16.543 -0.5584 -0.5730 -0.2253
17945TIP3    H175326   0.114   2.199  16.633  0.1439  2.2055 -0.5042
17945TIP3    H275327   0.062   2.190  16.491 -0.4179  0.8789 -0.2204
17946TIP3   OH275328   6.186   3.974  12.123 -0.0082  0.1772  0.1621
17946TIP3    H175329   6.216   4.008  12.039  1.7278  0.8901  1.0250
17946TIP3    H275330   6.177   4.051  12.179 -2.0780 -0.1820  0.4067
17947TIP3   OH275331   5.768   2.633  12.527  0.3088  0.6974  0.4010
17947TIP3    H175332   5.782   2.719  12.567  1.3220  1.2279 -0.9989
17947TIP3    H275333   5.813   2.638  12.443 -1.4216 -0.4858 -0.6706
17948TIP3   OH275334   0.556   1.698  14.540 -0.0373 -0.0938 -0.1431
17948TIP3    H175335   0.463   1.715  14.551  0.5626  2.0515  3.1035
17948TIP3    H275336   0.560   1.618  14.488 -3.6831 -0.6034  0.1021
17949TIP3   OH275337   3.399   0.407  16.504  0.5618  0.1933  0.7456
17949TIP3    H175338   3.449   0.484  16.532 -0.4149  0.8312  0.7962
17949TIP3    H275339   3.465   0.340  16.486  1.4518  1.1414  0.3990
17950TIP3   OH275340   0.884   6.454   5.714  0.1652 -0.0204  0.0670
17950TIP3    H175341   0.940   6.407   5.652  0.1104 -0.4326  0.3343
17950TIP3    H275342   0.908   6.420   5.800 -1.1048 -0.8459  0.1167
17951TIP3   OH275343   2.091   3.189   1.129 -0.5398  0.1132 -0.3080
17951TIP3    H175344   2.007   3.176   1.084 -0.5280  0.6601 -0.4942
17951TIP3    H275345   2.085   3.135   1.208 -0.7000 -0.5809 -0.7902
17952TIP3   OH275346   6.136   1.258   5.241  0.4019 -0.2262 -0.0592
17952TIP3    H175347   6.143   1.268   5.146  1.2849  0.5414  0.0772
17952TIP3    H275348   6.147   1.164   5.256  0.2561 -0.3536 -0.7092
17953TIP3   OH275349   5.343   2.427   7.054 -0.2373 -0.2092  0.0222
17953TIP3    H175350   5.260   2.458   7.018  1.3167  2.7462 -1.4939
17953TIP3    H275351   5.368   2.353   6.998 -0.6186  0.6383 -1.3188
17954TIP3   OH275352   0.989   1.323  14.901 -0.2398 -0.1736  0.0021
17954TIP3    H175353   1.002   1.358  14.813  0.4342 -1.0932 -0.2903
17954TIP3    H275354   0.998   1.398  14.959 -2.3613  0.7601 -0.7886
17955TIP3   OH275355   6.363   5.667   4.010  0.2790  0.3152 -0.2349
17955TIP3    H175356   6.324   5.707   4.088  0.9132  0.6102 -0.0654
17955TIP3    H275357   6.455   5.653   4.033  0.6099  0.9310 -1.1198
17956TIP3   OH275358   3.023   1.176   0.571  0.8182 -0.1372  0.2782
17956TIP3    H175359   2.943   1.176   0.518  1.2250  1.2187 -0.3775
17956TIP3    H275360   3.016   1.256   0.624  1.6705 -0.0793  0.3111
17957TIP3   OH275361   3.777   1.894   3.944 -0.7949 -0.5090  0.1477
17957TIP3    H175362   3.839   1.917   4.013 -1.2459 -0.3461  0.5085
17957TIP3    H275363   3.708   1.960   3.951 -1.1794 -0.8858 -0.0225
17958TIP3   OH275364   0.699   0.224   0.027  0.0675 -0.3050 -0.1468
17958TIP3    H175365   0.781   0.180   0.003  1.2685  2.7622 -2.2528
17958TIP3    H275366   0.723   0.278   0.102 -0.6527 -1.0054  0.6101
17959TIP3   OH275367   4.012   4.585  12.643  0.0547  0.0763 -0.2807
17959TIP3    H175368   4.073   4.584  12.569 -1.0927  0.2597 -1.2473
17959TIP3    H275369   4.051   4.524  12.706  0.1475 -1.5286 -1.7863
17960TIP3   OH275370   3.818   5.543  12.444  0.3262 -0.3355  0.3272
17960TIP3    H175371   3.831   5.543  12.349  0.7353 -0.8277  0.3787
17960TIP3    H275372   3.724   5.557  12.456  0.1707 -0.9472 -0.1640
17961TIP3   OH275373   2.497   3.006  16.582 -0.3733 -0.0125  0.2130
17961TIP3    H175374   2.531   2.948  16.513 -2.5891  0.4340 -1.3646
17961TIP3    H275375   2.565   3.072  16.594  0.1086 -0.1607 -1.4927
17962TIP3   OH275376   0.010   0.741  13.071 -0.4981 -0.2509 -0.8954
17962TIP3    H175377   0.071   0.700  13.010 -0.9416  0.1799 -1.6453
17962TIP3    H275378  -0.017   0.671  13.130  2.6427  0.0329  1.1087
17963TIP3   OH275379   4.383   3.219   2.410  0.4859  0.0392  0.3177
17963TIP3    H175380   4.296   3.216   2.371  0.8633  2.6188 -0.9196
17963TIP3    H275381   4.367   3.224   2.505 -0.8369  2.0832  0.0393
17964TIP3   OH275382   6.720   4.547   6.435 -0.1259  0.1520  0.0864
17964TIP3    H175383   6.746   4.584   6.519  1.3640 -1.8445  0.6090
17964TIP3    H275384   6.796   4.562   6.378 -1.6446  2.7020 -1.3902
17965TIP3   OH275385   3.279   5.049   2.146  0.0997 -0.4982 -0.0702
17965TIP3    H175386   3.292   5.137   2.111 -1.7243  0.5519  1.6905
17965TIP3    H275387   3.359   5.002   2.122  1.2179  1.6845 -0.9115
17966TIP3   OH275388   1.105   2.289   0.318  0.5657 -0.5963 -0.2971
17966TIP3    H175389   1.148   2.367   0.285  0.8789 -0.4052  0.5389
17966TIP3    H275390   1.169   2.249   0.378 -0.6120  0.0290  1.4568
17967TIP3   OH275391   5.160   6.097  16.074  0.5415 -0.2303  0.4702
17967TIP3    H175392   5.231   6.052  16.119 -0.7742 -0.8186  2.0596
17967TIP3    H275393   5.138   6.171  16.130  2.0072  1.9809 -1.6242
17968TIP3   OH275394   6.537   3.769  11.958  0.7102  0.1457 -0.3066
17968TIP3    H175395   6.574   3.847  11.999 -0.4430  0.8583 -0.5796
17968TIP3    H275396   6.533   3.704  12.029 -0.1219  0.9717  0.4371
17969TIP3   OH275397   2.356   4.833   4.284 -0.8983 -0.0235  0.1264
17969TIP3    H175398   2.384   4.869   4.199 -0.2058 -1.8278 -0.4726
17969TIP3    H275399   2.418   4.869   4.347  0.1568 -0.5811 -0.5510
17970TIP3   OH275400   4.780   5.055   7.004  0.0790  0.1242 -0.7364
17970TIP3    H175401   4.746   5.144   7.002  1.5787  0.7585  0.2789
17970TIP3    H275402   4.838   5.050   6.928 -0.6212 -0.2690 -1.2564
17971TIP3   OH275403   5.037   4.465   0.451  0.0895 -0.1571 -0.0211
17971TIP3    H175404   4.974   4.444   0.520 -0.8689 -1.6713 -1.2959
17971TIP3    H275405   5.114   4.414   0.473 -0.0015 -0.1877  0.2340
17972TIP3   OH275406   4.730   2.652  16.054 -0.0028  0.8585 -0.1612
17972TIP3    H175407   4.770   2.662  16.140 -0.3526 -0.5256  0.1745
17972TIP3    H275408   4.804   2.634  15.996 -0.1004 -3.1148  0.6837
17973TIP3   OH275409   5.864   5.451   3.015  0.2466 -0.1443 -0.0878
17973TIP3    H175410   5.857   5.438   2.920  0.8226 -1.8690  0.0649
17973TIP3    H275411   5.862   5.546   3.027 -2.0577  0.0945 -1.6401
17974TIP3   OH275412   4.956   1.774   1.041  0.6326  0.2914  0.1400
17974TIP3    H175413   4.965   1.851   1.097  0.1726  0.0966  0.4864
17974TIP3    H275414   4.862   1.767   1.025  0.6730 -0.2088  0.1206
17975TIP3   OH275415   3.164   4.523  14.485 -0.4990 -0.4796  0.0647
17975TIP3    H175416   3.101   4.570  14.430  0.5629  0.9761  0.0145
17975TIP3    H275417   3.115   4.449  14.520 -1.0327 -2.0088 -3.4469
17976TIP3   OH275418   4.542   3.613   3.156  0.7518 -0.4512  0.4002
17976TIP3    H175419   4.524   3.688   3.100  3.6897  0.1833  0.1003
17976TIP3    H275420   4.594   3.554   3.101  1.1547 -1.2024  1.5477
17977TIP3   OH275421   6.349   2.102  12.425 -0.1709  0.3722 -0.9269
17977TIP3    H175422   6.412   2.053  12.477  0.3602  1.5628 -0.4308
17977TIP3    H275423   6.393   2.116  12.341 -0.2181  0.2687 -0.9704
17978TIP3   OH275424   5.858   5.801  15.002 -0.6316 -0.0856  0.1755
17978TIP3    H175425   5.852   5.897  14.999  0.9904  0.1634  2.3901
17978TIP3    H275426   5.947   5.782  14.973 -0.5611 -0.8085  0.8337
17979TIP3   OH275427   5.979   2.102   5.279  0.5224 -0.3583 -0.2491
17979TIP3    H175428   6.054   2.065   5.325  0.6970  0.0077 -0.2360
17979TIP3    H275429   6.000   2.091   5.186  0.3767 -0.6841 -0.2442
17980TIP3   OH275430   2.699   6.623   4.436  0.1674  0.1754  0.4006
17980TIP3    H175431   2.667   6.712   4.448 -0.0454  0.2280 -0.4825
17980TIP3    H275432   2.765   6.612   4.505 -0.1191  0.8568  0.7946
17981TIP3   OH275433   0.704   1.967   5.262  0.0990 -0.6720 -0.5004
17981TIP3    H175434   0.740   2.055   5.268  0.8572 -0.9199 -1.1755
17981TIP3    H275435   0.771   1.916   5.216 -0.3339 -1.5962 -0.1494
17982TIP3   OH275436   2.197   1.059   3.139 -0.0070 -0.2338 -0.0328
17982TIP3    H175437   2.107   1.074   3.169  0.1017  0.8158 -0.1980
17982TIP3    H275438   2.229   1.146   3.115  1.1346 -0.5644  0.2374
17983TIP3   OH275439   4.117   2.710   6.296 -0.2141 -0.2577  0.1854
17983TIP3    H175440   4.074   2.763   6.228 -2.0583 -2.5268 -0.5608
17983TIP3    H275441   4.085   2.747   6.378  1.5146  2.0952 -0.0995
17984TIP3   OH275442   3.638   2.815  14.855 -0.0729 -0.0600  0.2519
17984TIP3    H175443   3.690   2.735  14.849  1.0220  0.6360  0.1641
17984TIP3    H275444   3.679   2.875  14.792  0.0893  1.0873  1.4081
17985TIP3   OH275445   0.532   0.495  13.790 -0.3005  0.2026 -0.2741
17985TIP3    H175446   0.468   0.447  13.739  1.0032 -2.1214  0.1608
17985TIP3    H275447   0.608   0.502  13.732  0.8661 -1.6726  0.9321
17986TIP3   OH275448   0.038   1.904   1.719  0.7321 -0.1838 -0.6895
17986TIP3    H175449  -0.011   1.882   1.797  2.3158 -1.5738 -0.0091
17986TIP3    H275450  -0.006   1.856   1.648 -2.6876  3.5493 -1.4502
17987TIP3   OH275451   4.420   0.473   3.445 -0.2786  0.2778 -0.7695
17987TIP3    H175452   4.387   0.422   3.519 -1.6799  0.3991 -1.2962
17987TIP3    H275453   4.456   0.408   3.385  0.9318  0.1804  0.0073
17988TIP3   OH275454   0.006   1.297   0.276 -0.0671 -0.0391 -0.4852
17988TIP3    H175455   0.094   1.329   0.290 -0.1601  0.4038 -0.9092
17988TIP3    H275456   0.005   1.211   0.318  0.6471 -0.1718 -0.7290
17989TIP3   OH275457   4.407   1.574   2.457 -0.3366 -0.2425  0.1511
17989TIP3    H175458   4.489   1.599   2.415 -0.0580 -0.0066  0.8304
17989TIP3    H275459   4.418   1.598   2.549 -0.9846 -0.6430  0.3426
17990TIP3   OH275460   2.449   2.550  16.300  0.6311 -0.2545 -0.4830
17990TIP3    H175461   2.467   2.457  16.312 -0.3109 -0.3073  0.5876
17990TIP3    H275462   2.519   2.580  16.241  1.5758 -1.3926  0.0247
17991TIP3   OH275463   4.857   5.269   5.307 -0.5553  0.0652  0.0023
17991TIP3    H175464   4.923   5.213   5.346 -0.6258  1.0518  1.6022
17991TIP3    H275465   4.875   5.264   5.213  2.7168  1.4265  0.4286
17992TIP3   OH275466   3.498   5.808   2.834 -0.4965 -0.3517  0.5664
17992TIP3    H175467   3.465   5.859   2.908 -0.8907  0.6376 -0.2733
17992TIP3    H275468   3.523   5.873   2.769  0.7837 -1.1852  0.2055
17993TIP3   OH275469   3.456   4.728   1.335  0.1660 -0.1483  0.0736
17993TIP3    H175470   3.388   4.661   1.333 -0.7112  0.6856  1.1306
17993TIP3    H275471   3.486   4.730   1.425  0.2687  0.7849  0.0287
17994TIP3   OH275472   2.493   0.627  16.156 -0.0881 -0.5329 -0.1169
17994TIP3    H175473   2.513   0.537  16.179 -0.1430 -1.2850 -2.7290
17994TIP3    H275474   2.515   0.634  16.063 -2.2653  1.4723 -0.5838
17995TIP3   OH275475   4.004   0.558  14.213  0.4445 -0.5092 -0.2631
17995TIP3    H175476   3.994   0.626  14.279 -0.1204 -1.1103  0.2944
17995TIP3    H275477   3.924   0.565  14.160  0.0245 -1.1874  0.2493
17996TIP3   OH275478   6.164   3.543   3.454 -0.1674 -0.2365  0.1836
17996TIP3    H175479   6.100   3.479   3.425  1.4290 -0.6401 -2.8033
17996TIP3    H275480   6.249   3.508   3.426  1.1574  1.4529  1.7454
17997TIP3   OH275481   4.415   4.845  11.005  0.0190 -0.5696  0.0810
17997TIP3    H175482   4.500   4.801  11.012  0.7578  0.7361 -0.4169
17997TIP3    H275483   4.395   4.872  11.094 -0.1734 -1.3880  0.2985
17998TIP3   OH275484   3.308   0.553   2.510  0.5649 -0.5365  0.0777
17998TIP3    H175485   3.281   0.477   2.457 -1.7370 -0.2889  0.8104
17998TIP3    H275486   3.235   0.568   2.570  1.9407  0.8952  1.4849
17999TIP3   OH275487   3.378   4.427   2.769  0.7424  0.0295 -0.4380
17999TIP3    H175488   3.407   4.517   2.780  0.0915  0.4227 -1.6919
17999TIP3    H275489   3.447   4.384   2.719  1.2223 -0.2784  0.4763
18000TIP3   OH275490   1.895   3.761  16.228  0.5343 -0.0263 -0.1583
18000TIP3    H175491   1.852   3.712  16.297  1.2929  0.2640  0.5395
18000TIP3    H275492   1.973   3.798  16.269  1.4896 -0.5821 -1.3726
18001TIP3   OH275493   5.030   4.041   1.889 -0.6854 -0.0499 -0.2144
18001TIP3    H175494   5.077   4.123   1.878 -0.7250 -0.0711 -0.5632
18001TIP3    H275495   5.098   3.975   1.902 -0.6577  0.0488  0.1594
18002TIP3   OH275496   3.282   2.343   2.887 -0.3563 -0.1820 -0.2312
18002TIP3    H175497   3.372   2.360   2.860 -0.5142 -0.1560 -0.7458
18002TIP3    H275498   3.284   2.349   2.982  0.4089 -1.2485 -0.1650
18003TIP3   OH275499   5.627   2.403  12.809 -0.0767  0.4097  0.7349
18003TIP3    H175500   5.709   2.353  12.811 -0.7499 -0.8147 -0.2982
18003TIP3    H275501   5.562   2.343  12.845 -0.9480  0.4304 -0.7161
18004TIP3   OH275502   3.637   5.680  12.987  0.2848  0.0283 -0.4781
18004TIP3    H175503   3.687   5.668  13.068 -0.1403  0.6784 -0.1066
18004TIP3    H275504   3.637   5.775  12.973 -1.8309  0.1686  0.1791
18005TIP3   OH275505   4.211   2.486  12.637  0.3821  0.2682 -0.0824
18005TIP3    H175506   4.134   2.431  12.652 -0.1069  1.0167  0.1701
18005TIP3    H275507   4.207   2.552  12.706  1.6966 -0.1529  0.4402
18006TIP3   OH275508   4.314   1.283   6.704 -0.2780  0.3950  0.1234
18006TIP3    H175509   4.374   1.213   6.679  2.2207  2.0902  0.9736
18006TIP3    H275510   4.241   1.275   6.643  0.4197 -2.2238 -0.5080
18007TIP3   OH275511   6.051   5.092   0.556  0.9499  0.0776  0.5682
18007TIP3    H175512   6.023   5.172   0.511  1.2263  0.9196  1.8355
18007TIP3    H275513   6.126   5.120   0.609  2.5131 -1.5309 -0.6943
18008TIP3   OH275514   6.429   0.567   1.483  0.0802 -0.4287 -0.0930
18008TIP3    H175515   6.371   0.610   1.420  1.0228  1.5143  0.2763
18008TIP3    H275516   6.517   0.595   1.458  0.5985 -0.8427  1.1691
18009TIP3   OH275517   5.830   6.508  16.919  0.2031  0.0754  0.4536
18009TIP3    H175518   5.904   6.568  16.912  0.1373  0.1763  0.6264
18009TIP3    H275519   5.864   6.424  16.887  0.8998 -0.3281  2.1442
18010TIP3   OH275520   1.141   1.988   5.382  0.4247 -0.3928  0.3625
18010TIP3    H175521   1.141   1.897   5.354 -0.2553 -0.8325  1.6822
18010TIP3    H275522   1.173   2.037   5.306 -1.5320 -1.4675 -1.2576
18011TIP3   OH275523   0.953   4.527  16.664 -0.1721  0.3115  0.1270
18011TIP3    H175524   0.968   4.459  16.730 -0.4356 -0.4133 -0.5496
18011TIP3    H275525   1.014   4.506  16.594  0.6222  1.5041  0.4340
18012TIP3   OH275526   1.095   3.591   3.934  0.8733  0.7771 -0.0635
18012TIP3    H175527   1.135   3.671   3.968 -0.4354  0.6657  1.8903
18012TIP3    H275528   1.095   3.531   4.009  0.4911 -0.5304 -1.0880
18013TIP3   OH275529   0.240   3.267   4.862  0.6790  0.1153 -0.2398
18013TIP3    H175530   0.283   3.196   4.813  1.4570 -1.5728  2.5976
18013TIP3    H275531   0.300   3.284   4.935  1.1098  4.6457 -1.3454
18014TIP3   OH275532   4.576   5.117   3.182 -0.3223 -0.2296  0.3193
18014TIP3    H175533   4.634   5.111   3.106 -0.1790 -1.7232  0.5025
18014TIP3    H275534   4.502   5.170   3.153  0.8717  1.2829 -0.0771
18015TIP3   OH275535   4.337   3.396   5.734 -0.7455 -0.0379 -0.2971
18015TIP3    H175536   4.402   3.458   5.701 -1.5821  1.7068  1.1327
18015TIP3    H275537   4.379   3.357   5.811 -1.1552  0.7493  0.3527
18016TIP3   OH275538   1.894   4.596  14.161  0.6148 -0.2721  0.1561
18016TIP3    H175539   1.858   4.608  14.073  1.1686 -0.0449 -0.0466
18016TIP3    H275540   1.885   4.681  14.203  0.4230 -0.3595  0.2915
18017TIP3   OH275541   3.096   6.197   6.168  0.4453  0.4168  0.3807
18017TIP3    H175542   3.168   6.170   6.225 -0.9156 -1.0150  1.5263
18017TIP3    H275543   3.017   6.166   6.213 -0.9334  2.2909 -0.6214
18018TIP3   OH275544   3.000   4.067   4.281  0.1483  0.1779  0.7564
18018TIP3    H175545   2.963   3.981   4.262  2.5001 -0.3644 -1.9924
18018TIP3    H275546   3.091   4.049   4.308  0.8075  1.7831 -0.2393
18019TIP3   OH275547   6.179   4.641  14.415  0.4689 -0.0472 -0.1363
18019TIP3    H175548   6.088   4.668  14.429  1.4007  3.1288  0.4917
18019TIP3    H275549   6.226   4.673  14.491  2.3103 -0.7095 -0.9403
18020TIP3   OH275550   0.616   4.719  12.227 -0.5230 -0.3703  0.0490
18020TIP3    H175551   0.705   4.685  12.219 -0.4384 -0.5251  1.4782
18020TIP3    H275552   0.581   4.715  12.138  1.3050  0.8580 -0.7912
18021TIP3   OH275553   1.000   4.636   2.078 -0.7233  0.7738 -0.3342
18021TIP3    H175554   0.981   4.553   2.123  1.5221  1.0339  1.2258
18021TIP3    H275555   0.987   4.616   1.985 -0.0620 -1.4039 -0.0116
18022TIP3   OH275556   5.964   2.155   3.909  0.4423  0.0078  0.0956
18022TIP3    H175557   5.980   2.080   3.852  0.2276 -0.5196  0.7094
18022TIP3    H275558   5.870   2.172   3.900  0.6491  0.7800 -0.7224
18023TIP3   OH275559   0.294   1.238   5.612 -0.3022  0.3026  0.1370
18023TIP3    H175560   0.231   1.307   5.591 -0.1317  0.3899 -0.0890
18023TIP3    H275561   0.266   1.205   5.697 -1.3863 -0.4930 -0.5088
18024TIP3   OH275562   1.132   1.662   5.501  0.7580 -0.5121  0.1959
18024TIP3    H175563   1.038   1.680   5.511  0.3878 -1.7437 -0.7844
18024TIP3    H275564   1.153   1.694   5.413  1.3145 -0.0657  0.4844
18025TIP3   OH275565   5.907   4.991  14.750 -0.3263  0.1639  0.5005
18025TIP3    H175566   5.811   4.987  14.742 -0.3939 -0.9136  1.4766
18025TIP3    H275567   5.924   4.954  14.837  0.8862  1.6789  0.9424
18026TIP3   OH275568   5.055   4.251  16.423  1.1632 -0.5524 -0.0045
18026TIP3    H175569   5.109   4.196  16.366 -0.0407 -1.8280  0.0280
18026TIP3    H275570   4.974   4.201  16.435  0.3799  0.8379  0.7762
18027TIP3   OH275571   6.515   2.230  15.618 -0.1940 -0.1862  0.0403
18027TIP3    H175572   6.474   2.314  15.597 -0.6981 -0.3885  0.2110
18027TIP3    H275573   6.525   2.186  15.534  1.1202  0.5075 -0.1986
18028TIP3   OH275574   1.697   1.393  13.218 -0.1917  0.5077  0.2676
18028TIP3    H175575   1.621   1.400  13.276 -0.6193  0.8369 -0.3251
18028TIP3    H275576   1.772   1.408  13.275 -0.6245  1.1406  0.6821
18029TIP3   OH275577   2.959   3.821  15.464  0.5627 -0.2961  0.2282
18029TIP3    H175578   2.934   3.734  15.493 -3.5742  0.8092  0.5030
18029TIP3    H275579   2.924   3.880  15.531  1.9895  1.6867 -0.6567
18030TIP3   OH275580   6.253   0.101  17.051 -0.4042 -1.0005 -0.1622
18030TIP3    H175581   6.214   0.128  17.134 -0.7515  0.8705 -0.8764
18030TIP3    H275582   6.328   0.047  17.076 -1.0299 -1.2425  1.3230
18031TIP3   OH275583   6.128   1.445  12.639 -0.2795 -0.3896 -0.0745
18031TIP3    H175584   6.142   1.512  12.706  1.2346 -0.8404  0.1097
18031TIP3    H275585   6.203   1.454  12.580 -1.7066  0.1531 -1.8916
18032TIP3   OH275586   2.938   3.316   1.627  0.0214  0.8346  0.2960
18032TIP3    H175587   2.887   3.329   1.706 -0.5072  2.2325 -0.2334
18032TIP3    H275588   2.893   3.369   1.561  1.0393  0.5268 -0.6752
18033TIP3   OH275589   6.471   3.513  17.199 -0.3392 -0.0918 -0.0014
18033TIP3    H175590   6.414   3.579  17.237 -0.5126 -0.8007  1.0221
18033TIP3    H275591   6.416   3.435  17.191 -0.2912  0.0125 -1.6822
18034TIP3   OH275592   4.928   5.306   5.047  0.2240  0.0179  0.0921
18034TIP3    H175593   5.001   5.368   5.039 -0.4562  0.8266  0.0744
18034TIP3    H275594   4.883   5.310   4.963  0.1302 -0.4479  0.1159
18035TIP3   OH275595   3.445   2.462   0.746 -0.0210  0.1230  0.0112
18035TIP3    H175596   3.427   2.426   0.659  1.1867  0.7867 -0.5510
18035TIP3    H275597   3.512   2.529   0.730 -0.4413  0.8870  1.3421
18036TIP3   OH275598   4.256   1.249  16.903 -0.0196  0.5280 -0.1155
18036TIP3    H175599   4.296   1.174  16.948  1.7050  0.4514 -1.6618
18036TIP3    H275600   4.318   1.271  16.834 -0.7435  3.0893 -0.0345
18037TIP3   OH275601   0.723   1.825   5.963  0.1012  0.0739 -0.5652
18037TIP3    H175602   0.682   1.764   6.025 -1.2906  0.4353 -1.0982
18037TIP3    H275603   0.682   1.909   5.982 -0.4295  0.1721 -2.0444
18038TIP3   OH275604   0.327   3.431   2.460  0.1576  0.1526  0.0323
18038TIP3    H175605   0.413   3.450   2.421 -0.1353  1.6249  0.0521
18038TIP3    H275606   0.269   3.497   2.422 -0.6711  0.0396  1.0714
18039TIP3   OH275607   6.518   0.494   4.138 -0.0960 -0.4522  0.3959
18039TIP3    H175608   6.446   0.541   4.096  0.1415 -0.4855 -0.0569
18039TIP3    H275609   6.590   0.557   4.139 -0.2110 -0.3318  1.0836
18040TIP3   OH275610   2.806   3.074  15.222 -0.3636 -0.1555  0.1379
18040TIP3    H175611   2.789   3.047  15.312  0.1386 -0.7805  0.0482
18040TIP3    H275612   2.726   3.050  15.174 -0.8500  0.6711  0.5095
18041TIP3   OH275613   3.483   1.857  11.394 -0.1348 -0.0432 -0.2702
18041TIP3    H175614   3.523   1.837  11.310  1.9123  2.2614  0.0611
18041TIP3    H275615   3.549   1.834  11.459 -0.2875  1.4468  0.4630
18042TIP3   OH275616   5.748   2.286   1.122 -0.2117  0.7100  0.0186
18042TIP3    H175617   5.817   2.236   1.077  1.2444  0.1683  2.6763
18042TIP3    H275618   5.700   2.328   1.051  1.8090 -0.2358 -2.0575
18043TIP3   OH275619   1.740   0.261   6.618  0.4989 -0.0856 -0.6045
18043TIP3    H175620   1.649   0.252   6.590  0.9740 -0.5719 -2.0506
18043TIP3    H275621   1.744   0.349   6.656 -0.2288  0.5640 -1.9579
18044TIP3   OH275622   5.946   5.790  13.816  0.0530 -0.6609 -0.4014
18044TIP3    H175623   5.874   5.821  13.761 -1.1730 -2.4025  0.1309
18044TIP3    H275624   5.965   5.864  13.874 -0.1101  0.4244 -1.6783
18045TIP3   OH275625   6.588   3.570   5.123  0.3006 -0.4848 -0.5444
18045TIP3    H175626   6.604   3.541   5.033  1.2322 -3.5235  0.4625
18045TIP3    H275627   6.543   3.496   5.164  0.6353  0.4817  1.6863
18046TIP3   OH275628   4.501   0.631   3.876  0.1944  0.5218 -0.7107
18046TIP3    H175629   4.479   0.669   3.961 -2.5916 -0.4431 -0.8827
18046TIP3    H275630   4.519   0.539   3.895  3.2290  1.0001 -0.7802
18047TIP3   OH275631   4.934   4.990   4.441  0.2808  0.1169  0.2650
18047TIP3    H175632   4.878   5.068   4.445  0.3624  0.3858 -2.0957
18047TIP3    H275633   4.890   4.933   4.377  1.4598 -0.7211  0.1715
18048TIP3   OH275634   3.706   0.343  14.153  0.4047 -0.1575  0.4005
18048TIP3    H175635   3.747   0.363  14.069  1.8315 -1.9901  0.6130
18048TIP3    H275636   3.617   0.378  14.145  0.7469  0.3861 -1.5659
18049TIP3   OH275637   3.812   4.544  11.786 -0.3611  0.3184  0.6070
18049TIP3    H175638   3.763   4.478  11.834 -0.9626  0.7869  0.6559
18049TIP3    H275639   3.876   4.495  11.734 -1.2575 -0.3432  0.1118
18050TIP3   OH275640   5.285   6.327   4.263  0.0148  0.0775 -0.0493
18050TIP3    H175641   5.253   6.237   4.269 -0.1581  0.1427  0.0210
18050TIP3    H275642   5.275   6.349   4.170 -0.6148  0.2641  0.0529
18051TIP3   OH275643   0.188   4.812   1.794  0.0716 -0.1365  0.0172
18051TIP3    H175644   0.255   4.836   1.731 -0.3017  0.6849 -0.0789
18051TIP3    H275645   0.139   4.741   1.752 -1.9380  2.1850 -1.8891
18052TIP3   OH275646   2.384   5.046  13.830 -0.3876 -0.1535 -0.1710
18052TIP3    H175647   2.358   5.016  13.743  3.1789 -1.8430 -0.8104
18052TIP3    H275648   2.422   5.133  13.815 -1.5981  0.4512  0.1000
18053TIP3   OH275649   0.417   4.430  11.552  0.1832  0.0998 -0.0114
18053TIP3    H175650   0.357   4.471  11.489 -0.2652  0.0780  0.3990
18053TIP3    H275651   0.466   4.366  11.500 -1.4383 -1.2016  0.0039
18054TIP3   OH275652   0.546   4.529  17.223  0.5408  0.0846 -0.4672
18054TIP3    H175653   0.533   4.554  17.314 -2.4583  1.4066 -1.1398
18054TIP3    H275654   0.507   4.442  17.216  0.8317 -0.0458 -0.4934
18055TIP3   OH275655   0.708   0.660  14.062 -0.1764  0.4435  0.4405
18055TIP3    H175656   0.613   0.652  14.067 -0.2628  1.1027  0.0368
18055TIP3    H275657   0.733   0.607  13.986 -0.2441  0.3997  0.4494
18056TIP3   OH275658   0.899   6.193   6.227 -0.8962  0.8515  0.2242
18056TIP3    H175659   0.980   6.159   6.189 -0.5166 -0.6245  2.2105
18056TIP3    H275660   0.831   6.166   6.165 -0.2565 -1.0014  0.2696
18057TIP3   OH275661   5.879   1.487  14.643 -0.1985 -0.2431 -0.3542
18057TIP3    H175662   5.822   1.501  14.719  0.2762 -3.1741  0.6792
18057TIP3    H275663   5.964   1.466  14.681  1.0041  1.6531 -1.8378
18058TIP3   OH275664   4.008   1.971  14.479  0.3287 -0.2838  0.3998
18058TIP3    H175665   4.051   1.887  14.468  0.3056 -0.2632  0.1450
18058TIP3    H275666   3.968   1.989  14.394  1.6142  0.6964 -0.0403
18059TIP3   OH275667   4.660   4.477   4.243 -0.8240 -0.4647  0.1403
18059TIP3    H175668   4.623   4.447   4.326  0.5742  0.4756  1.1446
18059TIP3    H275669   4.635   4.570   4.238  0.8228  0.0244  0.5479
18060TIP3   OH275670   3.596   0.457   6.245  0.2355  0.2399 -0.4163
18060TIP3    H175671   3.553   0.388   6.195 -0.3259  0.6012 -0.4311
18060TIP3    H275672   3.649   0.409   6.310 -0.9498 -0.2134  0.2612
18061TIP3   OH275673   5.825   3.031  11.944  0.1705 -0.4371 -0.1533
18061TIP3    H175674   5.756   2.970  11.969  1.2798 -2.5443 -1.8250
18061TIP3    H275675   5.898   3.010  12.002  0.0498  0.4674  0.3440
18062TIP3   OH275676   1.840   0.546  14.434 -0.1071  0.3108 -0.3167
18062TIP3    H175677   1.874   0.635  14.445 -0.2821  0.3621 -0.1951
18062TIP3    H275678   1.918   0.494  14.417 -0.1885  0.7835 -2.3173
18063TIP3   OH275679   3.305   3.299   0.116  0.3825  0.0502 -0.1507
18063TIP3    H175680   3.336   3.383   0.150  0.2460  0.0217  0.0495
18063TIP3    H275681   3.383   3.244   0.113  0.1488 -0.4799  1.7100
18064TIP3   OH275682   5.270   3.585  15.652 -0.6813 -0.2191 -0.2665
18064TIP3    H175683   5.274   3.681  15.654 -0.5174 -0.2200  2.3087
18064TIP3    H275684   5.362   3.559  15.639 -0.4732 -0.0185  0.7403
18065TIP3   OH275685   6.351   2.909  14.861 -0.4104  0.2103  0.1579
18065TIP3    H175686   6.431   2.955  14.886  1.0657 -0.1690 -3.2954
18065TIP3    H275687   6.292   2.978  14.831  0.5305  0.2157 -1.8290
18066TIP3   OH275688   4.735   1.465  17.254 -0.1835 -0.1523  0.6100
18066TIP3    H175689   4.735   1.508  17.339  1.6540 -0.4326  0.7792
18066TIP3    H275690   4.654   1.495  17.212 -1.5224 -0.6326  2.7304
18067TIP3   OH275691   5.868   2.183  10.741 -0.5323 -0.1190  0.3374
18067TIP3    H175692   5.887   2.193  10.648 -3.7357  0.3297 -0.4014
18067TIP3    H275693   5.822   2.263  10.766 -0.0231 -0.3590  2.2538
18068TIP3   OH275694   5.938   5.399  10.691  0.2407  0.3298  0.3076
18068TIP3    H175695   5.885   5.356  10.757 -2.6320  2.2972 -0.5072
18068TIP3    H275696   6.022   5.354  10.693 -0.6203 -1.3665  3.4213
18069TIP3   OH275697   4.194   5.960  12.712  0.1993 -0.1019 -0.5202
18069TIP3    H175698   4.206   6.047  12.748 -1.8585  0.2467 -0.5583
18069TIP3    H275699   4.255   5.955  12.638  0.3754  1.2662 -0.4785
18070TIP3   OH275700   3.616   2.063  11.148  0.4789 -0.1530 -0.5004
18070TIP3    H175701   3.626   1.969  11.162 -0.4071 -0.2825 -0.7071
18070TIP3    H275702   3.533   2.085  11.191 -0.1424  0.2177 -1.8476
18071TIP3   OH275703   0.562   0.341   0.723 -0.1054 -0.2694 -0.2653
18071TIP3    H175704   0.512   0.276   0.773 -0.2230  0.8493  1.1328
18071TIP3    H275705   0.654   0.322   0.746 -0.2011  0.7402  1.0609
18072TIP3   OH275706   0.089   5.090  15.048 -0.7512 -0.1020  0.0767
18072TIP3    H175707   0.174   5.135  15.044 -0.1004 -1.2643  0.3623
18072TIP3    H275708   0.095   5.022  14.982 -1.0941 -0.7941  0.7504
18073TIP3   OH275709   2.507   1.760   1.746  0.1431  0.5025  0.3930
18073TIP3    H175710   2.497   1.675   1.703 -0.4171  0.1554  1.1907
18073TIP3    H275711   2.601   1.774   1.750  0.2106  0.5299 -0.9161
18074TIP3   OH275712   5.270   6.506  16.211  0.7680  0.5199  0.7800
18074TIP3    H175713   5.249   6.597  16.188  0.2400  0.0133 -0.8313
18074TIP3    H275714   5.365   6.501  16.205  0.7384  0.7550  0.0210
18075TIP3   OH275715   1.279   6.207   1.732  0.7508 -0.2781 -0.5897
18075TIP3    H175716   1.322   6.204   1.647  2.3188 -1.1008  0.1940
18075TIP3    H275717   1.197   6.158   1.719  0.9287 -0.3175 -1.6306
18076TIP3   OH275718   2.533   1.713  16.670 -0.0614 -0.4530 -0.3543
18076TIP3    H175719   2.502   1.791  16.623  2.0739  0.4748 -0.3377
18076TIP3    H275720   2.557   1.651  16.601  0.1258 -0.3034 -0.4257
18077TIP3   OH275721   4.565   3.272  17.397  0.3238 -0.0486 -0.1179
18077TIP3    H175722   4.491   3.212  17.392 -0.1882  0.5280  0.2830
18077TIP3    H275723   4.557   3.313  17.483  0.5720  0.6960 -0.4384
18078TIP3   OH275724   6.752   3.102   2.820 -0.4376  0.3322  0.2386
18078TIP3    H175725   6.790   3.190   2.821 -0.1649  0.2299 -0.5585
18078TIP3    H275726   6.780   3.063   2.903  0.0688  0.7356  0.2618
18079TIP3   OH275727   4.117   4.884   4.920  0.1587 -0.1971 -0.0992
18079TIP3    H175728   4.180   4.954   4.934  3.0540 -1.9847 -2.7982
18079TIP3    H275729   4.088   4.859   5.008  2.8165  1.0979  1.2549
18080TIP3   OH275730   6.119   6.636  14.388 -0.1004  0.2274 -0.1311
18080TIP3    H175731   6.165   6.636  14.304  1.2295  0.0507  0.5660
18080TIP3    H275732   6.186   6.612  14.452 -1.6211 -1.9644  0.7256
18081TIP3   OH275733   0.416   3.412   2.002  0.1847 -0.0985  0.2185
18081TIP3    H175734   0.389   3.354   1.931 -0.0119  1.5019 -1.0503
18081TIP3    H275735   0.342   3.412   2.062 -0.2687 -0.2861 -0.3312
18082TIP3   OH275736   4.822   0.896  14.782  0.2656  0.2519 -0.5363
18082TIP3    H175737   4.805   0.807  14.751  1.2015  0.0580 -0.5320
18082TIP3    H275738   4.736   0.932  14.801 -0.1247 -0.6405 -0.5756
18083TIP3   OH275739   6.730   1.201  13.127 -0.2741 -0.2221 -0.0346
18083TIP3    H175740   6.703   1.111  13.110 -0.3681 -0.2084  0.0407
18083TIP3    H275741   6.650   1.253  13.116 -0.3138 -0.2004  0.3366
18084TIP3   OH275742   4.579   5.215   5.257  0.2243 -0.3027  0.8615
18084TIP3    H175743   4.665   5.239   5.291  0.3048 -0.4292  0.7487
18084TIP3    H275744   4.589   5.123   5.231  0.0100 -0.3665  0.9985
18085TIP3   OH275745   2.358   4.629  15.351 -0.7530 -0.3294 -0.0309
18085TIP3    H175746   2.387   4.664  15.267  0.9505  0.5279  0.8689
18085TIP3    H275747   2.334   4.538  15.332 -1.0803  0.0549 -1.5618
18086TIP3   OH275748   4.354   4.543   5.514 -0.1532  0.5855 -0.2891
18086TIP3    H175749   4.391   4.594   5.586 -0.2107  0.6452 -0.3015
18086TIP3    H275750   4.280   4.596   5.483  1.6239  2.0411 -2.3402
18087TIP3   OH275751   1.162   5.416  13.217 -0.2775 -0.1394  0.3890
18087TIP3    H175752   1.234   5.479  13.219 -0.3452  0.0247 -1.1489
18087TIP3    H275753   1.198   5.337  13.258  0.8818 -0.1469 -0.5891
18088TIP3   OH275754   5.176   5.129   1.657 -0.3923 -0.3790  0.0300
18088TIP3    H175755   5.110   5.147   1.590 -0.7903 -0.3522  0.4272
18088TIP3    H275756   5.158   5.040   1.686  0.0860 -0.5679 -0.2420
18089TIP3   OH275757   1.624   5.723  15.304 -0.1550 -0.0686  0.4807
18089TIP3    H175758   1.566   5.675  15.364  1.0083 -0.1958  1.5340
18089TIP3    H275759   1.564   5.775  15.250 -1.4431 -2.2981 -0.3727
18090TIP3   OH275760   2.866   1.934   0.229 -1.0417  0.2229 -0.1408
18090TIP3    H175761   2.868   1.842   0.207  3.0694 -0.2471  1.3935
18090TIP3    H275762   2.821   1.937   0.314 -0.5573 -0.5202  0.1546
18091TIP3   OH275763   6.450   3.209  11.949  0.8954  0.3756  0.0580
18091TIP3    H175764   6.502   3.136  11.984  0.7362  0.5106  0.5874
18091TIP3    H275765   6.509   3.253  11.887  1.1578  0.0901  0.1022
18092TIP3   OH275766   3.880   3.113  11.898  0.3190 -0.6090  0.3357
18092TIP3    H175767   3.802   3.066  11.867 -0.6454  1.0059  0.2079
18092TIP3    H275768   3.934   3.123  11.819  0.3615 -1.1606  0.2897
18093TIP3   OH275769   5.910   0.774   3.438  0.0044 -0.2626 -0.2688
18093TIP3    H175770   5.856   0.852   3.454  0.0695 -0.4044  0.7021
18093TIP3    H275771   5.966   0.799   3.365 -1.1573 -0.0020 -1.0891
18094TIP3   OH275772   1.461   2.724  16.294  0.5922  0.3047 -0.2029
18094TIP3    H175773   1.368   2.727  16.272  0.5503 -0.2956 -0.1134
18094TIP3    H275774   1.506   2.727  16.209  0.5079  0.9399 -0.2322
18095TIP3   OH275775   6.690   6.025   0.855 -0.3367  0.0410  0.3841
18095TIP3    H175776   6.726   6.113   0.868  0.4948 -0.3801  0.9999
18095TIP3    H275777   6.766   5.967   0.858 -0.7190 -0.5919 -1.3437
18096TIP3   OH275778   5.001   3.020   1.755 -0.2062 -0.0075 -0.7851
18096TIP3    H175779   5.085   2.993   1.717  0.9326  0.1833  1.3857
18096TIP3    H275780   4.936   2.965   1.712  1.3216 -1.7677 -0.9897
18097TIP3   OH275781   5.766   1.676  10.551  0.3724  0.4735  0.3976
18097TIP3    H175782   5.777   1.611  10.483 -0.1176 -1.3835  1.9983
18097TIP3    H275783   5.852   1.684  10.592  0.1311 -0.2103  1.0639
18098TIP3   OH275784   2.362   6.404  12.542  0.2361  0.1509  0.1613
18098TIP3    H175785   2.310   6.367  12.613  0.1552  0.4989  0.2869
18098TIP3    H275786   2.297   6.431  12.477  0.3680 -1.6170 -0.7831
18099TIP3   OH275787   6.538   6.148  12.172 -0.3626 -0.1390 -0.2704
18099TIP3    H175788   6.507   6.164  12.261  0.3084 -1.0254  0.1444
18099TIP3    H275789   6.501   6.063  12.148  0.2726 -0.3748 -0.4428
18100TIP3   OH275790   0.653   2.768  13.710  0.4909 -0.2263  0.2554
18100TIP3    H175791   0.702   2.843  13.743  1.5484 -0.2962 -1.0755
18100TIP3    H275792   0.643   2.785  13.616 -1.9415 -0.2962  0.4262
18101TIP3   OH275793   2.134   4.233  11.411 -0.6103 -0.0907  0.0659
18101TIP3    H175794   2.150   4.196  11.324 -1.8812  0.0354 -0.2343
18101TIP3    H275795   2.218   4.223  11.456  0.2049  0.2582 -1.3144
18102TIP3   OH275796   2.496   5.608  16.613 -0.4968  0.1754  0.2723
18102TIP3    H175797   2.460   5.561  16.538  0.3643  1.6979 -1.1788
18102TIP3    H275798   2.585   5.574  16.622  0.4621  1.9935 -1.3673
18103TIP3   OH275799   4.050   3.091   3.545 -0.5631  0.2668  0.2612
18103TIP3    H175800   4.129   3.129   3.508 -0.8063  2.8103  2.0846
18103TIP3    H275801   4.081   3.031   3.613 -0.2173 -0.5103 -0.5583
18104TIP3   OH275802   4.530   3.152  14.899  0.5396  0.3774  0.5277
18104TIP3    H175803   4.610   3.199  14.876  1.3385 -1.5702 -0.9606
18104TIP3    H275804   4.484   3.140  14.816  0.4090 -1.4388  0.8160
18105TIP3   OH275805   3.760   0.523   3.788  0.7037 -0.0500 -0.3425
18105TIP3    H175806   3.753   0.495   3.697  0.7294  1.1784 -0.7355
18105TIP3    H275807   3.841   0.482   3.819  0.4478 -0.8663 -0.7075
18106TIP3   OH275808   2.327   5.453  15.419 -0.1206 -0.2687 -0.4870
18106TIP3    H175809   2.275   5.439  15.498 -0.5434 -1.1492 -0.9065
18106TIP3    H275810   2.334   5.366  15.379 -1.8413  0.4510 -2.5950
18107TIP3   OH275811   2.914   3.564  15.056  0.5625 -0.6156  0.2665
18107TIP3    H175812   2.880   3.477  15.079  1.2813 -0.7987  0.6596
18107TIP3    H275813   3.002   3.547  15.022  0.3486 -0.1264 -0.5554
18108TIP3   OH275814   2.923   3.817   3.633  0.1472 -0.1180 -0.9655
18108TIP3    H175815   2.958   3.840   3.547  2.9205  1.4850  0.4622
18108TIP3    H275816   2.893   3.901   3.670  2.2706 -0.0949  0.9216
18109TIP3   OH275817   0.860   5.303   0.390  0.4010  0.1431  0.4104
18109TIP3    H175818   0.926   5.302   0.459  0.6483 -1.1172  0.1727
18109TIP3    H275819   0.864   5.393   0.355  1.6315  0.2386  0.7342
18110TIP3   OH275820   1.290   5.390   3.600 -0.3072  0.2046  0.3244
18110TIP3    H175821   1.341   5.392   3.520  1.0411 -1.1157  1.0986
18110TIP3    H275822   1.221   5.325   3.583  0.9471 -1.2922  0.7360
18111TIP3   OH275823   4.932   2.176  12.595 -0.3454  0.0402  0.3164
18111TIP3    H175824   4.862   2.232  12.629 -2.0857 -1.4931 -0.5809
18111TIP3    H275825   4.929   2.189  12.500 -0.7462 -1.4873  0.0916
18112TIP3   OH275826   1.992   3.593   1.907  0.8011  0.4673 -0.0992
18112TIP3    H175827   1.917   3.650   1.892  0.7023  0.5282  0.5920
18112TIP3    H275828   1.956   3.518   1.955  1.3437  0.9912  1.1765
18113TIP3   OH275829   5.594   1.023  13.657 -0.2360 -0.6509 -0.2149
18113TIP3    H175830   5.501   1.001  13.649 -0.1965 -0.5098 -1.1703
18113TIP3    H275831   5.632   0.994  13.574  0.0650  1.8331 -1.0116
18114TIP3   OH275832   3.555   2.751   3.744  0.5565 -0.3264  0.2040
18114TIP3    H175833   3.499   2.809   3.796 -0.1265 -0.9095  0.1332
18114TIP3    H275834   3.587   2.806   3.673  0.0798  0.0245  0.2538
18115TIP3   OH275835   0.258   2.193   3.393 -0.1222 -0.6870  0.2578
18115TIP3    H175836   0.208   2.275   3.385  1.8541  0.6005  0.4122
18115TIP3    H275837   0.335   2.206   3.338  1.1745 -1.6815  1.7393
18116TIP3   OH275838   4.135   0.025  11.782  0.1196  0.7277  0.0270
18116TIP3    H175839   4.150  -0.018  11.698 -2.5144 -0.3836  0.0249
18116TIP3    H275840   4.222   0.047  11.814  1.3462 -1.1551 -1.7900
18117TIP3   OH275841   6.025   1.820   3.064  0.1112  0.1932  0.1048
18117TIP3    H175842   5.931   1.836   3.073 -0.0733 -0.2060 -0.9855
18117TIP3    H275843   6.033   1.770   2.982  1.2306 -0.1292  0.3989
18118TIP3   OH275844   5.529   5.801  15.056 -0.1277  0.0098  0.4696
18118TIP3    H175845   5.591   5.798  15.128  0.8396  0.7678 -0.3006
18118TIP3    H275846   5.583   5.800  14.977 -1.2127 -3.8460 -0.4146
18119TIP3   OH275847   6.112   2.290  12.955 -0.3468  0.6621  0.2221
18119TIP3    H175848   6.169   2.255  12.886  1.8589  2.7365  0.8759
18119TIP3    H275849   6.137   2.241  13.033  1.0817  1.9993  0.6445
18120TIP3   OH275850   0.071   2.145   0.731  0.5644  0.2213  0.3330
18120TIP3    H175851   0.026   2.127   0.648 -0.5408  1.7902  0.5437
18120TIP3    H275852   0.105   2.234   0.721  0.7282  0.2923  1.4293
18121TIP3   OH275853   4.982   4.763   3.593 -0.6287  0.2084  0.4153
18121TIP3    H175854   4.957   4.811   3.514 -0.9000 -1.4547 -0.5497
18121TIP3    H275855   4.906   4.709   3.614 -0.1346 -0.2250  1.1559
18122TIP3   OH275856   2.392   4.287  15.838  0.5096 -0.3083 -0.4869
18122TIP3    H175857   2.438   4.297  15.921 -1.8903  1.3106  0.7841
18122TIP3    H275858   2.385   4.192  15.826  1.0417 -0.5883  1.1112
18123TIP3   OH275859   0.832   0.023   2.780 -0.5635  0.5052  0.7596
18123TIP3    H175860   0.813   0.116   2.789 -1.7914  0.2827  0.6895
18123TIP3    H275861   0.927   0.016   2.791 -0.2677  1.9289 -0.6322
18124TIP3   OH275862   0.785   6.508  17.448 -0.1348  0.1046  0.3628
18124TIP3    H175863   0.862   6.522  17.502 -0.5412 -0.2848  1.0537
18124TIP3    H275864   0.720   6.570  17.481 -0.5351 -0.4517  0.6328
18125TIP3   OH275865   6.335   3.133  14.212 -0.2115  0.3440 -0.1639
18125TIP3    H175866   6.356   3.159  14.301  1.2184  1.4410 -0.7828
18125TIP3    H275867   6.333   3.215  14.162 -1.2144 -0.2241 -1.1122
18126TIP3   OH275868   4.782   0.600  17.015  0.1227  0.2591 -0.7874
18126TIP3    H175869   4.839   0.643  17.078 -0.9386  0.4559  0.0665
18126TIP3    H275870   4.708   0.660  17.004 -0.0193 -0.0720 -1.7316
18127TIP3   OH275871   3.794   2.572   2.122  0.3895 -0.3543 -0.1309
18127TIP3    H175872   3.841   2.608   2.196  0.0460 -0.4381  0.1295
18127TIP3    H275873   3.848   2.594   2.046 -0.0456  1.1405 -0.0464
18128TIP3   OH275874   4.539   1.315  15.458 -0.1989 -0.3323  0.5777
18128TIP3    H175875   4.548   1.225  15.488  1.5645 -0.3181  0.2064
18128TIP3    H275876   4.469   1.312  15.392  0.3844 -1.5934 -0.0210
18129TIP3   OH275877   4.497   2.170   4.223  0.2060  0.1789 -0.1511
18129TIP3    H175878   4.422   2.224   4.246  1.0923  1.3854  0.0475
18129TIP3    H275879   4.481   2.143   4.132 -0.0848  1.1038 -0.3854
18130TIP3   OH275880   0.390   0.549  12.243 -0.2891  0.5437  0.3068
18130TIP3    H175881   0.367   0.463  12.279 -0.3000  0.7798  0.8647
18130TIP3    H275882   0.312   0.577  12.195 -0.0452 -0.0662 -0.4790
18131TIP3   OH275883   5.695   5.874   1.443  0.1012  0.4408 -0.2960
18131TIP3    H175884   5.661   5.964   1.447 -0.2622  0.4571 -2.4754
18131TIP3    H275885   5.748   5.872   1.363  1.7748 -0.7679  0.7770
18132TIP3   OH275886   3.330   5.295   2.506 -0.1179 -0.3808 -0.3284
18132TIP3    H175887   3.409   5.310   2.559 -1.0969  0.8262  0.8681
18132TIP3    H275888   3.363   5.267   2.421  1.5801 -0.4527  0.3161
18133TIP3   OH275889   2.817   2.612   0.372 -0.4173 -0.1770  0.2725
18133TIP3    H175890   2.891   2.621   0.312 -0.1707 -0.0189  0.5969
18133TIP3    H275891   2.740   2.636   0.319  0.0686  3.0036  0.7710
18134TIP3   OH275892   5.175   6.617   4.192 -0.0979 -0.2571  0.0566
18134TIP3    H175893   5.138   6.606   4.279 -1.7213 -0.8931 -0.6556
18134TIP3    H275894   5.111   6.574   4.134  2.3390 -2.5035 -1.1800
18135TIP3   OH275895   0.182   3.142   5.190  0.2712 -0.3872 -0.4021
18135TIP3    H175896   0.101   3.180   5.224  0.3354 -0.1261 -0.5371
18135TIP3    H275897   0.235   3.217   5.165  0.1937 -0.5687 -1.1533
18136TIP3   OH275898   6.686   1.882  11.720  0.1212 -0.5437  0.6790
18136TIP3    H175899   6.669   1.789  11.709 -1.2205 -0.2315  0.0117
18136TIP3    H275900   6.642   1.905  11.802  0.3148 -0.4450  0.7577
18137TIP3   OH275901   5.124   1.356   2.821 -0.1502 -0.4884 -0.6738
18137TIP3    H175902   5.151   1.312   2.902  1.6388 -0.9420 -1.4645
18137TIP3    H275903   5.088   1.439   2.850 -0.5129 -1.0852  0.6568
18138TIP3   OH275904   0.534   6.272  11.728 -0.0991 -0.5409  0.0797
18138TIP3    H175905   0.440   6.267  11.744  0.2993 -1.2399  2.6588
18138TIP3    H275906   0.545   6.347  11.669 -2.2142 -0.2607 -0.0293
18139TIP3   OH275907   5.406   0.411  14.265 -0.4374 -0.6288  1.0330
18139TIP3    H175908   5.335   0.445  14.211 -1.4142 -1.4273  1.7644
18139TIP3    H275909   5.365   0.341  14.317  0.4809  0.0266  2.7172
18140TIP3   OH275910   6.451   1.323   6.513  0.2785  0.0426 -0.2671
18140TIP3    H175911   6.373   1.364   6.550 -0.9211 -1.5850 -0.8687
18140TIP3    H275912   6.498   1.395   6.471 -0.1793  1.2938  1.2553
18141TIP3   OH275913   5.539   4.165   0.579  0.1921  0.3080  0.8108
18141TIP3    H175914   5.492   4.242   0.546 -0.3140 -0.4052 -0.1713
18141TIP3    H275915   5.584   4.130   0.502 -0.4217 -0.9779  1.0179
18142TIP3   OH275916   6.729   4.269  12.815 -0.1625  0.2530  0.2325
18142TIP3    H175917   6.726   4.341  12.878 -1.6677  0.8090 -0.4280
18142TIP3    H275918   6.662   4.292  12.750 -0.1037 -1.3494 -0.4271
18143TIP3   OH275919   2.351   4.812   2.808  0.2683 -0.2183  0.4067
18143TIP3    H175920   2.351   4.767   2.724  0.6121 -0.7795  0.7027
18143TIP3    H275921   2.373   4.903   2.787 -0.7985 -0.1004 -0.2362
18144TIP3   OH275922   4.256   6.491   0.847  0.1173  0.2691  0.0625
18144TIP3    H175923   4.287   6.555   0.783  0.1944 -0.9262 -1.1204
18144TIP3    H275924   4.312   6.415   0.834 -0.0092 -0.0782  1.4158
18145TIP3   OH275925   0.600   5.823  15.069  0.2959  0.5028  0.3852
18145TIP3    H175926   0.655   5.847  14.994 -2.0429  0.3844 -1.5140
18145TIP3    H275927   0.633   5.737  15.095 -0.0682 -0.4284 -1.9192
18146TIP3   OH275928   0.911   0.950   3.255 -0.2406  0.3308 -0.1426
18146TIP3    H175929   0.923   1.036   3.217 -1.1756  0.0486 -1.1367
18146TIP3    H275930   0.999   0.914   3.264  0.0263  0.3075 -2.3162
18147TIP3   OH275931   0.600   4.442   4.836  0.4016  0.6063 -0.5382
18147TIP3    H175932   0.587   4.451   4.741 -1.4600  0.3699 -0.3547
18147TIP3    H275933   0.534   4.499   4.875  1.1608  0.7227  0.6339
18148TIP3   OH275934   3.252   6.591  17.061  0.4728 -0.2022 -0.1080
18148TIP3    H175935   3.215   6.510  17.096 -1.3767  0.2868 -0.7700
18148TIP3    H275936   3.220   6.595  16.971 -0.3091  1.7106  0.1975
18149TIP3   OH275937   3.411   4.729   1.974 -0.0174  0.1484  0.2254
18149TIP3    H175938   3.436   4.655   2.028  2.2562  1.2521  0.8500
18149TIP3    H275939   3.479   4.795   1.991 -0.6573  1.5112 -2.0157
18150TIP3   OH275940   4.614   2.397  14.465 -0.5202  0.1633 -0.3593
18150TIP3    H175941   4.641   2.306  14.460 -0.8560  0.1289 -1.7990
18150TIP3    H275942   4.668   2.442  14.401 -1.3233  0.7291 -0.6559
18151TIP3   OH275943   3.543   1.764   2.081 -0.3585  0.1036  0.8044
18151TIP3    H175944   3.527   1.844   2.031  1.9990 -0.2744 -0.7102
18151TIP3    H275945   3.578   1.794   2.165 -0.3005  0.6635  0.5793
18152TIP3   OH275946   3.096   6.170  15.164  0.2361  0.3824 -0.1181
18152TIP3    H175947   3.161   6.121  15.214  0.9073  0.3653 -0.9739
18152TIP3    H275948   3.119   6.262  15.179  0.9579  0.3692 -1.0190
18153TIP3   OH275949   5.461   4.226   1.286 -0.4578  0.3372  0.2696
18153TIP3    H175950   5.372   4.256   1.306 -0.6908 -0.4707  0.4553
18153TIP3    H275951   5.513   4.257   1.360 -1.1377 -1.7729  1.7200
18154TIP3   OH275952   2.433   0.852   0.030  0.0444  0.2258  0.5283
18154TIP3    H175953   2.411   0.901  -0.049 -0.9508  0.5513  0.9935
18154TIP3    H275954   2.489   0.910   0.081 -0.6182  0.6436  0.7884
18155TIP3   OH275955   6.249   4.612   5.989  0.4084 -0.3266  0.0060
18155TIP3    H175956   6.243   4.666   6.068 -1.8138 -1.4510  0.7033
18155TIP3    H275957   6.176   4.642   5.934  0.7695 -0.8558 -0.7821
18156TIP3   OH275958   2.435   5.250   0.691 -0.4993 -0.2752 -0.2632
18156TIP3    H175959   2.445   5.170   0.639 -1.9451  0.2745 -1.4414
18156TIP3    H275960   2.525   5.275   0.713 -0.0081 -2.2729  0.2489
18157TIP3   OH275961   6.670   4.074   5.599 -0.5442 -0.2525  0.2850
18157TIP3    H175962   6.639   4.023   5.523  0.4944 -0.2852 -0.1284
18157TIP3    H275963   6.619   4.040   5.672 -0.5675 -1.2146 -0.1538
18158TIP3   OH275964   4.841   3.529   3.306  0.7891  0.2329  0.3916
18158TIP3    H175965   4.796   3.614   3.312  0.3665  0.5111 -3.9371
18158TIP3    H275966   4.933   3.552   3.295  0.5053  0.3526 -2.3653
18159TIP3   OH275967   2.595   5.223   0.273 -0.1422 -0.5879  0.5317
18159TIP3    H175968   2.526   5.288   0.287  2.1288  2.1185  0.0294
18159TIP3    H275969   2.587   5.163   0.348 -0.6468  1.9077  2.6209
18160TIP3   OH275970   4.003   3.318   3.365  0.1183  0.4120  0.3029
18160TIP3    H175971   3.979   3.301   3.456  0.0457  0.0925  0.2229
18160TIP3    H275972   4.002   3.233   3.322  0.0133  0.5778 -0.0332
18161TIP3   OH275973   5.797   5.790  11.787 -0.3145  0.0764 -0.1597
18161TIP3    H175974   5.781   5.696  11.784 -0.1090  0.0616 -0.9731
18161TIP3    H275975   5.753   5.819  11.867  0.1099 -0.8017  0.4197
18162TIP3   OH275976   4.057   4.881  17.026  0.5117  0.1407  0.4068
18162TIP3    H175977   3.969   4.844  17.023  1.0208 -1.3144  1.9051
18162TIP3    H275978   4.110   4.823  16.972  0.5125  1.2257 -0.8003
18163TIP3   OH275979   1.978   3.701   4.457  0.1745  0.0938  0.5258
18163TIP3    H175980   1.958   3.786   4.496 -3.3060  0.4656 -1.6168
18163TIP3    H275981   1.999   3.721   4.366 -0.3485 -1.2747  0.0772
18164TIP3   OH275982   5.778   5.260  10.870  0.1813 -0.3573 -0.0387
18164TIP3    H175983   5.718   5.312  10.924  3.0679  2.0181  1.1879
18164TIP3    H275984   5.766   5.170  10.901 -2.5353  0.0091  0.2471
18165TIP3   OH275985   3.460   0.945  11.888  0.7208  0.5018  0.1806
18165TIP3    H175986   3.501   0.923  11.805 -1.9826 -0.2776 -1.0689
18165TIP3    H275987   3.401   1.017  11.867 -0.0353  0.2730  1.4080
18166TIP3   OH275988   4.104   6.361   4.924  0.0074 -0.2278  0.5549
18166TIP3    H175989   4.046   6.287   4.942 -0.3076 -0.0533  0.2715
18166TIP3    H275990   4.135   6.388   5.010  0.2613 -0.7981  0.6477
18167TIP3   OH275991   5.401   0.332   1.149  0.0061  0.0380  0.0362
18167TIP3    H175992   5.343   0.405   1.127 -0.5320 -0.2261  0.5458
18167TIP3    H275993   5.343   0.256   1.153 -0.0319  0.1090  2.6583
18168TIP3   OH275994   2.864   0.413   1.347 -0.1575  0.4670 -0.1037
18168TIP3    H175995   2.926   0.485   1.336  1.2264 -0.1722  2.6593
18168TIP3    H275996   2.915   0.335   1.327 -1.5813  0.1202 -2.8387
18169TIP3   OH275997   0.382   2.143   0.384  0.3171 -0.5149 -0.1583
18169TIP3    H175998   0.396   2.050   0.366  0.2222 -0.6920  0.6525
18169TIP3    H275999   0.343   2.145   0.471  1.0923  0.3295  0.1927
18170TIP3   OH276000   1.914   1.244  15.119  0.2134 -0.0644 -0.3717
18170TIP3    H176001   1.944   1.320  15.169 -0.8665  0.0094  0.2075
18170TIP3    H276002   1.993   1.206  15.082  1.1923 -0.6833  2.1786
18171TIP3   OH276003   3.494   4.768   3.442 -0.3926  0.4892 -0.3076
18171TIP3    H176004   3.506   4.860   3.466  0.2405  0.1251  0.8302
18171TIP3    H276005   3.519   4.764   3.349 -0.1323  1.4047 -0.2844
18172TIP3   OH276006   5.885   4.426   3.161 -0.6997 -0.6746  0.0941
18172TIP3    H176007   5.975   4.394   3.154 -0.5468 -0.1224 -0.7254
18172TIP3    H276008   5.877   4.489   3.089 -2.0811 -1.5132 -0.5179
18173TIP3   OH276009   3.624   1.826   0.295  0.1488  0.2071  0.7722
18173TIP3    H176010   3.617   1.882   0.372 -0.7586  0.3596  0.5960
18173TIP3    H276011   3.702   1.858   0.249 -0.8619  1.9887  0.1774
18174TIP3   OH276012   1.658   6.671  11.310 -0.6878  0.0046 -0.0510
18174TIP3    H176013   1.629   6.734  11.244 -1.3675  0.5508  0.7501
18174TIP3    H276014   1.602   6.688  11.386 -0.5802 -1.2587  0.3456
18175TIP3   OH276015   6.611   0.805  15.668 -0.1315 -0.1718 -0.0831
18175TIP3    H176016   6.559   0.847  15.600  0.1264 -1.8314 -1.3706
18175TIP3    H276017   6.549   0.749  15.714  0.5725 -3.2395 -2.5085
18176TIP3   OH276018   3.007   1.069   4.428  0.1287  0.5662 -0.1665
18176TIP3    H176019   2.950   1.130   4.475  1.0177  0.1701  1.5082
18176TIP3    H276020   3.083   1.060   4.485  2.8660  2.5919 -3.1826
18177TIP3   OH276021   6.629   3.883  12.284 -0.5803  0.4241  0.3490
18177TIP3    H176022   6.606   3.960  12.231 -0.4423  0.6169  0.5641
18177TIP3    H276023   6.545   3.840  12.300 -0.6115  0.3198 -0.0929
18178TIP3   OH276024   5.069   1.337   1.563  0.5083  0.2930  0.3641
18178TIP3    H176025   4.989   1.371   1.603  0.9618  1.1911  0.5105
18178TIP3    H276026   5.060   1.242   1.570 -0.0161  0.4118  1.4064
18179TIP3   OH276027   1.191   0.773   2.398 -0.5065 -0.2296  0.7171
18179TIP3    H176028   1.120   0.729   2.444 -0.6018 -0.8318  0.0141
18179TIP3    H276029   1.271   0.737   2.438 -0.5842 -0.9680  0.2344
18180TIP3   OH276030   3.169   5.789  16.793  0.2262  0.0099  0.1832
18180TIP3    H176031   3.231   5.850  16.754  1.2626  1.3157  3.5118
18180TIP3    H276032   3.148   5.727  16.723  1.7792  2.1633 -2.3496
18181TIP3   OH276033   5.982   4.679  12.156 -0.0287  0.1447 -0.3542
18181TIP3    H176034   5.947   4.720  12.076  1.1430  0.2822 -0.8170
18181TIP3    H276035   5.933   4.598  12.164  0.4887 -0.3589 -1.7922
18182TIP3   OH276036   0.035   3.263  11.554 -0.4222 -0.6936  0.1945
18182TIP3    H176037   0.091   3.339  11.541 -1.2322  0.2728  1.9903
18182TIP3    H276038   0.097   3.190  11.563  0.6208  0.3297  2.0056
18183TIP3   OH276039   2.116   4.789   5.101  0.1524  0.3311 -0.2653
18183TIP3    H176040   2.105   4.694   5.096 -1.5104  0.3538  1.6189
18183TIP3    H276041   2.208   4.801   5.125  0.6626 -0.7247 -1.5798
18184TIP3   OH276042   0.557   0.504  12.668  0.3357  0.3965 -0.1208
18184TIP3    H176043   0.638   0.498  12.718  0.4285 -1.9882 -0.4155
18184TIP3    H276044   0.586   0.501  12.576 -0.0379  0.7979 -0.2554
18185TIP3   OH276045   4.935   0.639  15.238  0.4014 -0.2760  0.3303
18185TIP3    H176046   4.941   0.557  15.189 -0.4016  0.0954 -0.4135
18185TIP3    H276047   4.950   0.707  15.172 -2.1260  0.3014  0.2703
18186TIP3   OH276048   0.137   1.495  15.447  0.1109  0.0288 -0.0776
18186TIP3    H176049   0.071   1.564  15.453  0.9455  0.7812  1.0444
18186TIP3    H276050   0.172   1.489  15.536  0.7985 -1.1058 -0.4101
18187TIP3   OH276051   1.904   4.678  17.066 -0.0636  0.1552  0.1344
18187TIP3    H176052   1.998   4.699  17.072 -0.0788  0.4716 -0.5733
18187TIP3    H276053   1.860   4.759  17.094 -0.1297 -0.1119  0.8156
18188TIP3   OH276054   5.078   5.859  16.471 -0.7909  0.0814 -0.0429
18188TIP3    H176055   5.082   5.789  16.536  2.4349  0.5264  0.3620
18188TIP3    H276056   4.990   5.851  16.434 -1.0467 -3.2944  0.9300
18189TIP3   OH276057   2.990   3.989  16.731  0.6865  0.3641 -0.6293
18189TIP3    H176058   3.028   3.971  16.817  0.8574  0.4223 -0.6911
18189TIP3    H276059   3.061   4.029  16.681  0.2847  1.3521 -0.4409
18190TIP3   OH276060   5.763   2.689   5.153  0.3322  0.1874 -0.0070
18190TIP3    H176061   5.684   2.635   5.161  0.0698  0.6948  1.1471
18190TIP3    H276062   5.730   2.779   5.152  0.8929  0.4093  0.6245
18191TIP3   OH276063   2.158   2.547  13.078  0.5325  0.3809 -0.0989
18191TIP3    H176064   2.217   2.594  13.137  1.1630 -1.2976  0.6680
18191TIP3    H276065   2.168   2.455  13.102 -1.9437 -0.0341 -0.3448
18192TIP3   OH276066   2.227   0.118   1.064  0.2015 -0.1696 -0.4241
18192TIP3    H176067   2.162   0.179   1.029 -0.6108 -0.8288 -0.1106
18192TIP3    H276068   2.264   0.075   0.988  0.6454  0.5777 -0.6363
18193TIP3   OH276069   1.852   4.407  14.635 -0.4068 -0.0721 -0.1274
18193TIP3    H176070   1.910   4.384  14.708 -2.0137 -0.9623  0.9548
18193TIP3    H276071   1.801   4.481  14.668 -1.0472 -0.3882 -0.3735
18194TIP3   OH276072   5.923   2.039   4.252 -0.0037  0.7690  0.5158
18194TIP3    H176073   6.001   2.040   4.308  1.1274  1.6096 -1.0013
18194TIP3    H276074   5.895   2.130   4.248 -0.8326  0.5286  0.7246
18195TIP3   OH276075   5.230   0.222   6.796  1.0554  0.2731 -1.0843
18195TIP3    H176076   5.312   0.176   6.813  0.9724 -0.0407 -1.5192
18195TIP3    H276077   5.206   0.196   6.707 -0.6664 -1.4332 -0.1960
18196TIP3   OH276078   5.582   6.431  12.468 -0.0686 -0.3100  0.6020
18196TIP3    H176079   5.534   6.492  12.524  0.8014  1.1710 -0.1763
18196TIP3    H276080   5.632   6.488  12.409  2.0228 -1.7514  0.8627
18197TIP3   OH276081   1.694   3.370   3.111  0.2507 -0.2830 -0.8480
18197TIP3    H176082   1.652   3.438   3.057 -0.2192  1.2317  1.3135
18197TIP3    H276083   1.784   3.402   3.122  1.5067 -2.4423 -3.6680
18198TIP3   OH276084   0.459   6.624   1.424 -0.0135  0.1978  0.4877
18198TIP3    H176085   0.516   6.665   1.489  1.5747 -0.2673 -0.5469
18198TIP3    H276086   0.459   6.531   1.447  0.3481  0.0715 -0.0100
18199TIP3   OH276087   2.985   4.224   1.983 -0.5936  0.1963 -0.6163
18199TIP3    H176088   3.034   4.251   2.060 -2.5734  0.4077  0.6613
18199TIP3    H276089   3.020   4.277   1.911  1.5051 -0.2387  0.0375
18200TIP3   OH276090   6.620   1.376  14.128 -0.2223  0.0054  0.1325
18200TIP3    H176091   6.561   1.306  14.154 -0.8637 -0.2873 -1.9331
18200TIP3    H276092   6.564   1.439  14.082  0.7708  0.5854 -0.3131
18201TIP3   OH276093   6.030   5.279  15.319  0.4377  0.1234  0.4321
18201TIP3    H176094   5.963   5.259  15.254 -0.8866  0.5224  1.6241
18201TIP3    H276095   6.019   5.212  15.386 -1.0068  2.0477  2.2442
18202TIP3   OH276096   4.138   3.644  15.676 -0.0689 -0.2360 -0.0599
18202TIP3    H176097   4.082   3.719  15.656 -0.2049 -0.5949 -1.0620
18202TIP3    H276098   4.092   3.568  15.640  0.5632 -0.6646  0.0102
18203TIP3   OH276099   1.489   0.276   5.615  0.2376 -0.2977  0.2042
18203TIP3    H176100   1.492   0.292   5.520 -2.3281 -3.4157 -0.5604
18203TIP3    H276101   1.447   0.354   5.651 -0.2892  0.2339 -1.4768
18204TIP3   OH276102   3.751   1.320  11.690  0.2845 -0.4772 -0.0503
18204TIP3    H176103   3.713   1.404  11.663 -2.9916 -0.9390  2.5106
18204TIP3    H276104   3.725   1.259  11.622 -0.7468 -0.1189  0.0007
18205TIP3   OH276105   0.007   0.195  15.437 -0.0352 -0.1940  0.0822
18205TIP3    H176106   0.090   0.230  15.404 -0.8047 -0.7043 -2.6665
18205TIP3    H276107  -0.051   0.272  15.442 -0.2448 -0.2670 -0.9758
18206TIP3   OH276108   6.013   0.367   0.181  0.1754 -0.4797 -0.3190
18206TIP3    H176109   6.081   0.418   0.137 -0.7402  0.1733 -1.0163
18206TIP3    H276110   6.060   0.315   0.246  1.0975  1.9049  1.0572
18207TIP3   OH276111   3.000   0.026  13.461 -0.5479 -0.0168  0.3948
18207TIP3    H176112   2.929  -0.037  13.449  0.7108 -1.4236 -0.0479
18207TIP3    H276113   3.012   0.066  13.375 -2.0282  1.6505  0.9106
18208TIP3   OH276114   0.831   2.194  14.680 -0.0697  0.0928 -0.4190
18208TIP3    H176115   0.875   2.227  14.759 -0.2919 -1.0730  0.2082
18208TIP3    H276116   0.902   2.158  14.627  0.0066  0.3432 -0.4906
18209TIP3   OH276117   5.626   5.790  14.789 -0.2973 -0.7863  0.3612
18209TIP3    H176118   5.721   5.791  14.774  0.1172  0.2200  2.7216
18209TIP3    H276119   5.590   5.832  14.711  1.4219  1.1821  0.5367
18210TIP3   OH276120   1.042   6.011   3.829  0.8489 -0.1094 -0.2714
18210TIP3    H176121   1.049   5.995   3.923  0.0124 -0.5903 -0.2800
18210TIP3    H276122   0.949   5.999   3.809  1.0730 -0.3636 -1.2249
18211TIP3   OH276123   4.767   2.594  15.024  0.4351 -0.1114 -0.2165
18211TIP3    H176124   4.835   2.658  15.005  0.8142 -0.1914  0.8054
18211TIP3    H276125   4.813   2.509  15.022  0.3224 -0.1863  0.2225
18212TIP3   OH276126   0.104   2.338   2.240 -0.9117  0.3303  0.4339
18212TIP3    H176127   0.147   2.299   2.165  1.4231  0.1784  1.7587
18212TIP3    H276128   0.079   2.425   2.211  2.7392  1.4794  0.2533
18213TIP3   OH276129   6.244   4.023   3.434  0.5849  0.2336 -0.1115
18213TIP3    H176130   6.168   3.965   3.431 -0.4765  1.5867 -0.3602
18213TIP3    H276131   6.262   4.032   3.528  0.5816 -0.2493 -0.0583
18214TIP3   OH276132   0.087   3.288  11.224 -0.4686 -0.3061 -0.3502
18214TIP3    H176133   0.085   3.218  11.158 -0.9446 -0.4579 -0.1771
18214TIP3    H276134   0.171   3.276  11.269 -0.1491 -0.2172 -0.9078
18215TIP3   OH276135   5.449   2.065   0.963 -0.1916 -0.4197  0.5909
18215TIP3    H176136   5.391   2.136   0.990 -0.9017 -1.5915  2.3417
18215TIP3    H276137   5.411   2.033   0.881 -0.6527  0.3489  0.4957
18216TIP3   OH276138   1.171   3.028  15.647  0.0210 -0.0236 -0.1658
18216TIP3    H176139   1.102   3.089  15.623  0.2849  0.1539 -0.4798
18216TIP3    H276140   1.137   2.942  15.621 -0.5131 -0.0610  0.6358
18217TIP3   OH276141   3.899   0.514  13.511  0.3085 -0.5537 -0.5404
18217TIP3    H176142   3.819   0.558  13.540  1.0764  0.1843  0.5111
18217TIP3    H276143   3.947   0.580  13.461  1.2683 -0.2888  0.6915
18218TIP3   OH276144   3.869   5.082  14.500 -0.2330  0.2918  0.0367
18218TIP3    H176145   3.788   5.085  14.449  0.4991  1.2213 -1.1175
18218TIP3    H276146   3.860   5.002  14.552 -0.6887 -1.1861 -2.1277
18219TIP3   OH276147   3.118   2.999  17.003 -0.4361  0.0644  0.1368
18219TIP3    H176148   3.065   2.924  17.031 -0.4349 -0.0472 -0.1543
18219TIP3    H276149   3.157   3.032  17.084 -0.3057 -0.3497  0.2481
18220TIP3   OH276150   4.221   3.552  16.029  0.0202 -0.1701  0.5019
18220TIP3    H176151   4.245   3.539  15.937  0.1690  1.6805  0.2305
18220TIP3    H276152   4.299   3.525  16.078 -0.2878 -1.7921  0.1626
18221TIP3   OH276153   0.829   3.974   1.551  0.1912 -0.0323 -0.2396
18221TIP3    H176154   0.843   3.882   1.528  0.5884  0.0487 -0.3374
18221TIP3    H276155   0.775   4.009   1.480 -1.6626 -0.6696  0.7901
18222TIP3   OH276156   2.068   2.658   0.305  0.6159 -0.1088  0.2424
18222TIP3    H176157   2.152   2.640   0.263  0.3284 -0.7734 -0.0656
18222TIP3    H276158   2.013   2.584   0.281 -0.2047  0.5458  0.0608
18223TIP3   OH276159   3.828   2.067  17.258 -0.1663  0.5868  0.1015
18223TIP3    H176160   3.831   2.005  17.185 -1.3522 -0.4063  0.8598
18223TIP3    H276161   3.745   2.113  17.247 -1.2566 -0.8517  1.7885
18224TIP3   OH276162   2.093   5.173  11.121 -0.3626  0.1135 -0.5017
18224TIP3    H176163   2.131   5.197  11.206  0.6146 -0.7354 -0.6758
18224TIP3    H276164   1.998   5.175  11.136 -0.1976 -0.7259  0.8176
18225TIP3   OH276165   4.269   3.533  13.121 -0.0737  0.1717  0.4860
18225TIP3    H176166   4.259   3.600  13.053  1.8477  0.4028  0.3618
18225TIP3    H276167   4.239   3.575  13.201  0.7803  1.0951  0.3446
18226TIP3   OH276168   2.110   4.240  17.306  0.7653 -0.6362 -0.7643
18226TIP3    H176169   2.184   4.249  17.246  0.5294 -1.8162 -1.2714
18226TIP3    H276170   2.144   4.270  17.390  1.4896 -0.1396 -1.2169
18227TIP3   OH276171   2.464   0.084  11.315 -0.0869 -0.0560  0.4679
18227TIP3    H176172   2.490   0.128  11.396  0.8439 -1.5268  1.0053
18227TIP3    H276173   2.369   0.078  11.321 -0.0615  0.1408  1.2956
18228TIP3   OH276174   6.760   6.244   5.612  0.0225  0.2518  0.5861
18228TIP3    H176175   6.737   6.198   5.531  1.6732  0.3680  0.0135
18228TIP3    H276176   6.821   6.184   5.657  2.1582  1.7593 -0.1332
18229TIP3   OH276177   4.422   1.601  12.006  0.1861  0.0640 -0.0896
18229TIP3    H176178   4.458   1.583  12.093  0.6409 -0.5497 -0.4025
18229TIP3    H276179   4.328   1.612  12.021  0.0021 -1.7433  0.2388
18230TIP3   OH276180   0.582   3.346  11.840 -0.6871  0.6307 -0.3353
18230TIP3    H176181   0.649   3.281  11.821  0.9031  1.7674  1.0659
18230TIP3    H276182   0.559   3.331  11.932 -1.9077  0.6661 -0.6214
18231TIP3   OH276183   2.916   2.759  16.121  0.3729  0.1031 -0.8447
18231TIP3    H176184   2.920   2.804  16.206 -0.5087 -1.6928  0.2007
18231TIP3    H276185   2.997   2.709  16.116  1.0846  1.3023 -1.7418
18232TIP3   OH276186   0.075   5.751   1.557  1.1812 -0.2724 -0.3730
18232TIP3    H176187  -0.013   5.780   1.533  0.9174 -0.2978  0.4986
18232TIP3    H276188   0.084   5.665   1.516 -0.9842 -2.3971  3.0632
18233TIP3   OH276189   1.157   1.662  11.092 -0.4992  0.5443 -1.1471
18233TIP3    H176190   1.138   1.612  11.012 -3.9496  0.7052 -0.5826
18233TIP3    H276191   1.079   1.715  11.106  1.0806  2.5037  0.9409
18234TIP3   OH276192   1.641   4.226   2.687  0.0830 -0.1734 -0.6140
18234TIP3    H176193   1.608   4.168   2.755 -1.6076  1.2909 -0.1015
18234TIP3    H276194   1.606   4.312   2.710  2.0745  0.9868 -1.6046
18235TIP3   OH276195   4.655   4.086   0.269 -0.1437 -0.6995 -0.3998
18235TIP3    H176196   4.606   4.148   0.215 -2.2509 -1.2300  0.7848
18235TIP3    H276197   4.589   4.024   0.300  1.4235 -1.8842  0.7239
18236TIP3   OH276198   6.224   2.657  13.372 -0.4473 -0.0546  0.3094
18236TIP3    H176199   6.291   2.705  13.323 -1.0042  0.7589  0.3301
18236TIP3    H276200   6.254   2.661  13.463 -0.2949 -0.0882  0.2626
18237TIP3   OH276201   5.144   4.664   6.474 -0.0001 -0.3118 -0.5166
18237TIP3    H176202   5.216   4.721   6.501 -0.4508 -0.3075  0.7322
18237TIP3    H276203   5.176   4.575   6.490 -1.0775 -0.2753  2.3465
18238TIP3   OH276204   1.950   3.128   6.187 -0.2707  0.1083 -0.5501
18238TIP3    H176205   2.030   3.113   6.238 -0.3737  1.5973  0.0993
18238TIP3    H276206   1.881   3.138   6.253 -0.5083  1.4675 -0.9758
18239TIP3   OH276207   0.311   6.106  17.367 -0.0399  0.0236  0.3383
18239TIP3    H176208   0.314   6.200  17.388 -0.6801  0.0358  0.3979
18239TIP3    H276209   0.226   6.077  17.399 -0.4426 -0.2700 -0.9311
18240TIP3   OH276210   6.243   4.678  10.998 -0.5089 -0.1830  0.5018
18240TIP3    H176211   6.326   4.671  11.045 -1.5132 -0.5288  2.2905
18240TIP3    H276212   6.211   4.766  11.019 -0.6455 -0.0696 -0.1372
18241TIP3   OH276213   1.044   1.456   5.351  0.1493 -0.2573 -0.0580
18241TIP3    H176214   1.083   1.497   5.428 -0.3897 -0.5705  0.3956
18241TIP3    H276215   0.968   1.511   5.331 -0.4184 -0.8560  0.3887
18242TIP3   OH276216   4.575   6.414   0.260  0.0487  0.5677 -0.1978
18242TIP3    H176217   4.579   6.430   0.355  2.1305  0.1990 -0.1669
18242TIP3    H276218   4.617   6.329   0.248 -1.7875 -0.2251 -1.3154
18243TIP3   OH276219   4.326   4.079  12.665 -0.2661  0.2727  0.0727
18243TIP3    H176220   4.261   4.145  12.642 -0.6954 -0.0660  0.3111
18243TIP3    H276221   4.343   4.033  12.583  1.6228  2.0243 -0.6266
18244TIP3   OH276222   3.194   3.646   4.466  0.3810 -0.7131 -0.1130
18244TIP3    H176223   3.238   3.653   4.551 -0.8920 -0.5636  0.5470
18244TIP3    H276224   3.101   3.638   4.487 -0.1905  1.4125 -1.5396
18245TIP3   OH276225   6.355   0.949   3.727 -0.5139  0.8069  0.0589
18245TIP3    H176226   6.259   0.955   3.732 -0.4772  0.8573  0.8022
18245TIP3    H276227   6.386   1.027   3.773 -0.1139  1.1576 -0.7774
18246TIP3   OH276228   2.717   5.688   0.142 -0.0816  0.4362  0.0892
18246TIP3    H176229   2.700   5.658   0.231 -0.4950 -0.4274 -0.2630
18246TIP3    H276230   2.759   5.773   0.152 -1.4664  1.0360  1.0636
18247TIP3   OH276231   5.339   1.752  15.848 -0.3543 -0.0023  0.0328
18247TIP3    H176232   5.382   1.713  15.772 -2.2800 -0.9480 -0.6528
18247TIP3    H276233   5.410   1.782  15.904  1.1696 -1.7292 -0.8833
18248TIP3   OH276234   6.521   3.520   5.480 -0.3072  0.3293 -0.0007
18248TIP3    H176235   6.599   3.465   5.479 -1.6190 -1.6490 -0.9965
18248TIP3    H276236   6.449   3.460   5.500 -1.4906  2.2661  1.9937
18249TIP3   OH276237   3.964   3.289  15.162  0.1429 -0.2649  0.3052
18249TIP3    H176238   4.057   3.288  15.138  0.3399  0.8436  0.9839
18249TIP3    H276239   3.939   3.196  15.163  0.9543 -0.5294 -0.9248
18250TIP3   OH276240   5.262   1.251  14.497 -0.5118  0.3630  0.2833
18250TIP3    H176241   5.313   1.228  14.574  0.6939 -0.8742 -0.8258
18250TIP3    H276242   5.320   1.305  14.444  0.3260 -2.1984 -1.6560
18251TIP3   OH276243   5.225   5.334   3.359 -0.4400 -0.1832 -0.0110
18251TIP3    H176244   5.130   5.329   3.369 -0.3643  0.9610  1.5253
18251TIP3    H276245   5.239   5.343   3.264 -1.9107  0.5008 -0.1808
18252TIP3   OH276246   4.424   0.894   5.869 -0.2073 -0.1822  0.4672
18252TIP3    H176247   4.494   0.928   5.925  0.2443  1.6377 -1.0895
18252TIP3    H276248   4.418   0.801   5.892  1.5217 -0.0035  1.8604
18253TIP3   OH276249   1.171   4.546   5.985  0.2026 -0.2321  0.1267
18253TIP3    H176250   1.125   4.547   6.069  0.4113 -0.1828  0.2401
18253TIP3    H276251   1.219   4.463   5.983  1.2831  0.3608  0.6479
18254TIP3   OH276252   0.347   6.709   0.652  0.1915  0.2474 -0.0860
18254TIP3    H176253   0.256   6.726   0.677  0.6104  1.2200  0.8038
18254TIP3    H276254   0.392   6.690   0.734  0.6482 -1.0196 -0.6013
18255TIP3   OH276255   0.193   0.534   3.861 -0.3595 -0.0753  0.3025
18255TIP3    H176256   0.254   0.496   3.924  0.1899  0.6223  0.1968
18255TIP3    H276257   0.181   0.465   3.795 -0.2212 -0.4667  0.6780
18256TIP3   OH276258   3.030   1.551  12.906  0.4335  0.0664 -0.3708
18256TIP3    H176259   2.983   1.554  12.989  0.6342 -2.0891 -0.1029
18256TIP3    H276260   3.069   1.638  12.896 -2.3329  1.4500  0.1105
18257TIP3   OH276261   4.347   3.539  13.961  0.3047  0.9558 -0.0452
18257TIP3    H176262   4.258   3.540  13.995  0.7928  2.0015  1.3469
18257TIP3    H276263   4.390   3.612  14.007  2.0970 -0.0578 -0.0379
18258TIP3   OH276264   6.727   3.924  11.753 -0.2249  0.2425  0.3269
18258TIP3    H176265   6.706   3.831  11.757  0.6652 -0.0603 -1.1065
18258TIP3    H276266   6.808   3.932  11.805  0.5915 -0.1132 -0.8348
18259TIP3   OH276267   0.251   5.385  15.912 -0.1762 -0.5113  0.4799
18259TIP3    H176268   0.310   5.320  15.874 -1.4038 -1.7653  0.6193
18259TIP3    H276269   0.163   5.351  15.894 -0.9017  1.6023 -0.2669
18260TIP3   OH276270   4.603   4.838   3.768  0.6661 -0.2144  0.4942
18260TIP3    H176271   4.618   4.787   3.847  2.2189 -0.4578  0.0670
18260TIP3    H276272   4.541   4.786   3.717  1.5749 -1.2908  0.4502
18261TIP3   OH276273   1.949   3.084  13.673 -0.0415 -0.2558  0.0307
18261TIP3    H176274   1.901   3.040  13.602 -1.1939  0.4229  0.3629
18261TIP3    H276275   2.021   3.025  13.693 -0.3812 -1.0195 -0.9070
18262TIP3   OH276276   3.518   0.704  13.464  0.4713  0.2750  0.4549
18262TIP3    H176277   3.610   0.718  13.483  0.1823  1.0322  1.4058
18262TIP3    H276278   3.472   0.742  13.539 -0.6755  1.5050 -0.8212
18263TIP3   OH276279   6.143   4.514   4.627  0.6356 -0.0281 -0.0896
18263TIP3    H176280   6.117   4.549   4.542  0.9267 -0.4942 -0.3738
18263TIP3    H276281   6.191   4.434   4.606  2.2897  0.7949  0.4271
18264TIP3   OH276282   4.801   1.297   4.191  0.3000  0.2369  0.5780
18264TIP3    H176283   4.890   1.298   4.155 -0.3154  0.5123 -0.9702
18264TIP3    H276284   4.760   1.219   4.154  0.2604 -0.6041  2.2863
18265TIP3   OH276285   2.867   2.484  12.974 -0.6661  0.1378 -0.1840
18265TIP3    H176286   2.838   2.482  12.882  0.7059  1.0545 -0.6774
18265TIP3    H276287   2.963   2.481  12.968 -0.4863  1.8814  1.1340
18266TIP3   OH276288   4.514   2.309   3.426 -0.2651  0.3756  0.0202
18266TIP3    H176289   4.442   2.256   3.460 -0.0131 -1.1588 -1.6934
18266TIP3    H276290   4.472   2.390   3.398 -1.1634 -0.1113 -0.0789
18267TIP3   OH276291   4.614   5.428   0.995  0.4746 -0.3248 -0.4712
18267TIP3    H176292   4.686   5.413   1.056 -0.7989 -0.0025  1.2092
18267TIP3    H276293   4.602   5.345   0.951  0.7543 -0.9079  0.5067
18268TIP3   OH276294   4.756   1.571  14.153 -0.7930 -0.1098 -0.7026
18268TIP3    H176295   4.812   1.581  14.076  0.8113  2.8204  0.6332
18268TIP3    H276296   4.790   1.494  14.198  1.1522  0.6335 -0.8057
18269TIP3   OH276297   3.693   0.092  12.089 -0.4653  0.0667 -0.3929
18269TIP3    H176298   3.761   0.159  12.078 -0.0675 -0.3147 -0.2694
18269TIP3    H276299   3.735   0.023  12.140 -1.4190  0.5169  1.0680
18270TIP3   OH276300   5.728   0.561   4.335 -0.3129  0.0195 -0.2873
18270TIP3    H176301   5.634   0.547   4.348 -0.1754 -0.3556  0.3858
18270TIP3    H276302   5.741   0.654   4.355 -0.4900 -0.0061 -0.0369
18271TIP3   OH276303   4.791   2.885  15.165 -0.3136 -0.3289  0.4007
18271TIP3    H176304   4.822   2.873  15.075 -2.2037 -1.0057 -0.2046
18271TIP3    H276305   4.773   2.979  15.172 -1.7845 -0.5106 -0.5268
18272TIP3   OH276306   0.209   1.988   2.238 -0.0125 -0.1777  0.0164
18272TIP3    H176307   0.253   1.935   2.305  2.0293  1.5621  0.1615
18272TIP3    H276308   0.148   2.042   2.287 -1.7586 -1.9231 -0.0843
18273TIP3   OH276309   1.901   5.358  15.725 -0.1939  0.4648 -0.7819
18273TIP3    H176310   1.823   5.401  15.689 -1.9722 -0.4293  1.7492
18273TIP3    H276311   1.886   5.265  15.710  1.0468  0.3449 -1.4076
18274TIP3   OH276312   2.097   1.869  14.643  0.2796 -0.0440 -0.3526
18274TIP3    H176313   2.044   1.942  14.613  1.0196  0.7857  0.3103
18274TIP3    H276314   2.158   1.852  14.571 -0.4504 -0.5752 -0.8506
18275TIP3   OH276315   6.023   4.592  14.857  0.3193  0.0822  0.1307
18275TIP3    H176316   6.105   4.641  14.853  2.0659 -2.4090  1.8525
18275TIP3    H276317   6.020   4.544  14.774 -0.0276  1.0634 -0.4309
18276TIP3   OH276318   2.131   1.818   5.053  0.4775  0.1695 -0.1811
18276TIP3    H176319   2.063   1.883   5.032 -0.5700 -1.1256 -0.9378
18276TIP3    H276320   2.141   1.767   4.972 -0.7530 -2.3916  1.1639
18277TIP3   OH276321   2.180   0.752   2.743 -0.0875  0.3255  0.3845
18277TIP3    H176322   2.209   0.838   2.774  0.8360 -0.2627  1.2168
18277TIP3    H276323   2.200   0.693   2.815 -2.4817 -0.3011  0.6064
18278TIP3   OH276324   2.986   0.985  16.246  0.0094  0.0970  0.0313
18278TIP3    H176325   3.030   0.944  16.320  1.5266 -1.1612 -1.4942
18278TIP3    H276326   2.969   1.075  16.275 -1.8043 -1.0093  2.8141
18279TIP3   OH276327   5.094   5.147  11.615  0.2607 -0.0418  0.1500
18279TIP3    H176328   5.176   5.108  11.585 -0.6043 -1.8179 -0.0177
18279TIP3    H276329   5.063   5.089  11.685  0.2218  1.8197  1.7499
18280TIP3   OH276330   2.833   5.077  11.934 -0.1454  0.2100 -0.2892
18280TIP3    H176331   2.790   5.015  11.992 -0.7933 -0.7871 -1.7670
18280TIP3    H276332   2.770   5.092  11.864  1.5499 -0.6870 -2.1167
18281TIP3   OH276333   0.032   5.550   6.501  0.3858 -0.5717 -0.5005
18281TIP3    H176334  -0.009   5.551   6.415 -0.8178  0.9174  0.0456
18281TIP3    H276335  -0.033   5.508   6.558  0.3164  0.2480  0.0412
18282TIP3   OH276336   6.256   6.240   5.685 -0.6370  0.1620 -0.3214
18282TIP3    H176337   6.347   6.269   5.688  0.8560 -3.7231 -2.0466
18282TIP3    H276338   6.254   6.162   5.740 -2.3184 -1.0517 -1.9785
18283TIP3   OH276339   4.672   4.912  14.036 -0.4572  0.1604 -0.5073
18283TIP3    H176340   4.587   4.869  14.025 -0.1754 -0.1119 -1.8420
18283TIP3    H276341   4.664   4.994  13.988 -0.6167  1.0879  1.0767
18284TIP3   OH276342   1.333   2.607  13.489 -0.1200  0.5438  0.0263
18284TIP3    H176343   1.270   2.571  13.427 -0.7491  0.9862  0.4020
18284TIP3    H276344   1.378   2.531  13.525  0.6138  0.2981 -1.3328
18285TIP3   OH276345   3.792   6.488   5.772 -0.3045 -0.4535 -0.6010
18285TIP3    H176346   3.838   6.412   5.737  0.7884 -0.4628  0.8004
18285TIP3    H276347   3.842   6.514   5.849 -0.4822  1.8726 -1.1859
18286TIP3   OH276348   6.657   2.236   5.640  0.2694  0.2717 -0.1854
18286TIP3    H176349   6.664   2.183   5.719 -0.4232  0.0576 -0.2579
18286TIP3    H276350   6.747   2.257   5.617  0.5268 -0.4622  0.1269
18287TIP3   OH276351   5.148   3.337   4.203  0.6631  0.0099 -0.1360
18287TIP3    H176352   5.193   3.422   4.208 -0.5966  0.7637 -0.9398
18287TIP3    H276353   5.203   3.285   4.145  1.3766  0.3228  0.2402
18288TIP3   OH276354   4.734   3.234   5.498 -0.3989  0.5974  0.4838
18288TIP3    H176355   4.800   3.200   5.557 -0.9032  0.7414  1.1420
18288TIP3    H276356   4.700   3.312   5.542 -2.2579 -0.4508  1.0227
18289TIP3   OH276357   2.510   1.316   2.479  0.7514 -0.6695  0.3397
18289TIP3    H176358   2.496   1.221   2.477 -0.4373 -0.5017 -0.4892
18289TIP3    H276359   2.516   1.341   2.386 -0.7835  0.2910  0.4533
18290TIP3   OH276360   4.961   5.500   4.301 -0.4296  0.3266 -0.3691
18290TIP3    H176361   4.920   5.579   4.335 -1.0299  0.3262 -1.0756
18290TIP3    H276362   4.999   5.457   4.378 -1.6450  0.3938  0.2798
18291TIP3   OH276363   2.743   4.327  16.500 -0.3106 -0.6530 -0.5709
18291TIP3    H176364   2.661   4.278  16.510 -0.0357 -1.1374 -0.6662
18291TIP3    H276365   2.716   4.419  16.504 -0.7585 -0.8095  0.1718
18292TIP3   OH276366   4.761   4.896  13.190  0.2565 -0.1064  0.5269
18292TIP3    H176367   4.788   4.805  13.202  0.1261 -0.2070  0.0633
18292TIP3    H276368   4.802   4.943  13.263 -0.7675 -0.7534  1.5636
18293TIP3   OH276369   4.866   6.022  15.357  0.3524 -0.3320  0.1959
18293TIP3    H176370   4.913   5.945  15.325 -1.3099 -1.8825  1.2903
18293TIP3    H276371   4.829   5.994  15.441  0.2345  1.9010  0.9538
18294TIP3   OH276372   3.006   2.042   1.735 -0.8785 -0.3556  0.1595
18294TIP3    H176373   3.059   2.075   1.663 -1.1275 -1.4041 -0.5186
18294TIP3    H276374   2.955   2.118   1.764  0.0236  0.3349 -0.0371
18295TIP3   OH276375   5.783   2.586   5.500 -0.1563 -0.3016  0.0141
18295TIP3    H176376   5.693   2.616   5.512  0.3061  0.3981  2.3439
18295TIP3    H276377   5.780   2.493   5.521 -0.3630 -0.3055 -0.0315
18296TIP3   OH276378   4.815   0.156  16.437 -0.5385  0.1956 -0.0436
18296TIP3    H176379   4.748   0.102  16.479  0.3694  0.8418  2.4170
18296TIP3    H276380   4.819   0.124  16.347 -1.9694 -1.9439  0.5721
18297TIP3   OH276381   1.625   5.641   2.912 -0.2029 -0.1884  0.3071
18297TIP3    H176382   1.691   5.629   2.843 -1.1084  0.3694 -0.6870
18297TIP3    H276383   1.676   5.654   2.992  0.8788 -0.5141 -0.3015
18298TIP3   OH276384   6.657   0.230   0.163  0.0718  0.2377 -0.3724
18298TIP3    H176385   6.724   0.165   0.186  0.8462  0.7810 -1.0298
18298TIP3    H276386   6.615   0.194   0.085  0.7252  0.6558 -0.9349
18299TIP3   OH276387   3.292   5.259  16.707 -0.3552 -0.1655 -0.1917
18299TIP3    H176388   3.283   5.227  16.797 -0.8361 -1.2191 -0.5916
18299TIP3    H276389   3.215   5.225  16.662  0.0834  0.0129 -1.1062
18300TIP3   OH276390   0.655   3.278  11.565  0.5306 -0.1776  0.0028
18300TIP3    H176391   0.631   3.304  11.653  1.7965  0.9064  0.0643
18300TIP3    H276392   0.596   3.206  11.543  0.5966 -0.8646  1.9530
18301TIP3   OH276393   3.956   3.729   4.985 -0.2343  0.6680 -0.4378
18301TIP3    H176394   4.051   3.716   4.988 -0.6326 -3.1907  1.7220
18301TIP3    H276395   3.936   3.736   4.892  1.9650 -0.7677 -1.1050
18302TIP3   OH276396   2.173   5.669   4.202 -0.1076  0.0105 -0.4098
18302TIP3    H176397   2.185   5.584   4.245 -0.9399  0.1639  0.1494
18302TIP3    H276398   2.078   5.679   4.194  0.0046  0.5222 -1.2265
18303TIP3   OH276399   4.714   3.368   3.500 -0.0237 -0.0664  0.2360
18303TIP3    H176400   4.789   3.309   3.506  0.6948  0.9735  2.3409
18303TIP3    H276401   4.749   3.447   3.458 -0.2787 -0.0659  0.0226
18304TIP3   OH276402   0.313   5.633   5.118 -0.0340 -0.3186  0.1169
18304TIP3    H176403   0.225   5.598   5.101  0.2774 -1.3103  0.4773
18304TIP3    H276404   0.297   5.716   5.163 -0.7990  0.0484 -0.7861
18305TIP3   OH276405   2.037   6.066  12.928 -0.7001  0.4778  0.1585
18305TIP3    H176406   2.015   6.036  13.016  1.5607 -0.7419  0.4032
18305TIP3    H276407   2.033   6.162  12.933 -3.3216  0.4099  0.7449
18306TIP3   OH276408   5.691   0.655  11.639  0.3740  0.0717 -0.0258
18306TIP3    H176409   5.608   0.617  11.611 -0.0502  0.6432  0.4286
18306TIP3    H276410   5.751   0.580  11.644 -0.0709 -0.3244 -0.4901
18307TIP3   OH276411   3.399   0.535  11.478  0.4012  1.1367  0.1626
18307TIP3    H176412   3.476   0.505  11.430  0.9415  1.6472  0.6892
18307TIP3    H276413   3.337   0.462  11.473  0.5935  1.0382 -0.9740
18308TIP3   OH276414   2.357   0.206   4.436 -0.6474 -0.7342 -0.3655
18308TIP3    H176415   2.427   0.272   4.435 -2.2470  1.1138  0.8744
18308TIP3    H276416   2.402   0.124   4.455  1.3155  0.1633 -0.8548
18309TIP3   OH276417   4.430   5.763  11.894  0.5263 -0.4875  0.4160
18309TIP3    H176418   4.510   5.781  11.845  1.1506  1.3925  2.0182
18309TIP3    H276419   4.451   5.783  11.985 -2.0057  1.0941  0.7718
18310TIP3   OH276420   0.192   1.378   6.273  0.1281 -0.1720 -0.0296
18310TIP3    H176421   0.126   1.318   6.308  0.1765 -0.0809  0.2240
18310TIP3    H276422   0.264   1.373   6.337  1.3496 -1.9960 -1.4230
18311TIP3   OH276423   4.624   6.163  14.262  0.4682 -0.4191  0.4178
18311TIP3    H176424   4.606   6.069  14.254 -0.2011 -0.4554  2.0631
18311TIP3    H276425   4.585   6.188  14.345 -0.4205  1.5831 -0.5362
18312TIP3   OH276426   5.546   0.854   4.527  0.0381  0.5351 -0.1232
18312TIP3    H176427   5.611   0.919   4.554 -0.4407  0.1433  2.2032
18312TIP3    H276428   5.586   0.770   4.547 -1.0485  0.2862  1.1133
18313TIP3   OH276429   2.268   4.718   1.436 -0.5867  0.3200  0.1710
18313TIP3    H176430   2.205   4.743   1.369 -0.0582  0.9941 -0.0821
18313TIP3    H276431   2.215   4.705   1.515 -1.3342 -1.3923 -0.5687
18314TIP3   OH276432   4.854   2.605   0.985 -0.0728 -0.0723  0.7140
18314TIP3    H176433   4.774   2.653   1.004 -0.7641 -1.1395  0.5694
18314TIP3    H276434   4.825   2.525   0.942  1.0232 -0.7375  1.1563
18315TIP3   OH276435   2.220   2.480  17.137  0.0306 -0.1993  0.5417
18315TIP3    H176436   2.210   2.496  17.044 -0.9914 -1.5436  0.3838
18315TIP3    H276437   2.212   2.566  17.178  1.8646  0.6066 -0.6703
18316TIP3   OH276438   0.896   2.613   2.039 -0.1618  0.1056  0.6662
18316TIP3    H176439   0.804   2.639   2.037 -1.1180 -2.9058 -0.8480
18316TIP3    H276440   0.894   2.519   2.057  2.3772 -0.6741 -2.2428
18317TIP3   OH276441   1.325   2.711  12.374  0.2226  0.2338  0.1220
18317TIP3    H176442   1.287   2.623  12.379  1.6320 -0.3488  2.9479
18317TIP3    H276443   1.269   2.764  12.432  0.7319  0.6208  0.2632
18318TIP3   OH276444   4.606   1.502   2.165 -0.2755  0.1163  0.3009
18318TIP3    H176445   4.687   1.490   2.115 -0.4085 -1.0660  0.3455
18318TIP3    H276446   4.624   1.461   2.250 -0.3191  1.4309  0.9652
18319TIP3   OH276447   0.021   4.052  12.435 -0.0789  0.5920 -0.6188
18319TIP3    H176448   0.095   4.048  12.375  0.4669 -0.5235  0.1116
18319TIP3    H276449  -0.047   4.000  12.393  0.1750  0.1194 -0.4462
18320TIP3   OH276450   0.359   5.248  11.169 -0.1601  0.5026  0.2056
18320TIP3    H176451   0.402   5.193  11.103 -1.9107 -0.2449 -0.3834
18320TIP3    H276452   0.289   5.193  11.203  0.1022  1.2267  2.0336
18321TIP3   OH276453   5.350   6.064   1.420 -0.1696 -0.6697  0.2913
18321TIP3    H176454   5.438   6.096   1.440 -0.0532 -1.0166  0.3465
18321TIP3    H276455   5.342   5.983   1.470  0.1546 -1.5951 -1.1095
18322TIP3   OH276456   4.358   0.073  13.562 -0.5245 -0.8727 -1.1730
18322TIP3    H176457   4.383   0.079  13.469 -1.0357  0.3418 -1.2434
18322TIP3    H276458   4.419   0.009  13.598  0.5151 -0.4203 -2.0687
18323TIP3   OH276459   2.413   1.881   1.480  0.3473 -0.3139  0.5952
18323TIP3    H176460   2.350   1.953   1.479  2.3313  1.5137 -0.1733
18323TIP3    H276461   2.401   1.840   1.565 -1.1277  0.6513  0.8888
18324TIP3   OH276462   2.790   6.200  14.813 -0.2430  0.3748 -0.3952
18324TIP3    H176463   2.881   6.179  14.833  0.1818  1.3546 -1.1837
18324TIP3    H276464   2.740   6.167  14.888  0.7408 -0.3045 -0.0235
18325TIP3   OH276465   2.578   0.377  16.189  0.1793 -0.0968  0.6716
18325TIP3    H176466   2.576   0.335  16.103 -1.5849 -0.3208  0.7887
18325TIP3    H276467   2.648   0.331  16.236  0.0124 -1.1459 -0.0630
18326TIP3   OH276468   1.847   5.297  13.440 -0.5537  0.5060 -0.3745
18326TIP3    H176469   1.852   5.292  13.536 -0.1051  0.6382 -0.3844
18326TIP3    H276470   1.803   5.216  13.414  1.6191 -0.8136 -0.1995
18327TIP3   OH276471   0.258   3.559  12.082  0.0426 -0.2720 -0.0324
18327TIP3    H176472   0.212   3.608  12.149  0.8748 -0.9077  1.0393
18327TIP3    H276473   0.192   3.500  12.046 -0.9459  1.4782 -1.2713
18328TIP3   OH276474   0.138   4.101  15.630  0.0611 -0.1890  0.2925
18328TIP3    H176475   0.204   4.170  15.616 -1.0501  0.3969 -2.7043
18328TIP3    H276476   0.055   4.148  15.635 -0.3383 -0.9708  3.5490
18329TIP3   OH276477   6.632   3.616   4.242  0.5482 -0.1698 -0.0047
18329TIP3    H176478   6.691   3.555   4.198  0.1940 -0.3720 -0.2054
18329TIP3    H276479   6.545   3.579   4.229  0.4916 -0.6114  1.4697
18330TIP3   OH276480   5.932   5.003   1.794 -0.0029 -0.3602  0.2384
18330TIP3    H176481   5.857   4.949   1.769 -0.7088  0.5514  0.3295
18330TIP3    H276482   5.954   5.051   1.715 -1.9330  2.1677  1.1186
18331TIP3   OH276483   0.943   1.348   2.355  0.0260  0.1022  0.3257
18331TIP3    H176484   1.026   1.383   2.387 -0.6144  0.7555  1.3198
18331TIP3    H276485   0.877   1.408   2.390 -1.1016 -1.9373  1.9384
18332TIP3   OH276486   1.459   3.859  13.184  0.9533  0.6922  0.1489
18332TIP3    H176487   1.491   3.789  13.240  1.1653  0.5045 -0.2078
18332TIP3    H276488   1.509   3.936  13.211  0.4670  0.8023  0.7916
18333TIP3   OH276489   6.568   4.010   2.563 -0.0559  0.0499 -0.1029
18333TIP3    H176490   6.635   4.048   2.506  0.8339  1.7910  1.9407
18333TIP3    H276491   6.505   4.081   2.577  1.3550  0.8485  3.3752
18334TIP3   OH276492   5.253   2.394  15.306  0.2699  0.5210 -0.1004
18334TIP3    H176493   5.202   2.420  15.230  0.1859 -0.5118 -0.4191
18334TIP3    H276494   5.212   2.438  15.380 -0.4806  0.4692 -0.4821
18335TIP3   OH276495   4.830   1.301  15.900  0.0315  0.3390 -0.3581
18335TIP3    H176496   4.920   1.269  15.904 -0.2365 -0.3637  0.2246
18335TIP3    H276497   4.787   1.263  15.977 -1.0162 -0.1377 -1.1509
18336TIP3   OH276498   0.379   1.441  12.134 -0.0442 -0.1283 -0.2671
18336TIP3    H176499   0.344   1.427  12.046  1.3393  3.0246 -1.5004
18336TIP3    H276500   0.332   1.518  12.167  1.0467  0.1248  0.7899
18337TIP3   OH276501   4.667   2.723  13.580 -0.4771  0.6180  0.0399
18337TIP3    H176502   4.617   2.669  13.641 -1.3116  1.0697 -0.2258
18337TIP3    H276503   4.683   2.804  13.627 -1.2527  1.0260 -0.3726
18338TIP3   OH276504   1.702   0.045  13.519  0.6296  0.1092  0.4038
18338TIP3    H176505   1.748   0.104  13.579 -0.0969  2.7198 -1.4404
18338TIP3    H276506   1.760  -0.031  13.511  2.5307  1.3687  1.4375
18339TIP3   OH276507   6.181   6.156   1.329 -0.1180 -0.3571  0.2870
18339TIP3    H176508   6.126   6.168   1.406 -1.2034  0.1556 -0.5540
18339TIP3    H276509   6.215   6.067   1.338  1.4735  0.3615  2.4105
18340TIP3   OH276510   3.239   1.772  15.557  0.4878  0.1823  0.1630
18340TIP3    H176511   3.291   1.723  15.492  2.2125  0.9770  0.8820
18340TIP3    H276512   3.165   1.714  15.575  1.2820 -1.1781 -0.6638
18341TIP3   OH276513   0.168   4.061  15.974  0.6265 -0.4573  0.4405
18341TIP3    H176514   0.235   4.038  15.909  1.1902 -0.7229  1.1055
18341TIP3    H276515   0.111   4.123  15.928  3.0502  2.1928  0.7370
18342TIP3   OH276516   5.790   4.207  15.032 -0.1576 -0.4134  0.6178
18342TIP3    H176517   5.805   4.302  15.036 -1.5371 -0.0750 -1.0872
18342TIP3    H276518   5.837   4.179  14.954  1.0120 -1.3369  1.6165
18343TIP3   OH276519   3.858   6.695   3.661  0.2948 -0.9127 -0.2472
18343TIP3    H176520   3.779   6.745   3.645  0.5016 -0.9906 -1.6238
18343TIP3    H276521   3.929   6.760   3.659  0.2557 -0.7806  1.3789
18344TIP3   OH276522   0.937   5.736   2.300 -0.0082 -0.4081  0.2399
18344TIP3    H176523   0.856   5.778   2.328  0.2923 -0.0246  0.5448
18344TIP3    H276524   0.950   5.766   2.210  0.2400  0.2190  0.4764
18345TIP3   OH276525   3.213   5.351   6.280 -0.1728 -0.7142 -0.2571
18345TIP3    H176526   3.250   5.411   6.344 -0.3402  2.0491 -2.5774
18345TIP3    H276527   3.182   5.276   6.332  3.1241 -0.4440  2.4155
18346TIP3   OH276528   3.641   2.353  13.462  0.4626 -0.0103  0.4924
18346TIP3    H176529   3.716   2.402  13.427  1.9454 -0.1782  3.1578
18346TIP3    H276530   3.587   2.421  13.503  0.7413 -0.1898  1.1755
18347TIP3   OH276531   2.778   1.430   2.258 -0.1312 -0.4781  0.6869
18347TIP3    H176532   2.683   1.444   2.266 -0.5504 -2.0038 -0.7626
18347TIP3    H276533   2.817   1.512   2.285 -1.8455  0.0278  1.8212
18348TIP3   OH276534   1.348   2.443  12.023 -0.4829  0.3330 -0.6892
18348TIP3    H176535   1.400   2.378  11.976  0.1137  0.6197 -0.4352
18348TIP3    H276536   1.395   2.456  12.106 -0.7802  0.8400 -0.5931
18349TIP3   OH276537   3.895   0.100   1.809 -0.1918 -0.1134 -0.1333
18349TIP3    H176538   3.879   0.136   1.722  0.8115 -0.2860 -0.4034
18349TIP3    H276539   3.866   0.169   1.869 -1.7239 -0.3501 -0.5698
18350TIP3   OH276540   5.042   5.932  15.890 -0.6427  0.8573 -0.0538
18350TIP3    H176541   5.041   5.860  15.953  0.9811 -0.0036 -0.9392
18350TIP3    H276542   5.080   6.006  15.939 -0.1540  0.4349  0.2127
18351TIP3   OH276543   6.753   0.038   1.351 -0.4043  0.3147 -0.0958
18351TIP3    H176544   6.725   0.066   1.438 -0.6855 -0.0368 -0.0723
18351TIP3    H276545   6.672   0.016   1.305 -0.4129  2.0026 -0.9990
18352TIP3   OH276546   2.581   2.040  12.985  0.4501  0.3731  0.0114
18352TIP3    H176547   2.494   2.005  12.969  0.9308 -0.8962  0.0889
18352TIP3    H276548   2.575   2.079  13.072  0.4180 -1.3129  0.8056
18353TIP3   OH276549   1.753   1.280  11.510 -0.4865 -0.4361  0.3508
18353TIP3    H176550   1.783   1.344  11.574 -0.6912  2.6159 -2.3831
18353TIP3    H276551   1.810   1.293  11.435 -3.5598 -0.0229 -2.0835
18354TIP3   OH276552   5.648   6.413   2.170 -0.1912 -0.6066  0.8137
18354TIP3    H176553   5.587   6.464   2.117  0.7241  0.4874  0.7750
18354TIP3    H276554   5.731   6.418   2.123 -0.0978 -2.2566  0.7512
18355TIP3   OH276555   2.098   0.450  14.352 -0.2394 -0.0494 -0.6032
18355TIP3    H176556   2.087   0.409  14.438  1.1470  0.3099 -0.2373
18355TIP3    H276557   2.167   0.400  14.309  0.9129  1.3323 -0.4634
18356TIP3   OH276558   0.036   3.656   6.226  1.0389 -0.8127  0.2355
18356TIP3    H176559   0.127   3.667   6.255  0.1584 -0.2688  3.0253
18356TIP3    H276560  -0.012   3.633   6.305 -0.8010 -4.4633 -1.6843
18357TIP3   OH276561   6.245   4.053  11.880  0.2305  0.0289  0.4524
18357TIP3    H176562   6.272   3.967  11.848 -1.5336 -0.8676  1.2613
18357TIP3    H276563   6.205   4.095  11.803  1.0593  0.1347  0.0668
18358TIP3   OH276564   5.565   2.696  15.802 -0.1101  0.0847  0.1395
18358TIP3    H176565   5.502   2.746  15.854  1.5111  1.9002  0.4517
18358TIP3    H276566   5.594   2.626  15.861  0.3200  1.0078  1.0613
18359TIP3   OH276567   0.306   6.043  12.406 -0.1703  0.8207 -0.7809
18359TIP3    H176568   0.372   6.110  12.392  1.2734 -0.1829  0.7497
18359TIP3    H276569   0.320   5.980  12.335  1.5775 -0.1111  0.2983
18360TIP3   OH276570   6.520   2.342   0.217 -0.0131 -0.5484  0.2409
18360TIP3    H176571   6.541   2.410   0.153  2.0349  0.1903  1.5949
18360TIP3    H276572   6.427   2.356   0.238  0.4167  2.0803  0.6998
18361TIP3   OH276573   5.117   0.207   2.606  0.2277  0.2844 -0.5585
18361TIP3    H176574   5.113   0.121   2.565 -1.7067 -0.6058  1.3092
18361TIP3    H276575   5.164   0.193   2.688  0.7177  1.2110 -0.6704
18362TIP3   OH276576   0.719   5.342  15.486 -0.2761  0.4231  0.4410
18362TIP3    H176577   0.784   5.278  15.516  1.1931  2.7397  2.5962
18362TIP3    H276578   0.636   5.308  15.518  0.4781 -0.3469  1.6815
18363TIP3   OH276579   2.925   0.277   5.307 -0.0649 -0.5770 -0.0453
18363TIP3    H176580   2.863   0.212   5.338  2.7471 -3.0413  0.9128
18363TIP3    H276581   2.933   0.262   5.213 -2.3492  1.1969 -0.6000
18364TIP3   OH276582   2.705   0.075  14.115  0.1396  0.1271 -0.4873
18364TIP3    H176583   2.668   0.134  14.050  0.4224  0.9331  0.0689
18364TIP3    H276584   2.700  -0.012  14.074  0.7593  0.6680 -1.7929
18365TIP3   OH276585   1.197   4.640  11.585 -0.0422 -0.8552 -0.0204
18365TIP3    H176586   1.101   4.636  11.584 -0.0359 -1.3042 -1.7912
18365TIP3    H276587   1.222   4.648  11.492  1.6694 -1.5043  0.3471
18366TIP3   OH276588   5.935   2.155  15.946 -0.0451 -0.0718  0.1398
18366TIP3    H176589   5.880   2.084  15.979 -0.6314 -0.3152 -1.2830
18366TIP3    H276590   5.882   2.197  15.878  0.9468  0.6588 -0.2100
18367TIP3   OH276591   5.444   0.068  16.868  0.2096 -0.1293  0.7257
18367TIP3    H176592   5.512   0.105  16.925  0.5748 -0.0061  0.2133
18367TIP3    H276593   5.451   0.117  16.786 -1.1191  0.5306  0.9674
18368TIP3   OH276594   3.867   0.005   4.530  0.5258  0.5242  0.7186
18368TIP3    H176595   3.881  -0.010   4.624  1.0360  0.9410  0.7100
18368TIP3    H276596   3.913   0.087   4.511 -0.4931  1.0237  0.3298
18369TIP3   OH276597   0.106   5.210   4.531  0.2826 -0.6269  0.2832
18369TIP3    H176598   0.076   5.119   4.523  0.2525 -0.5531 -0.5556
18369TIP3    H276599   0.036   5.261   4.491  0.4061 -0.2540  0.5480
18370TIP3   OH276600   0.643   0.042   4.945 -0.0896  0.0290  0.3108
18370TIP3    H176601   0.592  -0.039   4.934 -0.5912  0.4980 -0.9740
18370TIP3    H276602   0.637   0.061   5.039  0.4886 -1.7012  0.7410
18371TIP3   OH276603   2.386   4.408  14.060 -0.9470 -0.0373 -0.0943
18371TIP3    H176604   2.346   4.395  14.147 -2.3731  0.3303 -0.6713
18371TIP3    H276605   2.437   4.489  14.069 -0.7153 -0.2428  0.5136
18372TIP3   OH276606   5.222   2.713  15.058 -0.2763  0.1161 -0.8243
18372TIP3    H176607   5.190   2.794  15.098 -0.7950 -0.0488 -0.8975
18372TIP3    H276608   5.277   2.742  14.986 -0.5805  0.4024 -0.9419
18373TIP3   OH276609   0.430   0.144   1.618  0.3811  0.6808 -0.0297
18373TIP3    H176610   0.356   0.204   1.611 -0.3092 -0.0444  0.6576
18373TIP3    H276611   0.445   0.136   1.713  1.1650  0.6060 -0.1535
18374TIP3   OH276612   6.283   3.836   2.428  0.0801 -0.2396 -0.2843
18374TIP3    H176613   6.300   3.892   2.352  0.3084  0.4436  0.2668
18374TIP3    H276614   6.330   3.755   2.408 -0.3492 -0.2956 -1.1369
18375TIP3   OH276615   5.432   3.918  15.885 -0.0565  0.2971 -0.0121
18375TIP3    H176616   5.436   4.006  15.922 -0.8243  1.0929 -1.7350
18375TIP3    H276617   5.370   3.924  15.812  2.4812 -0.7584 -2.4668
18376TIP3   OH276618   0.732   4.710  15.905 -0.0577 -0.5435 -0.1585
18376TIP3    H176619   0.807   4.652  15.922  1.7399  2.0066  1.2628
18376TIP3    H276620   0.673   4.695  15.978  0.6315 -0.2695  0.4728
18377TIP3   OH276621   6.058   5.621  12.575  0.3491 -0.1955  0.3782
18377TIP3    H176622   6.150   5.596  12.560 -0.1798 -2.1319  0.1175
18377TIP3    H276623   6.051   5.709  12.537  1.7692 -0.5407 -0.8016
18378TIP3   OH276624   6.419   6.628   3.310 -0.3060 -0.5303  0.3270
18378TIP3    H176625   6.391   6.618   3.401 -0.5693 -2.8965  0.0374
18378TIP3    H276626   6.368   6.703   3.277 -0.7501 -0.1179  1.8973
18379TIP3   OH276627   0.206   0.805   3.933 -0.1345 -0.2604  0.7345
18379TIP3    H176628   0.225   0.714   3.909  1.2763  0.5078 -1.2969
18379TIP3    H276629   0.287   0.837   3.973 -0.5957  0.1476  1.3658
18380TIP3   OH276630   1.985   4.768   4.001  0.1018 -0.0696 -0.2107
18380TIP3    H176631   2.015   4.856   4.024  2.1288 -0.6001 -0.6411
18380TIP3    H276632   1.975   4.770   3.906 -1.4746  0.1279 -0.0723
18381TIP3   OH276633   2.131   1.835  12.174  0.7074 -0.3845  0.1306
18381TIP3    H176634   2.205   1.831  12.235  1.0514 -0.8176 -0.2985
18381TIP3    H276635   2.168   1.876  12.096  0.0814  0.8455  0.4671
18382TIP3   OH276636   1.290   1.066  14.729 -0.2438  0.3482  0.1631
18382TIP3    H176637   1.281   1.088  14.636  0.5375  0.1508  0.0301
18382TIP3    H276638   1.331   1.143  14.768  0.5675 -0.0396  0.0981
18383TIP3   OH276639   6.143   0.032   1.667  0.3582 -0.5199  0.2080
18383TIP3    H176640   6.073   0.054   1.605 -2.0903 -2.7297  1.9786
18383TIP3    H276641   6.160   0.113   1.714 -1.8216 -0.1286  0.4402
18384TIP3   OH276642   1.651   6.368   2.010 -0.2248 -0.5716 -0.1664
18384TIP3    H176643   1.605   6.356   1.927 -2.1496 -0.5640  0.8464
18384TIP3    H276644   1.665   6.463   2.016 -1.6115 -0.3880  0.2865
18385TIP3   OH276645   4.744   6.767   1.238 -0.4317  0.1881 -0.2953
18385TIP3    H176646   4.823   6.717   1.219 -2.0083 -3.1224  0.9636
18385TIP3    H276647   4.725   6.816   1.158  1.2239 -1.3379 -1.6795
18386TIP3   OH276648   3.732   3.919   1.214  0.0648 -0.1360 -0.6930
18386TIP3    H176649   3.700   3.920   1.124 -1.7334  0.0416 -0.0958
18386TIP3    H276650   3.693   3.996   1.255  1.9193  0.5412 -0.0686
18387TIP3   OH276651   2.817   6.342   3.446  0.0346 -0.2941  0.4706
18387TIP3    H176652   2.832   6.247   3.450  0.5624 -0.1774  1.5099
18387TIP3    H276653   2.827   6.363   3.353  0.8415 -1.1116  0.3563
18388TIP3   OH276654   0.872   4.475  17.241  0.0443 -0.0455 -0.0720
18388TIP3    H176655   0.777   4.463  17.235 -0.1216  1.5382 -1.2360
18388TIP3    H276656   0.908   4.402  17.191 -0.4896 -1.2941  1.3050
18389TIP3   OH276657   1.994   6.293   2.555 -0.2091  0.3932  0.1037
18389TIP3    H176658   2.057   6.360   2.583 -0.0286  0.1183  0.3568
18389TIP3    H276659   1.945   6.271   2.634 -0.1313  0.0805  0.0656
18390TIP3   OH276660   4.036   3.018   3.128 -0.3030 -0.3801 -0.2016
18390TIP3    H176661   4.026   2.923   3.114 -1.2502 -0.4182  0.6051
18390TIP3    H276662   4.104   3.025   3.195 -0.8706 -0.5417  0.3992
18391TIP3   OH276663   3.587   5.037  12.041 -0.3037  0.1660 -0.0633
18391TIP3    H176664   3.601   5.007  11.951 -0.8535 -1.3697  0.3392
18391TIP3    H276665   3.671   5.022  12.085 -1.1575 -3.0667  0.7116
18392TIP3   OH276666   5.106   2.435  14.681  0.1271 -0.0388  0.0799
18392TIP3    H176667   5.161   2.494  14.629  0.2809 -0.5398 -0.3193
18392TIP3    H276668   5.160   2.358  14.695 -0.0683 -0.0800  0.6308
18393TIP3   OH276669   0.773   5.265   3.185  0.0005 -0.1125 -0.5927
18393TIP3    H176670   0.739   5.238   3.099 -2.9190 -1.4068  0.8264
18393TIP3    H276671   0.713   5.335   3.213  0.8244  0.1887  0.4791
18394TIP3   OH276672   3.216   3.402   6.019  0.6269 -0.0615 -0.4189
18394TIP3    H176673   3.140   3.367   6.066  0.4471 -0.4885 -1.0016
18394TIP3    H276674   3.211   3.360   5.933  2.3397 -1.2370  0.0052
18395TIP3   OH276675   1.228   4.181   2.314 -0.0973 -0.2184 -0.0374
18395TIP3    H176676   1.146   4.157   2.359  0.5253 -0.5983  0.9191
18395TIP3    H276677   1.211   4.269   2.281 -0.7473 -0.1123  0.5411
18396TIP3   OH276678   3.580   3.212   4.490  0.1566  0.6200  0.6798
18396TIP3    H176679   3.640   3.208   4.416 -1.0328 -0.0582 -0.2816
18396TIP3    H276680   3.627   3.169   4.562  1.8653  2.4579  0.7688
18397TIP3   OH276681   0.146   2.915   6.051 -0.2283 -0.2445 -0.6648
18397TIP3    H176682   0.053   2.934   6.053  0.2679  2.8342 -1.3625
18397TIP3    H276683   0.162   2.885   5.961 -0.7583 -2.5819 -0.0387
18398TIP3   OH276684   6.580   4.854  12.770 -0.6115 -0.2599  0.8219
18398TIP3    H176685   6.602   4.941  12.803 -0.1218 -0.0798  0.0565
18398TIP3    H276686   6.641   4.840  12.697 -2.2301 -0.2306 -0.6165
18399TIP3   OH276687   4.364   0.852   1.807 -0.4019 -0.1333 -0.0428
18399TIP3    H176688   4.288   0.800   1.783 -1.9263  2.3826 -1.0577
18399TIP3    H276689   4.423   0.844   1.732 -0.6180 -0.4114 -0.1849
18400TIP3   OH276690   5.517   6.096   2.859 -0.1088  0.0059 -0.0937
18400TIP3    H176691   5.612   6.098   2.868 -0.1190 -0.0600  0.0413
18400TIP3    H276692   5.500   6.134   2.773 -0.0328  1.1834  0.3862
18401TIP3   OH276693   1.996   2.651   5.358  0.8288  0.1225 -0.1383
18401TIP3    H176694   1.986   2.646   5.453  2.6915  1.0487  0.1301
18401TIP3    H276695   2.072   2.596   5.339  0.5927  0.1095 -1.0902
18402TIP3   OH276696   5.816   1.314   4.647 -0.0241  0.5476  0.1174
18402TIP3    H176697   5.794   1.382   4.711 -1.2512  1.3123 -1.0612
18402TIP3    H276698   5.854   1.362   4.573 -2.3536  0.2068 -1.4011
18403TIP3   OH276699   2.293   5.141   4.278  0.1677  0.1376  0.2187
18403TIP3    H176700   2.276   5.094   4.359  1.1177 -0.6271 -0.0024
18403TIP3    H276701   2.238   5.098   4.213  0.0479  0.1945  0.2815
18404TIP3   OH276702   3.093   3.602   3.893 -0.2913  0.4610  0.0574
18404TIP3    H176703   3.005   3.620   3.859  0.3647  0.5158 -1.6903
18404TIP3    H276704   3.152   3.634   3.825  1.0650 -0.9411  0.5235
18405TIP3   OH276705   5.974   2.556   5.235  0.3460  0.9295  0.2951
18405TIP3    H176706   5.899   2.580   5.181  0.7898  0.6318 -0.4809
18405TIP3    H276707   6.026   2.637   5.240 -1.1539  1.8440  2.8337
18406TIP3   OH276708   0.215   5.354   0.984  0.5025 -0.2028 -0.3257
18406TIP3    H176709   0.127   5.334   0.954 -0.1387  1.6063  0.2221
18406TIP3    H276710   0.258   5.394   0.909  0.5733 -0.3161 -0.3452
18407TIP3   OH276711   2.623   6.651   5.025 -0.1791  0.1252  0.4885
18407TIP3    H176712   2.672   6.569   5.020 -0.8013 -0.2720  0.7966
18407TIP3    H276713   2.585   6.651   5.113 -1.0857  0.2210  0.0996
18408TIP3   OH276714   4.113   0.076  14.000  0.3566  0.4841 -0.5474
18408TIP3    H176715   4.126   0.042  13.912 -0.1803  0.5273 -0.6464
18408TIP3    H276716   4.160   0.159  14.001  3.9083 -1.3682  0.4804
18409TIP3   OH276717   5.540   5.661  16.655  0.0860 -0.6032  0.3639
18409TIP3    H176718   5.574   5.654  16.565  2.5647 -0.2041  1.1910
18409TIP3    H276719   5.581   5.588  16.701 -1.4636 -1.0276  1.1057
18410TIP3   OH276720   3.913   3.766  14.588  0.0132  0.2386 -0.6966
18410TIP3    H176721   3.986   3.824  14.568  0.0584  0.8841  1.1018
18410TIP3    H276722   3.837   3.807  14.546  0.2565  0.9604 -0.4366
18411TIP3   OH276723   2.827   3.465  11.482  0.0476  0.1167 -0.3946
18411TIP3    H176724   2.922   3.460  11.476  0.0166 -0.1053 -0.7646
18411TIP3    H276725   2.810   3.520  11.558  0.4698  0.0030 -0.2171
18412TIP3   OH276726   3.670   0.302  15.518 -0.7013 -0.2600  0.1016
18412TIP3    H176727   3.583   0.286  15.552 -1.1147  1.9994  0.2608
18412TIP3    H276728   3.723   0.321  15.595 -0.3254 -0.5205 -0.0887
18413TIP3   OH276729   2.697   5.562   1.428 -0.0666  0.2894  0.0975
18413TIP3    H176730   2.616   5.588   1.384  0.6003 -0.3155 -1.5693
18413TIP3    H276731   2.684   5.587   1.520 -1.8940  0.7292 -0.2475
18414TIP3   OH276732   2.852   6.283  17.368  0.0395  0.0960  0.2994
18414TIP3    H176733   2.869   6.370  17.331  0.9303 -1.0743 -2.3055
18414TIP3    H276734   2.760   6.285  17.392  0.2935  2.0796  1.3407
18415TIP3   OH276735   1.473   6.714   3.745  0.4584  0.2358  0.6741
18415TIP3    H176736   1.514   6.697   3.660  0.0015  0.9226  0.3099
18415TIP3    H276737   1.435   6.801   3.737 -2.6402 -1.0085  0.3435
18416TIP3   OH276738   2.608   6.197  17.392 -0.3105 -0.0321 -0.0242
18416TIP3    H176739   2.596   6.102  17.385  0.1104 -0.0896 -0.0301
18416TIP3    H276740   2.541   6.235  17.336 -1.2319 -0.2921  0.8824
18417TIP3   OH276741   2.250   3.867   1.330 -0.1662 -0.7252  0.5780
18417TIP3    H176742   2.341   3.892   1.311 -1.2061  1.2257 -2.8117
18417TIP3    H276743   2.241   3.779   1.292  0.2778 -0.9088  0.8898
18418TIP3   OH276744   4.946   3.642   3.672 -0.0617 -0.0064  0.2476
18418TIP3    H176745   4.979   3.554   3.655  0.9755  0.2761  0.7084
18418TIP3    H276746   5.006   3.700   3.625 -0.9533  0.4497 -0.3587
18419TIP3   OH276747   4.991   5.547   2.804  0.7067 -0.0254 -0.3065
18419TIP3    H176748   4.940   5.626   2.824  0.4777 -0.5605  1.3983
18419TIP3    H276749   4.925   5.477   2.798  1.1762 -0.8764  2.7334
18420TIP3   OH276750   5.985   3.147  15.351  0.0141 -0.1108 -0.2098
18420TIP3    H176751   5.995   3.105  15.265 -0.6672 -0.0141 -0.3402
18420TIP3    H276752   6.049   3.219  15.349 -0.3581  0.2153 -0.8446
18421TIP3   OH276753   5.377   1.075   6.162 -0.0280 -0.7157  0.1498
18421TIP3    H176754   5.327   1.006   6.207  0.3344 -0.6574  0.6590
18421TIP3    H276755   5.395   1.139   6.231 -0.9460  0.2207 -0.4715
18422TIP3   OH276756   5.835   4.935   4.074 -0.9726  0.1093 -0.5761
18422TIP3    H176757   5.744   4.927   4.048 -0.2548 -0.5983 -3.1575
18422TIP3    H276758   5.885   4.905   3.998  1.4055 -1.0990  1.3113
18423TIP3   OH276759   4.013   5.026  13.078  0.0888 -0.4753  0.3527
18423TIP3    H176760   4.064   5.044  12.999  0.4286  0.2081  0.7144
18423TIP3    H276761   4.073   4.977  13.134  0.1642 -0.1718  0.5449
18424TIP3   OH276762   3.859   6.616  12.170 -0.5402 -0.1646  0.5700
18424TIP3    H176763   3.918   6.687  12.193  0.0792 -0.7077  0.6796
18424TIP3    H276764   3.829   6.580  12.253  2.5249 -2.8218  0.7494
18425TIP3   OH276765   4.903   1.284   0.390  0.2902  0.0090  0.5802
18425TIP3    H176766   4.977   1.300   0.332 -0.1546  0.5593  0.1578
18425TIP3    H276767   4.874   1.371   0.418 -1.5718 -0.0291 -1.0088
18426TIP3   OH276768   5.891   6.211  13.275 -0.0470 -0.3093  0.0259
18426TIP3    H176769   5.827   6.220  13.204 -1.2674 -0.8618  0.9955
18426TIP3    H276770   5.965   6.265  13.249 -0.6217 -0.2142 -1.4853
18427TIP3   OH276771   4.755   3.845  12.140 -0.4707 -0.1417 -0.5453
18427TIP3    H176772   4.758   3.855  12.045 -0.5243  1.8824 -0.3717
18427TIP3    H276773   4.826   3.899  12.172 -1.2621  0.2393  0.6268
18428TIP3   OH276774   4.847   2.795   5.674  0.4859 -0.8583 -0.1453
18428TIP3    H176775   4.815   2.748   5.596 -0.6582  0.5402 -0.5638
18428TIP3    H276776   4.929   2.751   5.696  0.5246 -1.6989 -1.7764
18429TIP3   OH276777   5.795   5.104   3.541 -0.1455 -0.5404 -0.3571
18429TIP3    H176778   5.758   5.180   3.496 -0.4900  0.6742  1.8365
18429TIP3    H276779   5.882   5.093   3.502  0.2011  1.4387 -0.2592
18430TIP3   OH276780   0.853   5.794  11.245  0.1496  0.2261  0.2373
18430TIP3    H176781   0.862   5.863  11.179  2.8627 -0.8176 -0.6494
18430TIP3    H276782   0.804   5.724  11.201  0.5521  0.1807 -0.1494
18431TIP3   OH276783   1.166   1.668  16.751  0.4533 -0.6315  0.4009
18431TIP3    H176784   1.259   1.661  16.771  0.5838  0.1189  0.0830
18431TIP3    H276785   1.128   1.717  16.824  0.7679  1.2825 -0.6490
18432TIP3   OH276786   0.697   6.649   5.576 -0.1302 -0.1807  0.6199
18432TIP3    H176787   0.637   6.684   5.643 -1.3247  0.2513 -0.6373
18432TIP3    H276788   0.746   6.581   5.622 -2.3814 -1.3560  1.4494
18433TIP3   OH276789   1.552   1.521  13.037 -0.6748 -0.4376  0.0132
18433TIP3    H176790   1.578   1.464  12.965 -1.2762 -1.3753  0.5246
18433TIP3    H276791   1.603   1.490  13.112 -0.2249  0.3810  0.0570
18434TIP3   OH276792   1.469   3.716   2.882 -0.7321  0.1086  0.1557
18434TIP3    H176793   1.449   3.724   2.788  1.2210  0.4658 -0.2813
18434TIP3    H276794   1.555   3.757   2.891 -0.2277 -1.2239  1.8590
18435TIP3   OH276795   5.677   2.009   5.138  0.4021 -0.0792  0.4656
18435TIP3    H176796   5.717   2.074   5.081 -0.2229 -0.8514 -0.8804
18435TIP3    H276797   5.739   2.001   5.212  0.5768  1.8772  0.5841
18436TIP3   OH276798   5.908   5.887   0.328  0.2214 -0.9072 -0.3082
18436TIP3    H176799   5.884   5.979   0.315  2.8097  0.1039  1.2395
18436TIP3    H276800   5.852   5.857   0.400  1.2081  0.3849  1.0679
18437TIP3   OH276801   0.713   2.432  14.937 -0.0017 -0.5642 -0.7331
18437TIP3    H176802   0.783   2.366  14.930  0.2173 -0.3850 -0.3230
18437TIP3    H276803   0.745   2.507  14.888  1.7717  0.8930  2.3566
18438TIP3   OH276804   0.577   6.046   5.593  0.0847 -0.1401  0.0878
18438TIP3    H176805   0.628   5.970   5.619  1.8151  1.1640  0.6975
18438TIP3    H276806   0.605   6.116   5.652 -3.2498  0.4287  1.2189
18439TIP3   OH276807   2.825   5.180  13.018 -0.4818 -0.3639  0.1424
18439TIP3    H176808   2.886   5.181  12.944  0.7502 -0.8192  1.1127
18439TIP3    H276809   2.773   5.260  13.007  0.4236  0.1451 -0.6113
18440TIP3   OH276810   2.527   0.179   4.838  0.1020  0.0461 -0.1773
18440TIP3    H176811   2.592   0.156   4.905  0.7144  1.9219 -0.0756
18440TIP3    H276812   2.503   0.095   4.798 -0.3441 -1.1347  2.4197
18441TIP3   OH276813   1.119   3.623  14.448  0.7471  0.1494 -0.0566
18441TIP3    H176814   1.183   3.576  14.501 -0.0334  0.2203  0.9966
18441TIP3    H276815   1.040   3.624  14.502  0.4927  1.9468 -0.3764
18442TIP3   OH276816   3.966   5.444   1.724  0.0045 -0.4357 -0.1438
18442TIP3    H176817   3.881   5.401   1.723 -0.4314  0.4017 -0.6993
18442TIP3    H276818   3.963   5.502   1.800 -1.2077  1.9815 -1.8912
18443TIP3   OH276819   1.946   6.140   4.912 -0.4295 -0.1201  0.0940
18443TIP3    H176820   1.945   6.230   4.946  0.7759  0.2502 -0.7642
18443TIP3    H276821   1.896   6.146   4.830  0.8876  0.1261 -0.7215
18444TIP3   OH276822   4.881   4.760   0.123 -0.4488 -0.0930 -0.3645
18444TIP3    H176823   4.833   4.762   0.040 -1.2284  1.6331  0.0841
18444TIP3    H276824   4.879   4.668   0.149 -0.7927 -0.5550 -1.9144
18445TIP3   OH276825   5.284   3.521  12.464 -0.3850 -0.1324  0.1731
18445TIP3    H176826   5.374   3.491  12.476 -0.5598 -0.6439  0.2186
18445TIP3    H276827   5.289   3.585  12.394 -0.0695 -0.5655 -0.2057
18446TIP3   OH276828   0.906   3.642  11.615 -0.3685 -0.1193 -0.0554
18446TIP3    H176829   0.817   3.653  11.581  0.5261  0.5146 -2.3982
18446TIP3    H276830   0.940   3.567  11.566  0.1623 -0.8391  1.3722
18447TIP3   OH276831   1.336   5.758   0.682  0.2473 -0.2343 -0.4507
18447TIP3    H176832   1.252   5.764   0.636  1.1698  0.3310 -2.1445
18447TIP3    H276833   1.402   5.765   0.613  1.7190 -2.5419  0.5813
18448TIP3   OH276834   1.368   4.506   0.611 -0.3837 -0.4658 -0.0601
18448TIP3    H176835   1.332   4.450   0.680  0.1706  1.1354  1.6450
18448TIP3    H276836   1.462   4.505   0.626 -0.1554 -0.7786 -1.3934
18449TIP3   OH276837   2.820   1.322  17.029  0.1411  0.5111  0.2330
18449TIP3    H176838   2.860   1.236  17.042 -1.9146 -0.5700 -0.1808
18449TIP3    H276839   2.746   1.306  16.971 -0.4983  2.5246  0.4051
18450TIP3   OH276840   3.616   5.899  16.503  0.3408  0.2744  0.0563
18450TIP3    H176841   3.539   5.886  16.559  0.3524  1.9689  0.5296
18450TIP3    H276842   3.688   5.912  16.565  0.7563  0.0316 -0.3759
18451TIP3   OH276843   2.246   1.993   0.590  0.5532 -0.4186 -0.6661
18451TIP3    H176844   2.328   1.990   0.540  1.1116 -3.5296  0.1966
18451TIP3    H276845   2.274   1.984   0.681 -0.7215 -1.0368 -0.3212
18452TIP3   OH276846   2.156   2.097   6.650 -0.4502 -0.1719 -0.0806
18452TIP3    H176847   2.176   2.040   6.723 -1.0483 -0.4092 -0.0958
18452TIP3    H276848   2.218   2.170   6.658 -1.0596  0.2450  1.1604
18453TIP3   OH276849   5.958   1.572  14.291 -0.0029 -0.0550 -0.5385
18453TIP3    H176850   5.912   1.510  14.235  0.7381  0.6937 -2.0445
18453TIP3    H276851   6.044   1.533  14.306 -0.4435 -0.5914  0.7285
18454TIP3   OH276852   5.112   2.549  15.474 -0.4590  0.1546 -0.2984
18454TIP3    H176853   5.063   2.608  15.417 -0.1223  0.5346 -0.2037
18454TIP3    H276854   5.174   2.606  15.520  1.7528 -0.5521 -2.1749
18455TIP3   OH276855   5.047   5.709  14.270  0.4033 -0.4690  0.6254
18455TIP3    H176856   4.984   5.780  14.282 -1.6590 -1.8519 -1.2270
18455TIP3    H276857   4.996   5.629  14.285  1.9658 -1.6338  0.0187
18456TIP3   OH276858   3.934   2.750  13.035  0.2255 -0.4664 -0.2616
18456TIP3    H176859   4.021   2.760  13.075  0.4246 -2.8877  0.0314
18456TIP3    H276860   3.950   2.708  12.951 -0.5925  0.1553 -0.7457
18457TIP3   OH276861   0.995   5.776  13.852 -0.4101  0.7181 -0.4447
18457TIP3    H176862   1.020   5.692  13.890 -0.3539  1.2995  0.8590
18457TIP3    H276863   1.049   5.841  13.898 -0.0617  1.4281 -1.8062
18458TIP3   OH276864   4.073   0.502  13.770  0.0069  0.2849  0.3572
18458TIP3    H176865   4.072   0.470  13.680  1.9896  0.5365  0.1922
18458TIP3    H276866   4.051   0.594  13.764 -2.6988 -0.2631  0.5021
18459TIP3   OH276867   2.063   1.061  15.485 -0.2125  0.5615 -0.2549
18459TIP3    H176868   2.029   1.090  15.569  0.7812  1.6188 -0.1921
18459TIP3    H276869   2.156   1.047  15.500 -0.0499  0.6204 -1.1358
18460TIP3   OH276870   0.649   6.533  11.671  0.1604  0.5455  0.3869
18460TIP3    H176871   0.631   6.541  11.577  0.0032  0.6299  0.4220
18460TIP3    H276872   0.667   6.623  11.699  1.0665  0.4045  0.2731
18461TIP3   OH276873   6.036   5.380  12.260 -0.1703 -0.1103 -0.0546
18461TIP3    H176874   6.116   5.426  12.286 -0.3783  0.2557 -0.0565
18461TIP3    H276875   6.060   5.287  12.264  0.5072  0.0142 -0.8611
18462TIP3   OH276876   2.944   4.849   5.713  0.0644  0.0167 -0.1158
18462TIP3    H176877   2.890   4.771   5.719 -0.6784  0.5961  1.2912
18462TIP3    H276878   2.970   4.868   5.804 -0.5985  1.9319 -0.2694
18463TIP3   OH276879   5.029   2.625  11.462 -0.4356  0.4981 -0.3739
18463TIP3    H176880   5.033   2.717  11.485 -0.3826  0.1479  1.1065
18463TIP3    H276881   4.975   2.585  11.530  0.0443 -0.6580 -0.6389
18464TIP3   OH276882   3.266   0.292  11.860 -0.0298  0.2843 -0.1355
18464TIP3    H176883   3.286   0.382  11.832  0.5747  0.3622  0.5180
18464TIP3    H276884   3.350   0.248  11.860 -0.2750 -0.1876 -0.0958
18465TIP3   OH276885   1.993   5.026   3.810  0.1867  0.1921 -0.0425
18465TIP3    H176886   1.916   4.969   3.815  0.8801 -0.9054 -1.0990
18465TIP3    H276887   1.965   5.099   3.756 -0.4134  0.3318  0.4488
18466TIP3   OH276888   2.506   3.908  13.277  0.1354  0.0116  0.3275
18466TIP3    H176889   2.553   3.933  13.357  1.2955  0.4718 -0.4687
18466TIP3    H276890   2.505   3.813  13.278 -0.3965  0.0138  1.1756
18467TIP3   OH276891   6.332   4.485   5.425  0.0259  0.0050 -0.2111
18467TIP3    H176892   6.390   4.517   5.355 -0.4177 -0.6042 -0.8754
18467TIP3    H276893   6.383   4.418   5.470 -0.4770 -1.2444 -1.4262
18468TIP3   OH276894   2.121   4.356  16.375  0.2755  0.0414 -0.3404
18468TIP3    H176895   2.124   4.432  16.318 -0.0367 -0.9243 -1.6994
18468TIP3    H276896   2.209   4.350  16.411  0.1944  1.2641  0.1177
18469TIP3   OH276897   4.382   6.498  15.596  0.7640 -0.0105  0.0873
18469TIP3    H176898   4.404   6.590  15.611  0.7835 -0.1021  0.6342
18469TIP3    H276899   4.296   6.486  15.636  0.9641 -0.3407  0.4281
18470TIP3   OH276900   0.054   3.020  13.015  0.0685  0.2951 -0.0056
18470TIP3    H176901  -0.032   3.035  12.977 -0.4114  0.4348  1.1066
18470TIP3    H276902   0.037   2.978  13.099  1.0436  0.9754  0.5609
18471TIP3   OH276903   4.006   3.606  10.540  0.5561 -0.4726 -0.0460
18471TIP3    H176904   3.995   3.667  10.467  1.1121 -0.0330  0.2305
18471TIP3    H276905   4.101   3.594  10.546  0.5104 -0.5339  0.5806
18472TIP3   OH276906   1.205   5.855  12.118 -0.3138  0.2927  0.3991
18472TIP3    H176907   1.271   5.921  12.139 -0.5281  0.8628 -0.6355
18472TIP3    H276908   1.215   5.788  12.186  1.0602  0.5650  0.4915
18473TIP3   OH276909   4.394   2.521   0.572  0.2850  0.2718 -0.2831
18473TIP3    H176910   4.363   2.479   0.652  1.0018  0.2943  0.0144
18473TIP3    H276911   4.440   2.451   0.525  0.2952  0.3817 -0.4366
18474TIP3   OH276912   1.794   1.697  13.711  0.8060  0.0317  0.5245
18474TIP3    H176913   1.721   1.691  13.650  0.8154 -0.0036  0.5176
18474TIP3    H276914   1.779   1.779  13.758  1.1478  0.4013  0.0150
18475TIP3   OH276915   2.320   3.605   5.926  0.2627  0.2391  0.4696
18475TIP3    H176916   2.383   3.554   5.976  0.7120  0.8691  0.5545
18475TIP3    H276917   2.323   3.567   5.838 -1.9772 -2.1963  1.3279
18476TIP3   OH276918   2.888   4.869  11.413  0.9015  0.0242  0.0538
18476TIP3    H176919   2.804   4.915  11.418 -0.3509 -1.8726 -1.7321
18476TIP3    H276920   2.900   4.831  11.501  0.7409  1.6292  0.8050
18477TIP3   OH276921   2.301   4.369  14.297  0.4909 -0.7844 -0.2352
18477TIP3    H176922   2.208   4.387  14.308  0.8478  1.0097  0.2093
18477TIP3    H276923   2.322   4.307  14.366 -0.4532 -1.6046 -0.6526
18478TIP3   OH276924   6.436   4.391  11.387 -0.7661 -0.5561  0.0017
18478TIP3    H176925   6.435   4.337  11.466 -2.3421 -1.3654 -0.5163
18478TIP3    H276926   6.487   4.341  11.324  0.6507  0.1758  0.5199
18479TIP3   OH276927   5.585   3.533  17.450  0.0423 -0.0760  0.5813
18479TIP3    H176928   5.515   3.514  17.512 -1.6715 -0.0380 -1.2338
18479TIP3    H276929   5.634   3.451  17.443 -0.7732 -0.5808  0.7221
18480TIP3   OH276930   2.259   0.276   2.578  0.2358 -0.5409 -0.0189
18480TIP3    H176931   2.167   0.273   2.552 -0.0272 -0.3958  0.8660
18480TIP3    H276932   2.307   0.247   2.500 -0.4156  1.3492 -1.1753
18481TIP3   OH276933   1.289   5.619  16.766  0.3213 -0.2415  0.5071
18481TIP3    H176934   1.378   5.649  16.746  0.5043 -0.6884  0.6449
18481TIP3    H276935   1.258   5.681  16.832  1.0844 -0.9612  1.5651
18482TIP3   OH276936   4.128   3.626   5.970 -0.2332 -0.5238  0.0523
18482TIP3    H176937   4.148   3.668   6.054  0.7801 -0.8850  0.0157
18482TIP3    H276938   4.201   3.652   5.913 -0.3716 -1.1181 -0.4050
18483TIP3   OH276939   6.035   4.424  15.928 -0.0257 -0.5295 -0.1956
18483TIP3    H176940   6.074   4.483  15.992  1.6199 -2.4039  0.6316
18483TIP3    H276941   5.942   4.424  15.949  0.2687  0.0569  1.2209
18484TIP3   OH276942   1.710   1.450   1.559  0.3982  0.4529  0.1112
18484TIP3    H176943   1.748   1.365   1.534  1.2082  0.7237  0.3848
18484TIP3    H276944   1.785   1.509   1.565  0.1115  0.7001  1.9054
18485TIP3   OH276945   6.770   4.005   3.225  0.1284 -0.2340  0.4330
18485TIP3    H176946   6.809   3.983   3.309 -2.2021 -2.7744  0.9794
18485TIP3    H276947   6.678   3.981   3.234 -0.4907  0.6489 -2.4440
18486TIP3   OH276948   4.976   3.025   2.842 -0.4098  0.0385  0.0929
18486TIP3    H176949   5.025   3.074   2.776 -0.7976  0.9219  0.4602
18486TIP3    H276950   5.037   2.957   2.871  0.7784  1.3572  0.8243
18487TIP3   OH276951   0.705   1.705  13.625 -0.4679  0.2465  0.1544
18487TIP3    H176952   0.654   1.640  13.576 -1.1096  1.7885 -1.3549
18487TIP3    H276953   0.682   1.788  13.584  2.8829  1.0949 -0.2815
18488TIP3   OH276954   3.694   4.877  13.975  0.0484  0.5192 -0.3502
18488TIP3    H176955   3.785   4.889  13.947  0.0104 -0.5383 -1.0082
18488TIP3    H276956   3.649   4.956  13.945  0.5387  0.5604 -1.0103
18489TIP3   OH276957   2.509   1.491   4.493  0.0152 -0.4027  0.4047
18489TIP3    H176958   2.432   1.482   4.549 -0.4756  0.0460 -0.1785
18489TIP3    H276959   2.579   1.448   4.541 -0.6326 -0.9528  0.8763
18490TIP3   OH276960   4.936   4.892  14.040  0.3844 -0.4378  0.3149
18490TIP3    H176961   4.842   4.890  14.022  0.0167  0.9164  1.8207
18490TIP3    H276962   4.949   4.829  14.111  0.5255 -0.2590  0.4505
18491TIP3   OH276963   4.212   4.221   6.847 -0.2870 -0.3188  0.0133
18491TIP3    H176964   4.225   4.286   6.916  1.1272 -2.0931  1.5160
18491TIP3    H276965   4.119   4.227   6.825 -0.3227  1.7634  0.5149
18492TIP3   OH276966   5.183   2.880  16.390  0.6220 -0.4649  0.3855
18492TIP3    H176967   5.259   2.834  16.425 -0.8216 -1.0307  3.0657
18492TIP3    H276968   5.108   2.830  16.421 -0.9244  1.7710  0.5377
18493TIP3   OH276969   6.473   5.204   0.902  0.6831 -0.4855  0.5255
18493TIP3    H176970   6.393   5.229   0.855  0.2439 -0.1981  1.3925
18493TIP3    H276971   6.442   5.179   0.989  1.5609 -0.1054  0.9592
18494TIP3   OH276972   6.712   4.401  16.534 -0.5852  0.3943 -0.2990
18494TIP3    H176973   6.772   4.379  16.605 -1.3764  0.7860  0.5221
18494TIP3    H276974   6.720   4.496  16.524  0.3929  0.2073 -1.5678
18495TIP3   OH276975   5.995   3.945  15.941  0.0429  0.0987  0.4524
18495TIP3    H176976   5.981   3.886  15.867  1.1625 -0.8881  0.9993
18495TIP3    H276977   6.077   3.989  15.922 -0.5678  1.1974  0.2642
18496TIP3   OH276978   4.345   2.870   6.282 -0.2853  0.2131 -0.3093
18496TIP3    H176979   4.285   2.913   6.221 -2.3929 -0.4296  1.1952
18496TIP3    H276980   4.292   2.804   6.326  1.3687  0.0449  1.5879
18497TIP3   OH276981   0.293   3.094  17.388  0.2141  0.2127 -0.1675
18497TIP3    H176982   0.230   3.062  17.323  0.8510  0.5195 -0.9551
18497TIP3    H276983   0.378   3.084  17.345  0.6449  0.4497  0.6202
18498TIP3   OH276984   6.357   6.301  16.252 -0.6174 -0.0070 -0.1848
18498TIP3    H176985   6.373   6.323  16.160  0.3772 -2.3337 -0.6317
18498TIP3    H276986   6.437   6.331  16.297 -0.2706 -0.5975 -0.4023
18499TIP3   OH276987   1.547   4.411   1.357  0.3291  0.1939 -0.5469
18499TIP3    H176988   1.577   4.333   1.404  0.3327 -0.4511 -1.5836
18499TIP3    H276989   1.622   4.437   1.304  0.2394  0.7623 -0.4000
18500TIP3   OH276990   2.995   2.956  14.825  0.1449 -0.3791  0.8683
18500TIP3    H176991   2.940   2.970  14.747  0.2752 -1.1521  0.6340
18500TIP3    H276992   2.935   2.969  14.899  0.2735  1.5156  0.6878
18501TIP3   OH276993   5.781   3.002  16.255 -0.8454  0.3800  0.0242
18501TIP3    H176994   5.775   2.992  16.351 -3.9072 -0.7169 -0.1389
18501TIP3    H276995   5.737   3.085  16.237 -0.5491  0.4333 -0.4596
18502TIP3   OH276996   5.806   3.516  13.077  0.2520  0.0888  0.6674
18502TIP3    H176997   5.790   3.559  12.993  0.7932 -1.2864 -0.1730
18502TIP3    H276998   5.869   3.446  13.057 -1.4388 -1.8591  1.7123
18503TIP3   OH276999   0.171   3.830  16.367  0.0948 -0.4018  0.7194
18503TIP3    H177000   0.139   3.842  16.277  0.0636  2.1251  1.0090
18503TIP3    H277001   0.096   3.791  16.413 -0.8453  0.7588  0.2307
18504TIP3   OH277002   1.421   5.333  16.781  0.2216  0.1549 -0.2595
18504TIP3    H177003   1.344   5.280  16.799 -1.3603  2.7669  1.1571
18504TIP3    H277004   1.397   5.386  16.705  0.5484  1.0759  0.2621
18505TIP3   OH277005   5.021   2.870  11.785 -0.2129  0.0044 -0.6167
18505TIP3    H177006   5.097   2.903  11.738  0.4033 -0.3417  0.1158
18505TIP3    H277007   5.029   2.775  11.781 -0.0719 -0.0337  0.2845
18506TIP3   OH277008   1.949   6.265   0.112 -0.4185  0.3971  0.7662
18506TIP3    H177009   1.915   6.234   0.195 -1.3378 -0.2907  0.1575
18506TIP3    H277010   1.999   6.191   0.077  1.5062  1.2843  1.5005
18507TIP3   OH277011   0.123   1.716  13.332  0.3740  0.1380  0.1909
18507TIP3    H177012   0.171   1.634  13.325 -1.2563 -1.0479  1.7902
18507TIP3    H277013   0.190   1.782  13.349  1.9187 -0.4617 -2.9541
18508TIP3   OH277014   4.003   2.333  11.442  0.0869  0.0677  0.2707
18508TIP3    H177015   4.095   2.319  11.419  0.6580  0.8728  1.8934
18508TIP3    H277016   3.957   2.260  11.400  1.7653 -1.7168  1.3358
18509TIP3   OH277017   4.170   5.543  14.326 -0.1920  0.2418  0.7382
18509TIP3    H177018   4.185   5.450  14.344  2.4819  0.1926 -1.1243
18509TIP3    H277019   4.088   5.546  14.278 -0.3438 -1.1617  0.8694
18510TIP3   OH277020   4.037   2.401   2.120 -0.3691 -0.4818 -0.5897
18510TIP3    H177021   3.946   2.373   2.123 -0.8993  0.6435 -3.1526
18510TIP3    H277022   4.036   2.488   2.159  0.4893 -1.9977  3.2782
18511TIP3   OH277023   2.483   4.995   1.195  0.2585  0.0758 -0.4405
18511TIP3    H177024   2.496   4.949   1.277  0.0130 -0.6825 -0.8203
18511TIP3    H277025   2.533   4.945   1.131 -1.0206 -0.4092 -1.0949
18512TIP3   OH277026   2.090   2.448  13.958  0.0551 -0.1385 -0.5522
18512TIP3    H177027   2.082   2.429  14.051 -0.9531 -1.6218 -0.9137
18512TIP3    H277028   2.041   2.529  13.946  1.8782  1.2077  0.5087
18513TIP3   OH277029   1.728   1.576   5.838 -0.2215 -0.4841 -0.5936
18513TIP3    H177030   1.724   1.611   5.927  0.1542 -1.4360 -0.1874
18513TIP3    H277031   1.786   1.636   5.791 -1.2882  0.6501 -0.5146
18514TIP3   OH277032   6.484   5.876  13.466 -0.0408  0.4344 -0.2690
18514TIP3    H177033   6.419   5.904  13.531 -0.0309 -0.3114  0.0787
18514TIP3    H277034   6.567   5.877  13.513 -0.0273 -0.0762 -0.2752
18515TIP3   OH277035   2.123   4.867   3.012  0.1522  0.1546 -0.2487
18515TIP3    H177036   2.108   4.962   3.012 -1.6818 -0.0875  1.6542
18515TIP3    H277037   2.158   4.848   3.099  2.4186 -0.7310 -1.2577
18516TIP3   OH277038   2.226   4.284   0.084  0.4193  0.2319  0.3655
18516TIP3    H177039   2.245   4.193   0.104 -1.3443  0.2145  2.3599
18516TIP3    H277040   2.312   4.324   0.070  1.3492 -1.3754  1.2108
18517TIP3   OH277041   2.696   2.463  15.816 -0.4891  0.4677  0.2503
18517TIP3    H177042   2.771   2.450  15.758  0.1809  0.0140  1.1821
18517TIP3    H277043   2.650   2.539  15.781 -0.7612 -0.4604 -1.5341
18518TIP3   OH277044   3.459   4.935  16.493  0.2489 -0.0315  0.0841
18518TIP3    H177045   3.514   5.000  16.449  0.0378  0.7597  0.9550
18518TIP3    H277046   3.369   4.964  16.477  0.0865 -0.9351 -0.7489
18519TIP3   OH277047   1.925   5.861  12.297  0.0482  0.8264 -0.2813
18519TIP3    H177048   1.838   5.900  12.306  0.4630  1.4267  1.3606
18519TIP3    H277049   1.984   5.923  12.340  0.9533 -0.8166  0.9254
18520TIP3   OH277050   6.483   0.226  14.126 -0.1089  0.0754  0.0128
18520TIP3    H177051   6.561   0.214  14.073  0.0004 -0.1172  0.2158
18520TIP3    H277052   6.509   0.199  14.214  0.4511  2.6852  0.7482
18521TIP3   OH277053   0.943   5.225   2.849 -0.0149  0.0694 -0.8953
18521TIP3    H177054   0.860   5.271   2.837 -0.0947 -0.1689 -1.2806
18521TIP3    H277055   0.975   5.255   2.934 -1.0117 -0.6270 -0.2572
18522TIP3   OH277056   4.998   6.178  13.798 -0.1909 -0.0915 -0.4398
18522TIP3    H177057   5.071   6.127  13.831  0.8532  1.1587 -0.7353
18522TIP3    H277058   5.038   6.253  13.754 -1.6507  1.3700  0.5769
18523TIP3   OH277059   6.754   1.475  14.900 -0.2219  0.1704 -0.2135
18523TIP3    H177060   6.687   1.461  14.833  2.0150  1.3481 -2.9336
18523TIP3    H277061   6.835   1.446  14.859  1.0718 -0.6578  2.7140
18524TIP3   OH277062   4.073   0.348  12.305 -0.2642  0.3178 -0.0115
18524TIP3    H177063   4.158   0.370  12.343  0.2859  0.1808 -1.1157
18524TIP3    H277064   4.041   0.430  12.268 -0.0569  0.1235 -0.6336
18525TIP3   OH277065   5.237   0.058   0.607 -1.2647  0.7278 -0.3154
18525TIP3    H177066   5.156   0.006   0.616 -2.3845  2.4862  0.3440
18525TIP3    H277067   5.277   0.054   0.693  0.7369 -2.1509 -1.2442
18526TIP3   OH277068   1.688   3.383  17.245 -0.3010 -0.3061  0.6741
18526TIP3    H177069   1.697   3.449  17.176 -1.9663 -0.2711  0.4430
18526TIP3    H277070   1.714   3.429  17.325  0.3262  0.0632  0.2699
18527TIP3   OH277071   4.843   2.055   0.365 -0.0384 -0.0249 -0.3172
18527TIP3    H177072   4.896   1.998   0.309 -0.4529  0.3751 -1.1271
18527TIP3    H277073   4.900   2.075   0.439  0.2282 -1.2262 -0.1810
18528TIP3   OH277074   0.810   0.582   3.383 -0.7754  0.2715  0.1649
18528TIP3    H177075   0.789   0.510   3.324  0.1286  0.8767 -0.9332
18528TIP3    H277076   0.729   0.598   3.432 -1.2170 -0.9456 -0.1454
18529TIP3   OH277077   0.063   5.480  13.005 -0.4372 -0.8921  0.3064
18529TIP3    H177078  -0.016   5.445  13.047  0.0733 -0.3427  1.8125
18529TIP3    H277079   0.110   5.402  12.974 -0.8589 -1.3230  0.7218
18530TIP3   OH277080   4.653   1.210  15.205  0.4606  0.2392 -0.1067
18530TIP3    H177081   4.577   1.155  15.188 -0.6692  1.8441 -0.4902
18530TIP3    H277082   4.710   1.156  15.259 -0.6379 -1.2437 -0.3604
18531TIP3   OH277083   0.466   1.941  16.070  0.0650 -0.5289  0.2460
18531TIP3    H177084   0.406   2.000  16.115  0.8336  0.4693  0.0016
18531TIP3    H277085   0.412   1.899  16.002 -0.6822 -0.7555  0.9656
18532TIP3   OH277086   1.250   1.995  14.307 -0.3940  0.1415  0.2160
18532TIP3    H177087   1.325   1.997  14.249  0.7646 -0.7414  1.6187
18532TIP3    H277088   1.278   2.045  14.385 -0.5865 -1.6232  1.4699
18533TIP3   OH277089   3.338   6.211  14.353 -0.3966  0.3939 -0.5529
18533TIP3    H177090   3.290   6.151  14.295  0.9046  1.3068 -2.6887
18533TIP3    H277091   3.270   6.252  14.407 -1.4994 -1.5590 -0.3602
18534TIP3   OH277092   1.322   3.098   0.621 -0.0070  0.0558  0.3299
18534TIP3    H177093   1.292   3.011   0.596 -0.4786  0.1396  0.6066
18534TIP3    H277094   1.285   3.156   0.554 -1.7793  0.3612  1.5070
18535TIP3   OH277095   3.583   4.143   0.005 -0.1981  0.6285 -0.3828
18535TIP3    H177096   3.506   4.178  -0.041  0.8878  0.3475 -2.4917
18535TIP3    H277097   3.547   4.108   0.087 -2.7078 -1.5261 -2.2367
18536TIP3   OH277098   3.446   4.136   6.314 -0.0223 -0.6443 -0.2528
18536TIP3    H177099   3.442   4.230   6.329 -0.1885 -1.0367  2.7392
18536TIP3    H277100   3.525   4.124   6.261  0.6812  1.0783  0.3214
18537TIP3   OH277101   2.662   2.941  16.300  0.5558 -0.1354  0.0388
18537TIP3    H177102   2.729   2.890  16.346 -0.2419 -1.4473 -0.1955
18537TIP3    H277103   2.583   2.888  16.307 -0.4760  1.3491  0.2633
18538TIP3   OH277104   0.236   2.037   4.657  0.2500 -0.0921  0.3566
18538TIP3    H177105   0.217   2.101   4.589  1.2874  2.1246  2.0163
18538TIP3    H277106   0.167   1.971   4.649  0.9190 -0.5273 -3.4258
18539TIP3   OH277107   4.221   5.021   1.872  0.7070 -0.4775 -0.2896
18539TIP3    H177108   4.213   5.091   1.807 -1.9559 -1.0756 -0.7047
18539TIP3    H277109   4.214   5.065   1.956  0.8795 -0.0664 -0.4870
18540TIP3   OH277110   4.276   6.134  14.890 -0.0223  0.1821 -0.2363
18540TIP3    H177111   4.219   6.109  14.818 -0.2046  0.9917 -0.3786
18540TIP3    H277112   4.238   6.091  14.967 -0.1100 -0.2785 -0.5327
18541TIP3   OH277113   1.599   0.351   1.878  0.1856  0.5134  0.3606
18541TIP3    H177114   1.685   0.345   1.838 -0.4611  1.0595 -1.2170
18541TIP3    H277115   1.607   0.306   1.962  1.6531 -0.5777 -0.3319
18542TIP3   OH277116   5.808   1.121  16.447  0.7550  0.1147  0.1503
18542TIP3    H177117   5.736   1.115  16.384 -0.6136  0.4002  1.6369
18542TIP3    H277118   5.846   1.033  16.448  0.7429  0.0811 -0.9812
18543TIP3   OH277119   5.347   6.408   2.751 -0.7765  0.0791 -0.3755
18543TIP3    H177120   5.346   6.324   2.705  1.0524 -0.3865  0.3485
18543TIP3    H277121   5.337   6.473   2.681  0.5375 -0.6593 -1.3004
18544TIP3   OH277122   6.142   3.455   2.888 -0.1711  0.0362  0.2511
18544TIP3    H177123   6.218   3.507   2.915  0.3758 -0.6925  0.1290
18544TIP3    H277124   6.099   3.508   2.821  1.6498 -0.6331 -1.5306
18545TIP3   OH277125   2.468   0.009   2.044 -0.2942 -0.0448 -0.2703
18545TIP3    H177126   2.432   0.097   2.047  1.3349  0.6795 -0.5198
18545TIP3    H277127   2.466  -0.022   2.135  0.2882  0.7640  0.0258
18546TIP3   OH277128   0.678   4.970  12.192  0.2743  0.2677 -0.2349
18546TIP3    H177129   0.601   4.928  12.153 -0.1377 -0.7159  1.4852
18546TIP3    H277130   0.753   4.930  12.147 -0.1839 -0.3098 -0.4948
18547TIP3   OH277131   3.600   1.194   4.398 -0.0001  0.0982  0.4619
18547TIP3    H177132   3.653   1.152   4.466 -1.1648 -0.9123  0.7797
18547TIP3    H277133   3.634   1.284   4.394  2.8313 -0.9098 -0.5063
18548TIP3   OH277134   0.436   2.209   3.719 -0.0962  0.0367  0.1367
18548TIP3    H177135   0.481   2.263   3.784  1.6651 -0.3170 -0.7508
18548TIP3    H277136   0.506   2.164   3.672 -1.3216  0.2115 -1.9612
18549TIP3   OH277137   6.152   4.959   4.969 -0.2094 -0.0443  0.6875
18549TIP3    H177138   6.156   4.913   5.053 -2.2198 -1.4767  0.0699
18549TIP3    H277139   6.060   4.952   4.942  0.3700  0.4490 -1.6146
18550TIP3   OH277140   5.521   0.471  13.498 -0.1301 -0.1093  0.0242
18550TIP3    H177141   5.541   0.470  13.405  0.6566  2.4564  0.0732
18550TIP3    H277142   5.526   0.380  13.525  0.3277 -0.8313 -2.2879
18551TIP3   OH277143   6.537   2.016  15.881 -0.3188 -0.2012  0.1300
18551TIP3    H177144   6.525   2.058  15.966 -1.9598  2.5637 -1.3198
18551TIP3    H277145   6.597   2.074  15.834  0.1246 -1.3910 -0.8324
18552TIP3   OH277146   5.642   4.744   0.490  0.3035  0.7069 -0.0709
18552TIP3    H177147   5.646   4.660   0.535  1.1514  1.0540  0.5231
18552TIP3    H277148   5.559   4.742   0.443  0.5271 -0.6578 -0.4529
18553TIP3   OH277149   3.102   5.356  14.299  0.3053  0.3658  0.5513
18553TIP3    H177150   3.025   5.311  14.336 -0.7447  2.3271  0.9063
18553TIP3    H277151   3.069   5.399  14.220  1.5737 -0.4466 -0.4574
18554TIP3   OH277152   3.861   5.535  12.184  0.0328 -0.0346 -0.8560
18554TIP3    H177153   3.890   5.445  12.172 -0.5217 -0.3922  0.2953
18554TIP3    H277154   3.883   5.579  12.102  0.4548 -1.1740 -1.3748
18555TIP3   OH277155   4.538   1.325   1.788  0.0626 -0.1944  0.2557
18555TIP3    H177156   4.499   1.238   1.784 -0.4624  0.0575 -0.2041
18555TIP3    H277157   4.481   1.374   1.848 -2.0613  0.9993 -2.4932
18556TIP3   OH277158   6.245   1.483   0.675  0.7218  0.0034  0.5289
18556TIP3    H177159   6.301   1.516   0.746  0.3482  1.4465  0.1924
18556TIP3    H277160   6.257   1.546   0.604  0.8400 -1.2433 -0.5996
18557TIP3   OH277161   1.041   1.398  17.286 -0.1147 -0.3189 -0.2029
18557TIP3    H177162   1.046   1.482  17.239  0.5301  0.4048  1.1026
18557TIP3    H277163   0.947   1.380  17.291 -0.1986 -0.4676 -1.8174
18558TIP3   OH277164   5.964   2.211  15.620 -0.7137  0.1497  0.0421
18558TIP3    H177165   6.004   2.295  15.601  0.2229 -0.3173 -0.1088
18558TIP3    H277166   5.888   2.232  15.674 -1.3294  1.2062 -1.1779
18559TIP3   OH277167   4.528   1.887   4.676  0.1135 -0.0584 -0.2100
18559TIP3    H177168   4.556   1.918   4.590  1.1216  0.5528  0.3279
18559TIP3    H277169   4.550   1.958   4.736 -1.0989 -0.2382  0.4921
18560TIP3   OH277170   3.689   5.192   3.040  0.5206  0.1654  0.1890
18560TIP3    H177171   3.647   5.106   3.033  2.4523 -0.8940  0.8677
18560TIP3    H277172   3.691   5.225   2.951  3.3046 -2.3202 -0.8157
18561TIP3   OH277173   3.013   4.987   0.475  1.0932  0.1501  0.0998
18561TIP3    H177174   2.932   5.037   0.471  1.5248  0.8434 -0.0186
18561TIP3    H277175   3.077   5.047   0.512  1.0182 -1.1359  2.5223
18562TIP3   OH277176   1.863   4.458   5.597  0.3074  0.0401 -0.2981
18562TIP3    H177177   1.955   4.441   5.618  0.1938  0.2552  0.4051
18562TIP3    H277178   1.844   4.541   5.641 -0.6565 -0.7715  0.8582
18563TIP3   OH277179   2.977   1.217   4.691 -0.1366  0.1088  0.3131
18563TIP3    H177180   2.994   1.302   4.650  2.4218 -1.7077 -2.8020
18563TIP3    H277181   3.057   1.198   4.740 -0.1296 -1.0545 -0.1263
18564TIP3   OH277182   0.498   1.372  12.579  0.3930 -0.1017 -0.2371
18564TIP3    H177183   0.504   1.456  12.624 -1.6173 -0.6066  1.1165
18564TIP3    H277184   0.519   1.307  12.647 -1.9567 -0.8479 -0.1370
18565TIP3   OH277185   5.549   5.090   4.164 -0.2413 -0.0982 -0.0068
18565TIP3    H177186   5.569   5.069   4.072 -0.4942 -2.3332  0.4066
18565TIP3    H277187   5.499   5.015   4.196  0.6476  0.1971  2.2455
18566TIP3   OH277188   2.639   1.385  16.155 -0.0285  0.1580 -0.2093
18566TIP3    H177189   2.636   1.475  16.121 -2.1598 -0.0794 -0.8365
18566TIP3    H277190   2.678   1.334  16.084  1.0605  0.5530  0.0932
18567TIP3   OH277191   2.973   6.452  11.458 -0.0394  0.7030 -0.6920
18567TIP3    H177192   3.030   6.378  11.477 -0.7783  0.1498 -0.6209
18567TIP3    H277193   2.949   6.487  11.545 -2.1871 -0.8943 -0.5695
18568TIP3   OH277194   5.240   2.558   4.506  0.4301 -0.3052 -0.1871
18568TIP3    H177195   5.227   2.483   4.448  0.4153 -0.1425 -0.3934
18568TIP3    H277196   5.151   2.590   4.524  0.4686  0.0081 -0.5509
18569TIP3   OH277197   1.452   2.159   1.956 -0.0406  0.1228  0.3308
18569TIP3    H177198   1.385   2.180   2.020 -0.3098 -0.1809  0.1549
18569TIP3    H277199   1.408   2.102   1.892 -0.0752  1.2799 -0.7189
18570TIP3   OH277200   6.757   6.459   5.933  0.0596  0.1914  0.5766
18570TIP3    H177201   6.694   6.512   5.980  1.0040  0.6546  1.3677
18570TIP3    H277202   6.834   6.456   5.990  0.7639 -0.3346 -0.3528
18571TIP3   OH277203   5.408   3.177   1.167 -0.0477 -0.5316  0.6398
18571TIP3    H177204   5.442   3.125   1.094  0.4509  1.4188 -0.5781
18571TIP3    H277205   5.321   3.205   1.139  0.8668  1.7888 -0.1031
18572TIP3   OH277206   1.495   3.819   1.950 -1.4894  0.2251  0.7660
18572TIP3    H177207   1.418   3.866   1.981 -1.8150 -1.9793  3.7675
18572TIP3    H277208   1.476   3.727   1.969 -0.3872 -1.1364 -3.6489
18573TIP3   OH277209   1.929   0.853   1.972 -0.6960 -0.0227 -0.5078
18573TIP3    H177210   2.018   0.822   1.988 -0.4501  0.5041 -0.8325
18573TIP3    H277211   1.940   0.943   1.943 -1.3722  0.2206 -0.0297
18574TIP3   OH277212   5.400   4.931  12.241 -0.8097  0.5174  0.4972
18574TIP3    H177213   5.330   4.996  12.230 -0.1409  1.0554 -0.9264
18574TIP3    H277214   5.374   4.858  12.185 -0.6094  0.3884  0.5706
18575TIP3   OH277215   3.731   4.657  14.781  0.7261 -0.7728  0.5963
18575TIP3    H177216   3.741   4.632  14.689  2.9826  1.1891  0.2172
18575TIP3    H277217   3.733   4.574  14.828 -1.2491 -1.8888 -1.1207
18576TIP3   OH277218   0.122   5.062  12.956  0.0261  0.5982  0.2954
18576TIP3    H177219   0.181   5.136  12.971  0.2153  0.6709 -0.7275
18576TIP3    H277220   0.171   5.003  12.899  0.6077 -1.2476  2.5241
18577TIP3   OH277221   5.794   1.717   3.729  0.0585  0.3970 -0.1908
18577TIP3    H177222   5.787   1.660   3.652  0.7174  0.2184 -0.1205
18577TIP3    H277223   5.762   1.802   3.698 -1.7797 -0.1926 -0.0641
18578TIP3   OH277224   4.064   6.404  12.386 -0.1578  0.4566 -0.0967
18578TIP3    H177225   3.972   6.411  12.411 -0.3657 -1.2026 -0.2757
18578TIP3    H277226   4.087   6.491  12.354 -1.3404  1.2046  0.9917
18579TIP3   OH277227   6.763   3.253  13.796  0.1140 -0.1046 -0.0026
18579TIP3    H177228   6.711   3.334  13.793  0.2999  0.0429  0.6065
18579TIP3    H277229   6.766   3.223  13.705  0.9435  1.1413 -0.4120
18580TIP3   OH277230   3.494   3.813   1.708 -0.5626 -0.4130 -0.2876
18580TIP3    H177231   3.566   3.751   1.706 -0.2996 -0.1073 -0.3125
18580TIP3    H277232   3.499   3.853   1.795 -1.0623 -0.8082 -0.0648
18581TIP3   OH277233   3.106   0.347   3.865  0.1645 -0.1448 -0.6220
18581TIP3    H177234   3.077   0.294   3.791 -1.5731  1.1433 -0.9221
18581TIP3    H277235   3.181   0.396   3.832  2.2837 -2.8043 -0.1271
18582TIP3   OH277236   1.093   6.773  13.127  0.3496  0.2656  0.6542
18582TIP3    H177237   1.021   6.818  13.171 -0.7751 -0.7758 -0.0383
18582TIP3    H277238   1.050   6.719  13.060  1.6402 -1.3974  1.0760
18583TIP3   OH277239   5.791   0.493  14.369  0.8738  0.2208  0.0595
18583TIP3    H177240   5.804   0.462  14.459  2.1574  0.3270 -0.0693
18583TIP3    H277241   5.871   0.541  14.349  0.0792  1.2326 -0.7308
18584TIP3   OH277242   1.508   6.449   1.739 -0.4767 -0.4901  0.4071
18584TIP3    H177243   1.480   6.513   1.672  0.2027 -0.2479  0.3427
18584TIP3    H277244   1.549   6.503   1.807 -0.1178 -0.8396  0.4678
18585TIP3   OH277245   4.702   4.769  12.952  0.1438 -0.2741  0.0657
18585TIP3    H177246   4.786   4.749  12.912  1.2355  1.6202  1.2257
18585TIP3    H277247   4.723   4.830  13.023 -2.2469  0.5505  0.1715
18586TIP3   OH277248   2.265   6.127   4.389 -0.0021 -0.6045  0.4775
18586TIP3    H177249   2.259   6.220   4.367 -0.4836 -0.4582  1.1973
18586TIP3    H277250   2.286   6.125   4.482  1.7220 -1.2156  0.1149
18587TIP3   OH277251   5.855   0.739  11.135  0.2210  0.1939 -0.6756
18587TIP3    H177252   5.916   0.738  11.209 -0.1106  0.2600 -0.4008
18587TIP3    H277253   5.769   0.726  11.174 -0.0259  0.8499 -0.9896
18588TIP3   OH277254   1.939   0.656   2.818 -0.2646  0.5887  0.3220
18588TIP3    H177255   2.012   0.670   2.757 -0.8548  1.5507 -0.1910
18588TIP3    H277256   1.956   0.570   2.856  1.2075  0.8393  0.3047
18589TIP3   OH277257   1.292   6.093   1.262 -0.1864 -0.4260 -0.4407
18589TIP3    H177258   1.261   6.046   1.339 -0.3030  1.7940  0.9361
18589TIP3    H277259   1.309   6.024   1.197  0.4448 -2.3963  1.7101
18590TIP3   OH277260   6.704   4.443   5.808 -0.4843  0.2068 -0.2984
18590TIP3    H177261   6.742   4.385   5.742 -0.1369  1.5192 -1.2997
18590TIP3    H277262   6.644   4.500   5.759 -0.4823  0.9848  0.5674
18591TIP3   OH277263   2.708   4.585  13.170 -0.3942  0.2295 -0.1486
18591TIP3    H177264   2.654   4.629  13.235  0.5835  0.3732  0.5932
18591TIP3    H277265   2.649   4.523  13.128 -1.1421  0.4152  0.5977
18592TIP3   OH277266   2.671   2.827   3.514 -0.0334 -0.0137  0.0796
18592TIP3    H177267   2.743   2.890   3.521 -0.8426  0.7932  2.2086
18592TIP3    H277268   2.594   2.880   3.496 -0.3428 -0.7091 -0.7148
18593TIP3   OH277269   5.261   1.341   4.409 -0.6638 -0.5700 -0.8012
18593TIP3    H177270   5.296   1.420   4.451  1.4542 -0.9073 -1.7693
18593TIP3    H277271   5.174   1.331   4.445 -1.3856  2.7248 -1.2771
18594TIP3   OH277272   4.524   5.783   4.344  0.6521 -0.1155  0.1268
18594TIP3    H177273   4.495   5.832   4.266  0.5681 -1.3552 -0.6473
18594TIP3    H277274   4.478   5.825   4.417  0.4536  0.8478 -0.5361
18595TIP3   OH277275   5.060   0.494  16.249  0.3636 -0.3975  0.3353
18595TIP3    H177276   5.075   0.584  16.223  0.1700 -0.9271 -1.7968
18595TIP3    H277277   5.081   0.492  16.342  1.3402  1.6089  0.2123
18596TIP3   OH277278   0.186   0.230   4.559 -0.1926 -0.4513  0.2873
18596TIP3    H177279   0.191   0.171   4.484 -0.0485  0.3513 -0.3564
18596TIP3    H277280   0.113   0.288   4.539 -0.5778 -0.6479  1.0914
18597TIP3   OH277281   6.351   3.532   2.446 -0.1707 -0.2760  0.1037
18597TIP3    H177282   6.413   3.512   2.516  0.6202  0.5151 -0.3657
18597TIP3    H277283   6.276   3.571   2.492  0.7279  1.1152  0.4353
18598TIP3   OH277284   5.868   3.799   0.405 -0.1319  0.2365  0.2704
18598TIP3    H177285   5.913   3.715   0.391 -1.4458 -0.4139 -0.1868
18598TIP3    H277286   5.815   3.785   0.484 -1.7350  0.0022 -0.7934
18599TIP3   OH277287   3.554   2.944  15.091 -0.3628  0.4571  0.5242
18599TIP3    H177288   3.583   2.910  15.006  0.8793  2.3919  0.0903
18599TIP3    H277289   3.466   2.978  15.075  0.7859  3.1499 -0.7984
18600TIP3   OH277290   3.822   0.765  16.190 -0.1092 -0.1578  0.0909
18600TIP3    H177291   3.814   0.778  16.285 -0.2313  0.8938 -0.0572
18600TIP3    H277292   3.771   0.836  16.152  1.9391  0.9225 -0.7959
18601TIP3   OH277293   6.523   4.541   5.199  0.0787  0.3819 -0.0064
18601TIP3    H177294   6.581   4.614   5.221  2.2568 -0.1265 -3.3548
18601TIP3    H277295   6.447   4.583   5.158 -0.5602  0.8845  1.6061
18602TIP3   OH277296   3.565   5.337   5.887 -1.0793 -0.2339 -0.3073
18602TIP3    H177297   3.652   5.348   5.847 -1.3213  1.0688 -0.5184
18602TIP3    H277298   3.559   5.408   5.951 -1.8336 -0.5641 -0.0008
18603TIP3   OH277299   1.491   6.330  11.626  0.4171  0.1244 -0.2806
18603TIP3    H177300   1.403   6.318  11.591  0.4727  1.4621 -0.9225
18603TIP3    H277301   1.544   6.354  11.551  1.2346 -0.1818  0.1875
18604TIP3   OH277302   0.300   6.338   6.087 -0.2508 -0.2519  0.3121
18604TIP3    H177303   0.307   6.304   5.997  2.8786  2.1108 -0.5369
18604TIP3    H277304   0.334   6.267   6.142  0.3784 -0.7510 -0.6842
18605TIP3   OH277305   5.731   2.721   2.352 -0.4118 -0.6884  0.1337
18605TIP3    H177306   5.789   2.753   2.283 -1.3495 -0.3582 -0.5112
18605TIP3    H277307   5.791   2.684   2.418  0.4946 -0.9332 -0.8028
18606TIP3   OH277308   1.688   2.000  12.705 -0.2994  0.7723 -0.2461
18606TIP3    H177309   1.593   1.995  12.703 -0.2731 -1.6826  1.0183
18606TIP3    H277310   1.716   1.953  12.626 -0.1121  1.1240 -0.3927
18607TIP3   OH277311   3.375   6.675  14.708  0.1638 -0.7870 -0.1126
18607TIP3    H177312   3.393   6.585  14.736 -0.3012 -1.8467 -2.8825
18607TIP3    H277313   3.460   6.717  14.703  0.4048 -1.1288  1.0055
18608TIP3   OH277314   4.744   0.178   3.470  0.3412  0.4909  0.2926
18608TIP3    H177315   4.742   0.130   3.552 -0.9234  1.2957  0.7674
18608TIP3    H277316   4.765   0.113   3.404 -0.7374 -0.6051  0.9891
18609TIP3   OH277317   4.144   5.594  11.103 -0.4472 -0.0204  0.2474
18609TIP3    H177318   4.103   5.589  11.017 -0.2589  0.8580  0.0889
18609TIP3    H277319   4.127   5.684  11.132  1.0295  0.2695  0.3307
18610TIP3   OH277320   6.230   2.375   1.203  0.6182 -0.3812 -0.4340
18610TIP3    H177321   6.175   2.344   1.131  0.7909 -1.0054 -0.3039
18610TIP3    H277322   6.265   2.458   1.172 -1.0537  0.4580 -0.1947
18611TIP3   OH277323   2.628   4.823   2.356  0.3150  0.4966  0.4352
18611TIP3    H177324   2.619   4.914   2.383  0.1544 -0.0070  2.2526
18611TIP3    H277325   2.718   4.815   2.325  0.1962  1.3513 -0.1693
18612TIP3   OH277326   0.717   1.386  16.010  0.1733  0.4094  0.1432
18612TIP3    H177327   0.630   1.412  15.979  0.1536 -1.1168 -1.2240
18612TIP3    H277328   0.764   1.469  16.023 -1.3245  1.2355  0.4458
18613TIP3   OH277329   3.607   3.942  12.775  1.0120  0.1802  0.1827
18613TIP3    H177330   3.563   3.977  12.853  0.1814  1.9671 -1.0185
18613TIP3    H277331   3.536   3.925  12.714  1.6348 -1.4412 -0.1503
18614TIP3   OH277332   2.552   3.632  12.726 -0.1926 -0.0186 -0.6783
18614TIP3    H177333   2.628   3.656  12.674  0.0540  0.3928 -0.1356
18614TIP3    H277334   2.588   3.608  12.812 -0.4709 -1.8484 -1.0343
18615TIP3   OH277335   6.174   0.261   4.177 -0.4510  0.0092 -0.2870
18615TIP3    H177336   6.134   0.209   4.246  1.0244 -0.9529 -0.1211
18615TIP3    H277337   6.260   0.285   4.211  1.4774 -2.7556 -2.7051
18616TIP3   OH277338   3.820   1.521   5.753 -0.3508  0.4511 -0.1056
18616TIP3    H177339   3.782   1.441   5.715  0.2243  0.7167 -1.2960
18616TIP3    H277340   3.755   1.550   5.816 -1.4003  0.0006 -0.9338
18617TIP3   OH277341   6.257   4.762  12.101  0.6537  0.4218  0.2566
18617TIP3    H177342   6.307   4.683  12.122 -0.4260 -0.8976 -1.8294
18617TIP3    H277343   6.167   4.742  12.127  0.2870  0.7728 -0.6955
18618TIP3   OH277344   5.203   3.171  15.520  0.2611 -0.4275 -0.6488
18618TIP3    H177345   5.212   3.248  15.465  2.7243  0.1365  0.4255
18618TIP3    H277346   5.162   3.105  15.464 -2.7382  1.8239 -1.3555
18619TIP3   OH277347   5.791   3.693  16.726  0.3091 -0.0447 -0.0983
18619TIP3    H177348   5.721   3.756  16.742  1.0959  0.9811 -0.5992
18619TIP3    H277349   5.823   3.713  16.638  0.0212 -1.7002 -0.6174
18620TIP3   OH277350   4.275   1.816  14.194 -0.0690  0.8781 -0.0092
18620TIP3    H177351   4.219   1.739  14.194  0.7420  0.2564 -1.1860
18620TIP3    H277352   4.298   1.828  14.286  1.3628 -1.5029  0.0407
18621TIP3   OH277353   3.762   5.677   3.215 -0.1384 -0.3157 -0.2740
18621TIP3    H177354   3.843   5.670   3.266 -0.6093 -2.5503  0.2850
18621TIP3    H277355   3.792   5.682   3.124  0.6428  0.6174  0.0166
18622TIP3   OH277356   0.115   4.114  17.196 -0.2841  0.3770 -0.4448
18622TIP3    H177357   0.080   4.201  17.215  2.8007  1.3519  1.4971
18622TIP3    H277358   0.044   4.054  17.220 -2.1682  2.2844 -0.9680
18623TIP3   OH277359   1.454   5.728  14.543  0.4765 -0.1894 -0.0239
18623TIP3    H177360   1.399   5.668  14.592  0.0096  0.4136  0.2043
18623TIP3    H277361   1.419   5.815  14.563 -0.1842  0.0388 -1.9973
18624TIP3   OH277362   3.078   0.767  11.020 -0.5569 -0.3684  0.5451
18624TIP3    H177363   3.077   0.713  10.942 -2.4973  0.6773 -0.2247
18624TIP3    H277364   3.034   0.848  10.994  0.4260  0.7683  2.2066
18625TIP3   OH277365   6.682   2.724  14.923 -0.0218 -0.4784 -0.3408
18625TIP3    H177366   6.653   2.786  14.856 -0.6221 -2.3011 -1.8360
18625TIP3    H277367   6.610   2.722  14.986  0.1853  0.6247 -0.0448
18626TIP3   OH277368   0.219   2.875   3.781  0.4489  0.2656 -0.0138
18626TIP3    H177369   0.149   2.928   3.743  0.1280  0.0708  0.2942
18626TIP3    H277370   0.204   2.788   3.744  0.0177  0.0294  0.6967
18627TIP3   OH277371   5.330   2.912  16.636  0.1033  0.0683 -0.0440
18627TIP3    H177372   5.379   2.995  16.630  1.2130 -0.3668  1.8392
18627TIP3    H277373   5.398   2.845  16.644 -0.7897 -0.7762  0.7331
18628TIP3   OH277374   2.365   5.681  12.384  0.1632  0.2982  0.2082
18628TIP3    H177375   2.348   5.669  12.290 -0.1305 -2.2808  0.5085
18628TIP3    H277376   2.364   5.776  12.397  0.8290  0.7633 -2.4985
18629TIP3   OH277377   6.261   4.104   4.749  0.5384 -0.2424  0.2750
18629TIP3    H177378   6.253   4.055   4.831 -0.5312  0.3213  0.5323
18629TIP3    H277379   6.351   4.135   4.749  0.1587  1.0181  2.0091
18630TIP3   OH277380   1.132   1.169  15.262  0.6421 -0.1363  0.3057
18630TIP3    H177381   1.170   1.134  15.181 -0.6323  0.7507 -0.7232
18630TIP3    H277382   1.184   1.129  15.332  1.6269 -1.1213 -0.9295
18631TIP3   OH277383   1.086   3.858   0.829  0.0832 -0.2641  0.2961
18631TIP3    H177384   1.098   3.940   0.780 -0.2749 -1.1472 -1.3462
18631TIP3    H277385   1.156   3.859   0.895  0.0055  1.4099  0.3993
18632TIP3   OH277386   1.804   0.439   6.120 -0.3009  0.0449  0.3331
18632TIP3    H177387   1.752   0.384   6.178  2.0811 -0.2098  2.3624
18632TIP3    H277388   1.813   0.522   6.167  1.9995 -0.2956  0.6149
18633TIP3   OH277389   6.371   5.942  15.488 -0.2926  0.5774 -0.0636
18633TIP3    H177390   6.332   5.947  15.401 -1.0402  0.1438  0.2332
18633TIP3    H277391   6.349   6.024  15.530 -1.7424 -0.0433  0.4373
18634TIP3   OH277392   6.108   1.950   1.638 -0.6906  0.2567 -0.5126
18634TIP3    H177393   6.125   1.883   1.571 -3.3799 -1.5466  0.4102
18634TIP3    H277394   6.131   2.033   1.596  0.0258 -1.0015 -2.7719
18635TIP3   OH277395   0.166   5.190   2.086 -0.1852 -0.0029  0.1567
18635TIP3    H177396   0.106   5.163   2.016 -1.3504  1.1147  0.6759
18635TIP3    H277397   0.112   5.242   2.145  1.5106  2.0132  0.0672
18636TIP3   OH277398   0.619   4.762   4.822  0.4104 -0.6294  0.0279
18636TIP3    H177399   0.705   4.805   4.821  0.8864 -1.5766 -1.1455
18636TIP3    H277400   0.604   4.736   4.731 -0.4394 -1.8037  0.4837
18637TIP3   OH277401   4.990   2.902   4.070  0.2484 -0.1273 -0.2597
18637TIP3    H177402   4.939   2.972   4.110  0.4330  0.5879 -1.2307
18637TIP3    H277403   4.945   2.822   4.095 -0.3611  0.3842  0.3168
18638TIP3   OH277404   2.484   1.949   0.454 -0.1764 -0.8989 -0.1582
18638TIP3    H177405   2.541   1.958   0.530  0.1280  0.2523 -0.4933
18638TIP3    H277406   2.531   1.993   0.383 -1.1531 -0.5442 -0.6155
18639TIP3   OH277407   3.414   4.533  12.929 -0.1044  0.0941 -0.8966
18639TIP3    H177408   3.328   4.562  12.960  0.0582 -1.2955  1.0628
18639TIP3    H277409   3.475   4.568  12.993  0.6902  0.1609 -1.6792
18640TIP3   OH277410   0.156   4.061   4.290  0.0187 -0.4154 -0.0683
18640TIP3    H177411   0.143   4.143   4.338 -1.8330 -0.3176 -0.6488
18640TIP3    H277412   0.072   4.016   4.298  1.2074 -2.6029  0.8147
18641TIP3   OH277413   0.779   3.913   2.843 -0.1381  0.2821 -0.2216
18641TIP3    H177414   0.694   3.932   2.883  0.0700  0.4644  0.1446
18641TIP3    H277415   0.825   3.997   2.846 -0.3354  0.4526 -1.3931
18642TIP3   OH277416   6.652   1.241   2.132  0.4805 -0.3906  0.2596
18642TIP3    H177417   6.685   1.321   2.089 -0.0697 -0.6484 -0.6813
18642TIP3    H277418   6.686   1.246   2.221  0.9624  0.5945  0.0392
18643TIP3   OH277419   3.586   2.612  12.414 -0.4304 -0.0704 -0.5316
18643TIP3    H177420   3.561   2.525  12.383  0.1714 -0.1316 -0.8669
18643TIP3    H277421   3.511   2.642  12.465 -0.7044 -0.7205 -0.5418
18644TIP3   OH277422   3.966   2.118  14.704 -0.2889 -0.4807 -0.3002
18644TIP3    H177423   3.995   2.056  14.637  0.1994 -0.8306  0.2325
18644TIP3    H277424   3.981   2.073  14.787  2.1232  1.1634  0.2356
18645TIP3   OH277425   6.247   4.986  13.336 -0.1635  0.5985 -0.8573
18645TIP3    H177426   6.333   4.952  13.358 -0.3274 -0.8098 -2.1587
18645TIP3    H277427   6.239   5.068  13.384  0.9444 -0.4021  1.1278
18646TIP3   OH277428   5.513   2.050   5.803  0.1195  0.2992 -0.1454
18646TIP3    H177429   5.433   2.009   5.769 -0.8416  2.2904 -0.4752
18646TIP3    H277430   5.481   2.123   5.856  1.7280  0.3483  0.8133
18647TIP3   OH277431   6.494   0.638  13.841 -0.2901  0.0469 -0.0419
18647TIP3    H177432   6.515   0.675  13.755  3.3532  0.2235  0.7366
18647TIP3    H277433   6.453   0.710  13.889 -2.1712  0.0060 -1.4842
18648TIP3   OH277434   5.766   0.378   5.189  0.5819 -0.7216 -0.0650
18648TIP3    H177435   5.825   0.407   5.120  1.1806  2.2164  1.5253
18648TIP3    H277436   5.697   0.444   5.190 -0.0021 -1.3215  1.4011
18649TIP3   OH277437   4.226   4.353   7.086  0.3449  0.0780  0.0870
18649TIP3    H177438   4.318   4.379   7.094  1.0602 -2.2494  0.1401
18649TIP3    H277439   4.204   4.321   7.173  0.0419 -1.0271 -0.3903
18650TIP3   OH277440   3.071   5.012   1.768  0.2496 -0.1539  0.0797
18650TIP3    H177441   3.145   5.021   1.709  2.2750 -0.7772  2.3245
18650TIP3    H277442   3.019   4.940   1.731 -0.2733  1.4145 -2.4557
18651TIP3   OH277443   1.042   3.892  13.704  0.6274  0.1656 -0.2708
18651TIP3    H177444   1.089   3.975  13.711 -1.4162  1.3929 -0.2759
18651TIP3    H277445   1.044   3.856  13.793  1.4953  0.2241 -0.2597
18652TIP3   OH277446   1.947   0.701   0.141 -0.1770  0.2290 -0.6054
18652TIP3    H177447   1.992   0.783   0.163 -0.0336 -0.1365  0.5449
18652TIP3    H277448   2.017   0.637   0.133 -0.3793 -0.0393 -0.2535
18653TIP3   OH277449   4.718   1.545   4.240 -0.0248 -0.3373 -1.0513
18653TIP3    H177450   4.668   1.559   4.320 -0.5242 -1.3759 -1.1621
18653TIP3    H277451   4.760   1.459   4.253  0.2045 -0.3319 -1.7348
18654TIP3   OH277452   6.469   2.578   4.493 -0.5471 -0.4150 -0.2271
18654TIP3    H177453   6.507   2.603   4.578 -0.5403  0.5545 -0.5087
18654TIP3    H277454   6.390   2.529   4.516  0.3987 -1.7484  0.3583
18655TIP3   OH277455   0.278   4.243  14.609  0.2588  0.1227  0.3838
18655TIP3    H177456   0.224   4.171  14.577 -0.5162  1.3418 -1.1172
18655TIP3    H277457   0.368   4.214  14.592 -0.0152 -0.7221  0.3271
18656TIP3   OH277458   2.153   3.292   2.475 -0.7839  0.1188  0.1254
18656TIP3    H177459   2.119   3.378   2.501 -1.4166  0.0909 -0.5738
18656TIP3    H277460   2.093   3.262   2.407  1.1946  0.5132 -1.9272
18657TIP3   OH277461   6.573   4.605  13.447 -0.7670 -0.2063  0.1102
18657TIP3    H177462   6.554   4.600  13.353  1.0408 -0.3249 -0.2945
18657TIP3    H277463   6.596   4.515  13.471 -1.8977 -0.3157  0.8438
18658TIP3   OH277464   2.288   0.853   3.000  0.2290 -0.1523 -0.5423
18658TIP3    H177465   2.244   0.776   3.035  2.3093 -0.1764  2.3847
18658TIP3    H277466   2.253   0.926   3.051 -1.4752  0.9226 -3.0575
18659TIP3   OH277467   5.043   6.503   5.553  0.1606  0.2582 -0.7227
18659TIP3    H177468   4.953   6.497   5.585  0.6781 -1.1185  0.5944
18659TIP3    H277469   5.049   6.590   5.514 -1.8835  0.1889 -1.3122
18660TIP3   OH277470   0.402   6.360   0.137  0.0605 -0.1998 -0.0569
18660TIP3    H177471   0.377   6.356   0.044 -1.6242 -4.1246  0.3577
18660TIP3    H277472   0.321   6.341   0.184  1.5428 -1.9714  1.9712
18661TIP3   OH277473   1.714   1.074   4.756  0.5362 -0.1254 -0.4155
18661TIP3    H177474   1.726   1.031   4.840 -0.4074 -0.1043 -0.2582
18661TIP3    H277475   1.658   1.014   4.706 -1.7304  1.3400  0.1993
18662TIP3   OH277476   0.289   6.049  13.393  0.5412  0.0138 -0.0187
18662TIP3    H177477   0.211   6.028  13.446  0.7437  0.3208  0.4126
18662TIP3    H277478   0.293   5.980  13.327 -0.3193  0.1985 -0.2858
18663TIP3   OH277479   1.584   6.470  17.059  0.9216 -0.1273  0.0193
18663TIP3    H177480   1.541   6.414  17.124  1.7785 -0.8093  0.0172
18663TIP3    H277481   1.662   6.421  17.033  0.8427  0.3439 -1.1855
18664TIP3   OH277482   3.197   6.410  17.284  0.3042  0.2736 -0.5720
18664TIP3    H177483   3.108   6.433  17.311  0.4897  0.5769 -0.2016
18664TIP3    H277484   3.238   6.375  17.364  0.1782 -0.9066 -1.0114
18665TIP3   OH277485   6.613   3.939  16.123  1.1659  0.1575 -0.5041
18665TIP3    H177486   6.685   3.878  16.105  0.5219 -1.2657  1.3185
18665TIP3    H277487   6.543   3.911  16.064  0.4972 -1.7090  1.0385
18666TIP3   OH277488   1.912   0.278  13.513  0.3016 -0.3080  0.5259
18666TIP3    H177489   1.845   0.329  13.560 -0.9137  0.1348 -1.5730
18666TIP3    H277490   1.978   0.260  13.580 -0.8230  1.1714  2.1547
18667TIP3   OH277491   0.859   2.992  16.283  0.0361 -0.1523 -0.4656
18667TIP3    H177492   0.938   3.009  16.334 -0.1179  0.3144 -0.3793
18667TIP3    H277493   0.810   2.929  16.335 -0.4594  0.8559  0.3235
18668TIP3   OH277494   4.634   2.130  13.446  0.1203 -0.3624 -0.0572
18668TIP3    H177495   4.671   2.042  13.455 -0.5819 -0.6862 -0.3066
18668TIP3    H277496   4.567   2.122  13.378 -0.5109  0.1830  0.4865
18669TIP3   OH277497   5.715   1.918   4.809 -0.3400  0.0463  0.1819
18669TIP3    H177498   5.778   1.911   4.737  0.3484 -0.6350  0.8300
18669TIP3    H277499   5.743   1.996   4.857 -1.4095  1.1075 -0.8224
18670TIP3   OH277500   5.522   1.211   5.216 -0.0067  0.1191 -0.3213
18670TIP3    H177501   5.603   1.164   5.237 -1.5735 -1.2864  3.3897
18670TIP3    H277502   5.525   1.290   5.271 -0.0928  1.4296 -2.0937
18671TIP3   OH277503   5.735   1.038  11.743  0.3840  0.6937 -0.9365
18671TIP3    H177504   5.742   1.012  11.652 -0.6087  0.5794 -0.9875
18671TIP3    H277505   5.683   1.119  11.742  0.3921  0.7112 -0.4797
18672TIP3   OH277506   5.796   3.520  15.607 -0.3083  0.1837  0.5763
18672TIP3    H177507   5.888   3.545  15.617 -0.5407  0.7008  1.4764
18672TIP3    H277508   5.785   3.446  15.668 -0.0667 -1.0319 -0.7961
18673TIP3   OH277509   1.920   2.539  13.518  0.2731  0.3459  0.2509
18673TIP3    H177510   1.837   2.580  13.540  0.0396 -0.0580  0.1401
18673TIP3    H277511   1.974   2.551  13.596 -0.1978 -0.1773  0.6678
18674TIP3   OH277512   2.730   1.058  16.574  0.5003  0.3261 -0.4475
18674TIP3    H177513   2.791   1.033  16.505  0.3860 -1.1789 -0.0535
18674TIP3    H277514   2.779   1.044  16.656 -0.8197 -2.6859 -0.0200
18675TIP3   OH277515   1.347   1.370  16.425  0.2851 -0.3864 -0.0521
18675TIP3    H177516   1.264   1.323  16.419  0.2692 -0.6401  1.7805
18675TIP3    H277517   1.324   1.455  16.464  0.9080 -0.5485  0.6835
18676TIP3   OH277518   4.102   0.994  14.810 -0.0211 -0.3965 -0.1976
18676TIP3    H177519   4.182   0.947  14.833  2.0010  2.9425  0.1797
18676TIP3    H277520   4.128   1.054  14.740 -1.7585  1.8731  0.9638
18677TIP3   OH277521   4.617   1.816   2.020 -0.2768  0.8701 -0.2667
18677TIP3    H177522   4.551   1.828   1.952  0.6258  0.5011 -1.2303
18677TIP3    H277523   4.694   1.782   1.974  0.2329  0.2271  0.9904
18678TIP3   OH277524   5.900   1.437  13.880  0.3592 -0.0197 -0.1979
18678TIP3    H177525   5.818   1.467  13.842 -0.3734 -1.4127  0.1950
18678TIP3    H277526   5.873   1.383  13.955  1.6108 -0.7606 -0.2489
18679TIP3   OH277527   1.367   5.024  17.338 -0.5767 -0.2667  0.3197
18679TIP3    H177528   1.423   5.091  17.299 -1.0069  0.6320  1.2078
18679TIP3    H277529   1.427   4.954  17.364  0.3240  1.0733  2.1165
18680TIP3   OH277530   1.203   4.422  15.424 -0.5039 -0.2389  0.2379
18680TIP3    H177531   1.192   4.493  15.487  2.8702  0.5721  0.1011
18680TIP3    H277532   1.232   4.348  15.477  0.9905  0.0442 -0.1409
18681TIP3   OH277533   5.890   6.398  15.744  0.4017  0.2862  0.2739
18681TIP3    H177534   5.842   6.461  15.690  2.0516  1.7339  0.4173
18681TIP3    H277535   5.882   6.432  15.833  0.5703 -0.2116  0.4815
18682TIP3   OH277536   4.848   2.870  14.515  0.4683 -0.5907 -0.2645
18682TIP3    H177537   4.931   2.870  14.469 -0.1849 -1.8441 -1.5101
18682TIP3    H277538   4.782   2.855  14.447 -0.9387  1.7730  0.4684
18683TIP3   OH277539   0.520   5.396   1.485 -0.1636 -0.2046 -0.1754
18683TIP3    H177540   0.446   5.343   1.515  1.2158 -1.7721  0.6377
18683TIP3    H277541   0.537   5.365   1.396 -0.5988  0.2762 -0.4239
18684TIP3   OH277542   6.644   2.996  15.355 -0.6437 -0.1565  0.0162
18684TIP3    H177543   6.620   2.981  15.447 -1.0802  2.4598  0.4105
18684TIP3    H277544   6.713   2.932  15.338 -0.9984 -1.1545  1.9647
18685TIP3   OH277545   2.336   1.495  15.707  0.4081 -0.0444 -0.6806
18685TIP3    H177546   2.342   1.511  15.801  2.3067 -2.3420 -0.3084
18685TIP3    H277547   2.351   1.580  15.667  0.0774  0.8927  1.0806
18686TIP3   OH277548   3.757   5.437  11.401 -0.1790 -0.3636  0.0477
18686TIP3    H177549   3.811   5.432  11.323 -0.0991  0.5567  0.0332
18686TIP3    H277550   3.685   5.376  11.384 -0.6364  0.4653 -1.1331
18687TIP3   OH277551   3.723   4.047   2.295 -0.2543  0.1047  0.1976
18687TIP3    H177552   3.804   4.074   2.337  0.7171 -1.6086 -0.4873
18687TIP3    H277553   3.735   4.069   2.202 -0.4033 -0.4797  0.0324
18688TIP3   OH277554   6.356   6.247   3.296 -0.0282 -0.3204 -0.0805
18688TIP3    H177555   6.385   6.249   3.388  0.7522 -1.9367 -0.2578
18688TIP3    H277556   6.414   6.308   3.251  0.6608 -0.7267  0.2339
18689TIP3   OH277557   2.569   3.408   1.557  0.2416 -0.0702  0.0342
18689TIP3    H177558   2.586   3.436   1.647  0.1037 -0.6293  0.2338
18689TIP3    H277559   2.648   3.359   1.532  0.1004 -0.2800 -0.0012
18690TIP3   OH277560   6.573   4.207  16.018  0.8213 -0.0256  0.0203
18690TIP3    H177561   6.594   4.124  16.062  0.0971  0.4852  1.3974
18690TIP3    H277562   6.646   4.264  16.040  0.3671  0.2892  0.7810
18691TIP3   OH277563   2.592   2.880   5.249 -0.7485  0.1725  0.1535
18691TIP3    H177564   2.619   2.972   5.254 -1.5813  0.6268 -2.2650
18691TIP3    H277565   2.550   2.873   5.163  0.3678 -2.7471 -0.2430
18692TIP3   OH277566   6.385   1.172  17.223 -0.0496  0.2199  0.1567
18692TIP3    H177567   6.360   1.167  17.131  1.9525 -2.2079 -0.3496
18692TIP3    H277568   6.479   1.191  17.221  0.4285 -1.6956  1.5955
18693TIP3   OH277569   6.043   0.836   1.789 -0.6879  0.1215 -0.1080
18693TIP3    H177570   5.958   0.855   1.828 -0.2775  1.9310 -0.0172
18693TIP3    H277571   6.056   0.905   1.724 -0.8740 -2.1896 -2.7885
18694TIP3   OH277572   0.574   1.465  16.625 -0.1181 -0.8480 -0.8330
18694TIP3    H177573   0.663   1.497  16.607 -0.2702 -0.3552 -0.7135
18694TIP3    H277574   0.578   1.371  16.605  0.6908 -1.0330  0.1163
18695TIP3   OH277575   1.664   3.157  12.742 -0.5396  0.0315 -0.5558
18695TIP3    H177576   1.647   3.200  12.658 -1.2846  1.3676  0.2460
18695TIP3    H277577   1.641   3.222  12.808  1.8750 -0.2853  0.7062
18696TIP3   OH277578   1.550   0.648   0.429 -0.1104 -0.2405  1.2649
18696TIP3    H177579   1.504   0.695   0.359 -0.6079 -2.1948  0.1826
18696TIP3    H277580   1.633   0.693   0.438 -0.5879  0.8685  0.3463
18697TIP3   OH277581   6.273   0.500  14.292  0.3110  0.1090  0.2729
18697TIP3    H177582   6.211   0.510  14.364 -0.0932  0.9834 -0.1783
18697TIP3    H277583   6.357   0.531  14.328  0.0296  0.8988  0.2595
18698TIP3   OH277584   1.251   0.282   1.953 -0.4834 -0.2651 -0.0461
18698TIP3    H177585   1.297   0.325   2.024  1.1641 -1.8518 -0.0831
18698TIP3    H277586   1.293   0.196   1.945 -2.5981 -1.3047 -0.9683
18699TIP3   OH277587   4.485   1.908  11.601  0.1916  0.1160 -0.1584
18699TIP3    H177588   4.406   1.962  11.607  1.3951  1.9546 -0.0082
18699TIP3    H277589   4.555   1.964  11.636  1.6687 -1.2387 -0.8171
18700TIP3   OH277590   2.461   0.124   2.397 -0.7669  0.0227  0.0403
18700TIP3    H177591   2.423   0.204   2.362 -2.9912 -0.3292  1.4547
18700TIP3    H277592   2.421   0.054   2.345 -0.8056 -0.2880  0.4869
18701TIP3   OH277593   6.222   5.957  11.366 -0.2488  0.3712  1.0338
18701TIP3    H177594   6.301   5.968  11.313 -0.7142  1.0278  0.4598
18701TIP3    H277595   6.182   5.876  11.333 -0.1722  0.4048  0.8606
18702TIP3   OH277596   1.831   0.496   1.032  0.0956 -0.0826 -0.1260
18702TIP3    H177597   1.896   0.537   1.089 -0.3769 -1.0696  1.1793
18702TIP3    H277598   1.862   0.406   1.022 -0.8371 -0.4515  0.1834
18703TIP3   OH277599   1.325   3.732   6.138  0.1625  0.1464 -0.6075
18703TIP3    H177600   1.244   3.690   6.167  0.1801  1.1324  1.0269
18703TIP3    H277601   1.395   3.679   6.177  0.2446  0.2955 -0.5508
18704TIP3   OH277602   1.740   0.450   5.403  0.4159 -0.0986 -0.3132
18704TIP3    H177603   1.664   0.444   5.346  1.2503 -1.4156 -1.3205
18704TIP3    H277604   1.795   0.518   5.363  0.9193 -0.8985 -0.9867
18705TIP3   OH277605   4.178   0.042  14.670 -0.5317  0.5577 -0.1943
18705TIP3    H177606   4.094   0.057  14.625 -0.6748 -0.0390 -0.1344
18705TIP3    H277607   4.240   0.097  14.623 -1.0184  1.2627 -0.0356
18706TIP3   OH277608   4.135   1.400  14.848  0.1069  0.6751 -0.3376
18706TIP3    H177609   4.174   1.346  14.779  0.8712  0.1703  0.4787
18706TIP3    H277610   4.063   1.347  14.881  1.0220  0.0160  0.6444
18707TIP3   OH277611   5.353   5.304  15.326  0.1452  0.0084  0.1672
18707TIP3    H177612   5.333   5.231  15.268 -0.7972 -0.3223  0.8950
18707TIP3    H277613   5.326   5.382  15.276  2.7987  0.0766 -1.3619
18708TIP3   OH277614   6.681   4.266  12.554  0.6991 -0.5047  0.1757
18708TIP3    H177615   6.719   4.335  12.499  0.3255  0.6825  1.3770
18708TIP3    H277616   6.719   4.185  12.520  2.6265  0.4534 -0.0462
18709TIP3   OH277617   5.250   0.992  12.260  0.6744  0.3362 -0.4995
18709TIP3    H177618   5.341   0.963  12.257  0.4767 -0.2714 -0.7255
18709TIP3    H277619   5.217   0.957  12.343  0.0293 -1.3649 -1.4190
18710TIP3   OH277620   5.901   6.130  15.710 -0.3931  0.2421  0.2295
18710TIP3    H177621   5.916   6.224  15.720 -0.2783  0.0481  2.2014
18710TIP3    H277622   5.848   6.123  15.631  1.4066  1.7567 -1.2182
18711TIP3   OH277623   4.848   5.856  16.335  0.1308  0.3554  0.4054
18711TIP3    H177624   4.771   5.799  16.343 -1.6010  2.6618  1.4404
18711TIP3    H277625   4.837   5.899  16.251 -1.7170  3.1890  1.9231
18712TIP3   OH277626   4.210   1.152   1.643 -0.0812 -0.0425 -0.8073
18712TIP3    H177627   4.255   1.111   1.569 -1.0623  1.1503 -2.1312
18712TIP3    H277628   4.118   1.130   1.631 -0.6256  2.3427 -1.5041
18713TIP3   OH277629   1.860   2.678  10.699 -0.1053  0.0547 -0.6588
18713TIP3    H177630   1.799   2.752  10.708  0.2921  0.1842  1.5500
18713TIP3    H277631   1.887   2.681  10.607 -0.6161  2.2514 -0.8084
18714TIP3   OH277632   5.652   6.725  15.137 -0.0914 -0.0172  0.1667
18714TIP3    H177633   5.728   6.771  15.101 -0.2771  1.0778  1.1436
18714TIP3    H277634   5.577   6.782  15.117 -0.2662  0.3567  1.7891
18715TIP3   OH277635   1.574   5.197  16.983  0.1479  0.0941  0.0696
18715TIP3    H177636   1.526   5.243  16.914 -1.6056 -0.4589  0.8521
18715TIP3    H277637   1.659   5.239  16.986  0.1848  0.2699 -2.2762
18716TIP3   OH277638   0.954   6.634  12.534 -0.2791  0.6228  0.1957
18716TIP3    H177639   0.860   6.647  12.550 -0.7287 -0.3503 -1.4198
18716TIP3    H277640   0.982   6.574  12.603 -0.5393  1.8654  1.4224
18717TIP3   OH277641   0.398   5.784  11.981 -0.7414  0.1666  0.2245
18717TIP3    H177642   0.433   5.701  11.949  0.5427 -0.1760  2.3544
18717TIP3    H277643   0.385   5.836  11.901  2.5585 -0.5361 -0.9296
18718TIP3   OH277644   4.987   5.605   3.220  0.7373 -0.0401  0.0266
18718TIP3    H177645   4.955   5.668   3.284 -1.5160 -0.7762 -0.2768
18718TIP3    H277646   5.042   5.656   3.160 -1.0138  1.6682 -0.2168
18719TIP3   OH277647   0.513   5.456   2.552  0.5094 -0.4711  0.0847
18719TIP3    H177648   0.431   5.406   2.547 -0.3614  0.6496  1.8702
18719TIP3    H277649   0.570   5.416   2.486 -0.8665 -2.4032 -0.0272
18720TIP3   OH277650   1.932   0.407  17.123 -0.0837 -0.5556 -0.7496
18720TIP3    H177651   1.906   0.315  17.112 -0.7182 -0.6208  0.9628
18720TIP3    H277652   1.883   0.436  17.200  0.7474  0.9877 -0.7730
18721TIP3   OH277653   0.658   1.088   0.449  0.2148  0.3966  0.0431
18721TIP3    H177654   0.746   1.067   0.481  0.3618 -1.9714 -1.6334
18721TIP3    H277655   0.600   1.029   0.495 -0.0063 -0.5410 -1.3667
18722TIP3   OH277656   4.508   1.355   0.389  0.6058  0.2509  0.0339
18722TIP3    H177657   4.413   1.342   0.395  0.8514 -1.9632  0.0627
18722TIP3    H277658   4.538   1.361   0.480  0.4718  1.4093  0.0176
18723TIP3   OH277659   6.168   2.394  14.042  0.1813 -0.0123 -0.0168
18723TIP3    H177660   6.121   2.347  13.972  0.4560 -0.3273  0.0079
18723TIP3    H277661   6.194   2.326  14.103  0.8777  0.1262 -0.1493
18724TIP3   OH277662   4.078   3.356  12.383 -1.0217  0.4170  0.1564
18724TIP3    H177663   4.015   3.284  12.380 -0.4743 -0.0420 -2.2786
18724TIP3    H277664   4.030   3.428  12.425 -2.4217 -0.5642  0.3188
18725TIP3   OH277665   4.124   1.831  13.167 -0.0861  0.1513  0.1720
18725TIP3    H177666   4.170   1.762  13.120 -1.6615 -0.8131 -0.0278
18725TIP3    H277667   4.108   1.899  13.101  0.3925  0.1654  0.0718
18726TIP3   OH277668   2.235   0.511  13.656 -0.2813 -0.2199  0.2412
18726TIP3    H177669   2.326   0.489  13.674 -0.4030 -1.1418 -0.1925
18726TIP3    H277670   2.219   0.592  13.705  0.8217  0.0621  0.1573
18727TIP3   OH277671   3.222   1.646  12.144 -0.4103 -0.3757 -0.3451
18727TIP3    H177672   3.245   1.725  12.193 -3.4305  1.8782 -2.2154
18727TIP3    H277673   3.156   1.602  12.197  0.2739 -0.9686  0.0457
18728TIP3   OH277674   3.391   6.295   0.745  0.3703  0.4912 -0.3316
18728TIP3    H177675   3.310   6.335   0.776 -0.2244 -0.5144 -0.5208
18728TIP3    H277676   3.404   6.219   0.803 -0.5035 -1.1450 -2.1443
18729TIP3   OH277677   5.565   5.349   4.369 -0.1476 -0.0289 -0.5074
18729TIP3    H177678   5.480   5.346   4.325 -0.4120 -1.8679  0.0274
18729TIP3    H277679   5.612   5.420   4.326 -1.0642 -0.5497 -2.4879
18730TIP3   OH277680   3.854   3.755  14.853  0.2788  0.0442  0.1061
18730TIP3    H177681   3.857   3.755  14.757  0.7508  1.6873  0.0959
18730TIP3    H277682   3.849   3.847  14.877 -1.0852 -0.3928  1.6530
18731TIP3   OH277683   2.048   6.387  15.051 -0.0621  0.4863 -0.2575
18731TIP3    H177684   2.124   6.432  15.088  0.9001 -1.0170 -0.3107
18731TIP3    H277685   2.021   6.325  15.119 -0.7399  0.4522 -0.5514
18732TIP3   OH277686   4.312   5.468   6.623  0.0441 -0.5782  0.2426
18732TIP3    H177687   4.387   5.502   6.574  0.1166  0.2304  0.8904
18732TIP3    H277688   4.321   5.373   6.618  1.7540 -0.5097  1.2498
18733TIP3   OH277689   1.077   5.077  14.651  0.2114  0.2047 -0.1260
18733TIP3    H177690   1.162   5.048  14.684 -0.1532 -0.2100  0.4676
18733TIP3    H277691   1.069   5.037  14.565 -0.7407 -2.4320  1.0807
18734TIP3   OH277692   4.171   2.797  17.247  0.3615  0.1916  0.1810
18734TIP3    H177693   4.212   2.763  17.327  0.0049  0.2852  0.4038
18734TIP3    H277694   4.192   2.733  17.180  2.7171  1.2711 -0.2082
18735TIP3   OH277695   0.376   5.662  12.776 -0.4865 -0.2535 -0.1021
18735TIP3    H177696   0.403   5.571  12.762  1.9215  0.3197  0.2855
18735TIP3    H277697   0.458   5.712  12.770 -2.0528  2.2837 -3.1698
18736TIP3   OH277698   3.539   4.242   3.648  0.1213 -0.5830  0.1680
18736TIP3    H177699   3.621   4.197   3.670  2.4936  1.6288 -3.1656
18736TIP3    H277700   3.485   4.174   3.607  1.6449 -1.4543 -0.4731
18737TIP3   OH277701   3.186   5.566   3.941 -0.3523  0.5495 -0.2848
18737TIP3    H177702   3.250   5.631   3.913  0.7298  0.3434  1.5398
18737TIP3    H277703   3.219   5.483   3.906  0.4742  0.4298  0.7265
18738TIP3   OH277704   3.579   0.915  11.651 -0.2718  0.0441 -0.2491
18738TIP3    H177705   3.525   0.952  11.581  0.3401 -0.4187 -0.9793
18738TIP3    H277706   3.658   0.885  11.606 -0.2183 -0.9956  0.5252
18739TIP3   OH277707   0.434   2.282  16.425 -0.1046 -0.3272 -0.4303
18739TIP3    H177708   0.409   2.197  16.461  0.5540  0.3857  1.9299
18739TIP3    H277709   0.381   2.345  16.475  0.6433  0.7403 -0.9380
18740TIP3   OH277710   2.714   5.259   3.823  0.5157 -0.1903  0.1413
18740TIP3    H177711   2.776   5.331   3.808  0.5536  0.4008  2.6953
18740TIP3    H277712   2.765   5.180   3.810  0.9296  0.2540 -1.0203
18741TIP3   OH277713   2.213   5.782  11.232 -0.1238 -0.0940 -0.4056
18741TIP3    H177714   2.191   5.828  11.151  0.1520 -0.1614 -0.5204
18741TIP3    H277715   2.274   5.841  11.277 -0.1129 -0.1507 -0.3461
18742TIP3   OH277716   2.247   1.755  14.408  0.1412 -0.8501 -0.1333
18742TIP3    H177717   2.298   1.683  14.372  0.5609  0.0559 -1.4476
18742TIP3    H277718   2.218   1.805  14.331 -0.8017 -0.0631  0.6974
18743TIP3   OH277719   3.392   6.442   4.133 -0.0498 -0.0708 -0.0705
18743TIP3    H177720   3.408   6.532   4.104 -0.7985  0.3455  0.7502
18743TIP3    H277721   3.403   6.445   4.228  0.7090 -1.0378 -0.1099
18744TIP3   OH277722   0.130   3.001  17.155 -0.0359 -0.3768 -0.2165
18744TIP3    H177723   0.090   2.914  17.161  1.4052 -0.9981  2.9534
18744TIP3    H277724   0.058   3.062  17.168 -0.7767 -1.2145 -0.3063
18745TIP3   OH277725   6.003   3.170  17.388 -0.6717  0.6820 -0.5695
18745TIP3    H177726   6.028   3.081  17.363  1.4884  1.7442 -2.5860
18745TIP3    H277727   5.943   3.199  17.319 -1.9276  0.6033  0.4498
18746TIP3   OH277728   1.555   4.584   3.003 -0.3670  0.6455 -0.0799
18746TIP3    H177729   1.625   4.632   3.047 -0.0998 -0.4323  0.7212
18746TIP3    H277730   1.478   4.599   3.057 -0.2748  0.1699  0.1930
18747TIP3   OH277731   1.148   3.798  14.227 -0.2203 -0.3009  0.1668
18747TIP3    H177732   1.205   3.752  14.165  1.9467  1.4149  0.7616
18747TIP3    H277733   1.158   3.750  14.309  3.6968  2.0814  1.3737
18748TIP3   OH277734   2.901   4.511  16.779 -0.0654  0.8517 -0.0669
18748TIP3    H177735   2.840   4.441  16.756 -0.8466  1.3576  0.3759
18748TIP3    H277736   2.920   4.555  16.697  1.1242 -0.3888 -0.4951
18749TIP3   OH277737   2.623   6.418  13.888  0.1901 -0.7749  0.8405
18749TIP3    H177738   2.551   6.434  13.948  1.1419  0.2217  1.7454
18749TIP3    H277739   2.601   6.335  13.845 -0.8735 -1.1051  1.9982
18750TIP3   OH277740   1.975   0.075  15.150  0.7610  0.2199 -0.1361
18750TIP3    H177741   1.903   0.014  15.132  0.3967  0.7742 -0.5946
18750TIP3    H277742   1.935   0.161  15.144  1.7159  0.5955 -1.6120
18751TIP3   OH277743   5.336   5.148  15.061  0.1578  0.1809 -0.7370
18751TIP3    H177744   5.325   5.071  15.118  0.2123  0.2215 -0.6720
18751TIP3    H277745   5.276   5.132  14.988 -1.2450  0.9418  0.1850
18752TIP3   OH277746   6.466   4.512  16.163 -0.5152  0.3946 -0.0215
18752TIP3    H177747   6.380   4.499  16.122 -1.7623  0.3886  2.3952
18752TIP3    H277748   6.471   4.607  16.177 -0.6908  0.2687  0.9330
18753TIP3   OH277749   0.735   2.827  11.492 -1.0098  0.0131  0.0774
18753TIP3    H177750   0.650   2.868  11.508 -1.1002 -0.5099  1.0162
18753TIP3    H277751   0.780   2.832  11.576  0.0372  0.5973 -0.4948
18754TIP3   OH277752   3.373   1.979   0.953 -0.2153 -0.4662  0.4723
18754TIP3    H177753   3.352   2.062   0.910 -0.7415 -0.9993 -0.3280
18754TIP3    H277754   3.310   1.973   1.025 -0.9001 -0.6643 -0.1247
18755TIP3   OH277755   0.703   6.622  17.219  0.3273  0.0277 -0.8554
18755TIP3    H177756   0.729   6.568  17.295  1.3137 -0.2328 -1.3605
18755TIP3    H277757   0.782   6.673  17.199  0.4023 -0.6328 -2.3173
18756TIP3   OH277758   4.268   0.381  16.541 -0.3673 -0.8688  0.8696
18756TIP3    H177759   4.268   0.297  16.587 -0.9716 -1.0500  0.5437
18756TIP3    H277760   4.190   0.378  16.486  0.4979 -0.7985 -0.4016
18757TIP3   OH277761   5.691   4.706   4.886  0.0573  0.3980  0.5175
18757TIP3    H177762   5.785   4.689   4.891  0.4527  1.9579 -0.7292
18757TIP3    H277763   5.654   4.623   4.854  1.5526  0.8632 -2.8131
18758TIP3   OH277764   6.628   0.467   0.382 -0.3125  0.3861 -0.1944
18758TIP3    H177765   6.651   0.408   0.453 -0.7930 -2.1942 -2.0655
18758TIP3    H277766   6.630   0.554   0.422  1.7553 -0.7067  2.3498
18759TIP3   OH277767   1.514   1.835  15.304  0.3918 -0.2022 -0.4733
18759TIP3    H177768   1.472   1.869  15.383  2.4750  1.8735 -0.1746
18759TIP3    H277769   1.586   1.781  15.337  2.0429  1.6688 -0.8708
18760TIP3   OH277770   2.656   2.923   4.203 -0.0977 -0.0381  0.0929
18760TIP3    H177771   2.575   2.936   4.154 -0.2637 -2.4501 -0.3879
18760TIP3    H277772   2.714   2.993   4.172 -1.6607  1.2063 -0.1805
18761TIP3   OH277773   5.850   1.179   1.707 -0.3465 -0.1398  0.5029
18761TIP3    H177774   5.841   1.186   1.803  0.9986  3.9100  0.5365
18761TIP3    H277775   5.784   1.240   1.673  0.6624  0.1398 -1.0331
18762TIP3   OH277776   0.538   0.612  11.578  0.3327 -0.1744 -0.2679
18762TIP3    H177777   0.446   0.617  11.552 -0.0115  3.2574  1.0543
18762TIP3    H277778   0.587   0.608  11.496 -0.9193  2.4804 -1.2302
18763TIP3   OH277779   1.392   1.712  16.956 -0.3317  0.4232  0.0016
18763TIP3    H177780   1.478   1.670  16.962  0.8617  2.6275 -0.8821
18763TIP3    H277781   1.355   1.703  17.044  1.8161  1.4904  1.0630
18764TIP3   OH277782   2.116   1.751  14.884  0.3855  0.2668 -0.2383
18764TIP3    H177783   2.130   1.776  14.793 -0.8639  1.1707 -0.2034
18764TIP3    H277784   2.094   1.832  14.928  3.1808  0.2552  1.3927
18765TIP3   OH277785   0.523   0.893   1.550 -0.0813  0.0138 -0.4448
18765TIP3    H177786   0.546   0.812   1.505  2.0772  0.7408 -0.7409
18765TIP3    H277787   0.494   0.952   1.481 -0.2414 -0.0232 -0.4106
18766TIP3   OH277788   4.398   1.573  12.278 -0.0073  0.2098 -0.7978
18766TIP3    H177789   4.332   1.506  12.299  0.2655  0.5302  1.3519
18766TIP3    H277790   4.347   1.653  12.269  0.0272  0.4808  0.9861
18767TIP3   OH277791   4.800   3.121   3.338 -0.0019  0.1034 -0.1840
18767TIP3    H177792   4.708   3.137   3.320  0.0817 -0.4290 -1.1350
18767TIP3    H277793   4.844   3.134   3.254  0.7808  0.2889  0.2421
18768TIP3   OH277794   0.877   4.160   1.273  0.1358 -0.2639 -0.0247
18768TIP3    H177795   0.967   4.130   1.262  0.6233  1.4715 -1.3235
18768TIP3    H277796   0.881   4.254   1.256 -1.7787  0.0334  0.8562
18769TIP3   OH277797   1.259   0.815  16.974 -0.4042  0.2535 -0.2515
18769TIP3    H177798   1.344   0.831  16.933 -0.1390 -0.2347  0.0918
18769TIP3    H277799   1.271   0.842  17.065 -1.2686  2.2144 -0.6740
18770TIP3   OH277800   0.514   3.034  11.721 -0.4599  0.2381 -0.6265
18770TIP3    H177801   0.487   2.946  11.748 -0.2318  0.3357 -0.0497
18770TIP3    H277802   0.602   3.044  11.758 -0.1955  0.4422 -1.3001
18771TIP3   OH277803   3.501   0.497   1.050  0.2500  0.0880 -0.2505
18771TIP3    H177804   3.572   0.456   0.999 -0.2862 -0.4496 -0.5861
18771TIP3    H277805   3.534   0.500   1.139  1.2262  1.0878 -0.6317
18772TIP3   OH277806   6.562   5.068  17.292  1.2744 -0.1306  0.1564
18772TIP3    H177807   6.604   5.090  17.209 -0.8025 -1.6856 -1.4228
18772TIP3    H277808   6.522   5.149  17.321  0.8528  0.1546 -1.1405
18773TIP3   OH277809   0.440   5.294  16.509 -0.0254 -0.2391 -0.1427
18773TIP3    H177810   0.403   5.235  16.444 -1.0710 -0.0609  0.2742
18773TIP3    H277811   0.510   5.243  16.550  0.0161 -0.6833 -0.7403
18774TIP3   OH277812   1.940   2.697  14.854  0.2733  0.1786 -0.0982
18774TIP3    H177813   1.879   2.663  14.919 -1.4285  0.3706 -1.5032
18774TIP3    H277814   1.972   2.620  14.808 -0.4979  0.1895 -0.6732
18775TIP3   OH277815   3.465   4.972  12.979 -0.4634 -0.1282  0.6116
18775TIP3    H177816   3.513   4.993  12.899 -0.7319  1.7467  0.9035
18775TIP3    H277817   3.480   5.047  13.036 -1.2506 -0.9058  1.8752
18776TIP3   OH277818   2.823   0.003   5.390 -0.2966  0.3402 -0.0035
18776TIP3    H177819   2.845  -0.069   5.450  2.8785  0.5975 -0.6487
18776TIP3    H277820   2.745  -0.027   5.344 -0.7510 -1.4048  1.7618
18777TIP3   OH277821   5.573   5.487  11.510  0.0239 -0.1743 -0.5172
18777TIP3    H177822   5.519   5.523  11.580 -0.1018 -0.0959 -0.6551
18777TIP3    H277823   5.593   5.561  11.454  1.3398  0.0666  0.2172
18778TIP3   OH277824   6.702   3.310   6.873  0.4778  0.3857 -0.7256
18778TIP3    H177825   6.681   3.252   6.799  1.7390 -1.1649  0.0661
18778TIP3    H277826   6.621   3.358   6.890 -1.9930 -3.8030  0.8832
18779TIP3   OH277827   5.296   3.673  12.255  0.3679  0.2328  0.0765
18779TIP3    H177828   5.292   3.595  12.201 -1.5868 -0.0345  0.5280
18779TIP3    H277829   5.361   3.729  12.212  0.9939 -1.1738 -0.8644
18780TIP3   OH277830   4.411   4.845  14.661 -0.0490  0.1019  0.2417
18780TIP3    H177831   4.344   4.913  14.670 -1.0275 -0.8697  0.5322
18780TIP3    H277832   4.482   4.887  14.612  0.6949  2.2512  2.9024
18781TIP3   OH277833   0.181   3.282   2.129 -0.1202  0.6257  0.2098
18781TIP3    H177834   0.235   3.210   2.097 -0.2315  0.9425 -0.7268
18781TIP3    H277835   0.101   3.240   2.162 -0.5777  0.3635 -1.1533
18782TIP3   OH277836   3.847   3.403   5.380  0.3975  0.0705 -0.0483
18782TIP3    H177837   3.820   3.479   5.431 -2.0291 -0.5282 -0.2831
18782TIP3    H277838   3.798   3.410   5.298  3.3339  0.4090 -1.9309
18783TIP3   OH277839   6.019   3.132  15.644 -0.0057  0.4189 -0.0686
18783TIP3    H177840   6.083   3.063  15.626  0.4981  1.1677 -1.3024
18783TIP3    H277841   5.984   3.156  15.558 -1.6114  0.3684  0.5300
18784TIP3   OH277842   2.218   3.329  15.602  0.6631 -0.0153 -0.6610
18784TIP3    H177843   2.205   3.416  15.563  1.4495  0.2698 -0.2879
18784TIP3    H277844   2.224   3.345  15.696  0.3068 -0.5385 -0.5428
18785TIP3   OH277845   2.295   0.029   1.316 -0.4076  0.1023 -0.2261
18785TIP3    H177846   2.273   0.078   1.236  0.5016 -0.5002 -0.8743
18785TIP3    H277847   2.288  -0.063   1.290 -1.4737 -0.1210  0.8044
18786TIP3   OH277848   3.600   2.739   4.932 -0.2299  0.7132  0.3192
18786TIP3    H177849   3.564   2.692   5.008  2.3688 -1.3232  0.4690
18786TIP3    H277850   3.639   2.818   4.968 -0.7874  0.7688  0.7986
18787TIP3   OH277851   0.198   4.615  14.132 -0.8967 -0.0021  0.2158
18787TIP3    H177852   0.291   4.607  14.113 -0.5703  0.4260  1.4900
18787TIP3    H277853   0.170   4.526  14.154 -1.0483 -0.3148 -1.1946
18788TIP3   OH277854   1.432   0.815   0.214  0.0362  0.4906 -0.1517
18788TIP3    H177855   1.449   0.858   0.130 -0.0108  2.7736  0.9456
18788TIP3    H277856   1.464   0.876   0.280 -2.5492  0.0846  1.6235
18789TIP3   OH277857   6.708   0.837  15.953 -0.2117 -0.2548  0.5249
18789TIP3    H177858   6.780   0.900  15.942  0.9323 -1.5211  0.6073
18789TIP3    H277859   6.722   0.772  15.885 -0.0640 -1.6424  1.8258
18790TIP3   OH277860   4.093   5.244  14.265  0.2548  0.0431  0.1212
18790TIP3    H177861   4.165   5.260  14.326  0.9072  1.4933 -0.9470
18790TIP3    H277862   4.121   5.167  14.215 -0.3596 -1.2520  1.6964
18791TIP3   OH277863   0.071   1.518  14.148  0.3528  0.2127 -0.6650
18791TIP3    H177864  -0.001   1.463  14.178  1.5872 -0.3956  1.4073
18791TIP3    H277865   0.062   1.520  14.053 -2.6711  0.6081 -0.4847
18792TIP3   OH277866   2.909   3.740   0.020  0.0455  0.1862  0.0446
18792TIP3    H177867   2.884   3.683   0.093  1.5387 -1.5311 -0.7059
18792TIP3    H277868   2.898   3.684  -0.058  3.8614 -0.0011 -0.5285
18793TIP3   OH277869   0.519   4.730  11.495  0.0562 -0.5684  0.1282
18793TIP3    H177870   0.495   4.805  11.549 -0.3600 -0.4587 -0.2102
18793TIP3    H277871   0.614   4.740  11.481 -0.1963  0.5490 -0.9172
18794TIP3   OH277872   0.914   5.625  17.227  0.0915 -0.6387  0.2271
18794TIP3    H177873   0.886   5.615  17.136  0.1030 -2.2908  0.3722
18794TIP3    H277874   0.913   5.719  17.242 -2.4670 -0.4424 -0.7008
18795TIP3   OH277875   1.447   2.949   3.703  0.3079  0.4742 -0.2088
18795TIP3    H177876   1.410   2.997   3.777  0.5768  0.7613 -0.2577
18795TIP3    H277877   1.454   3.014   3.633  0.6439  0.3575 -0.2865
18796TIP3   OH277878   2.061   5.887  15.846 -0.1673 -0.0393 -0.4825
18796TIP3    H177879   2.076   5.957  15.784  2.3649 -1.7059 -1.9029
18796TIP3    H277880   2.033   5.812  15.792 -0.8219 -0.7283  0.7506
18797TIP3   OH277881   3.324   2.746  15.674  0.2313  0.1550 -0.2480
18797TIP3    H177882   3.333   2.825  15.621 -0.2134 -0.2640 -0.9708
18797TIP3    H277883   3.391   2.687  15.641 -1.3173 -0.8444 -1.7368
18798TIP3   OH277884   1.562   0.547   4.804 -0.4791  0.1342  0.0305
18798TIP3    H177885   1.483   0.548   4.858  0.2625 -0.8405  1.1773
18798TIP3    H277886   1.530   0.531   4.716 -1.7052  1.5324  0.1641
18799TIP3   OH277887   6.482   2.139  16.146 -0.5513 -0.7283 -0.3096
18799TIP3    H177888   6.434   2.147  16.228  2.8530 -0.9225  1.8930
18799TIP3    H277889   6.501   2.230  16.120 -1.1165 -0.6828 -0.5743
18800TIP3   OH277890   2.332   2.465  13.669  0.7389 -0.1766 -0.1682
18800TIP3    H177891   2.395   2.532  13.694  0.4142 -0.3469  1.1863
18800TIP3    H277892   2.374   2.418  13.597  1.7064  0.3873  0.0110
18801TIP3   OH277893   1.451   5.804  15.895 -1.1320 -0.2242  0.0429
18801TIP3    H177894   1.486   5.768  15.977 -0.2530 -1.5403 -0.8667
18801TIP3    H277895   1.488   5.892  15.889 -0.2507 -0.5539  0.5019
18802TIP3   OH277896   3.892   6.095  11.339  0.5795  0.2893  0.1323
18802TIP3    H177897   3.951   6.159  11.378  1.0206 -1.2660  2.1595
18802TIP3    H277898   3.926   6.011  11.368 -0.4316 -0.8496 -1.8357
18803TIP3   OH277899   4.286   5.424  15.029 -0.0593 -0.1434 -0.3164
18803TIP3    H177900   4.326   5.356  14.975  2.5193  0.5821  0.5038
18803TIP3    H277901   4.252   5.378  15.105  0.3650 -0.6689 -0.4416
18804TIP3   OH277902   0.855   0.715   5.561  0.1029  0.3370 -0.7657
18804TIP3    H177903   0.927   0.775   5.539 -0.5259  0.9340 -1.2481
18804TIP3    H277904   0.866   0.641   5.501  1.7794 -0.7981  0.8390
18805TIP3   OH277905   6.267   3.953   3.729 -0.2787  0.7161 -0.1822
18805TIP3    H177906   6.258   3.859   3.740  0.4139  0.5085 -1.2579
18805TIP3    H277907   6.361   3.970   3.740 -0.1800  1.0618 -1.4328
18806TIP3   OH277908   3.759   5.568   1.293  0.4225  0.1274  0.4343
18806TIP3    H177909   3.698   5.514   1.345 -0.3067  0.3756 -0.1493
18806TIP3    H277910   3.746   5.539   1.203  2.0947 -0.6953  0.4092
18807TIP3   OH277911   3.889   1.673  12.036 -0.1653 -0.1312 -0.4090
18807TIP3    H177912   3.977   1.636  12.044 -0.3191 -0.3029  0.6240
18807TIP3    H277913   3.873   1.677  11.942  1.0564  0.1605 -0.6222
18808TIP3   OH277914   0.414   1.862  14.953 -0.5363  0.1887 -1.0556
18808TIP3    H177915   0.384   1.868  14.863 -2.8467  0.0780 -0.3600
18808TIP3    H277916   0.368   1.786  14.989  2.8843 -1.8920 -0.6150
18809TIP3   OH277917   2.749   0.308   1.563 -0.1732  0.0112 -0.4594
18809TIP3    H177918   2.796   0.316   1.647  1.4377 -2.2497 -1.0410
18809TIP3    H277919   2.810   0.344   1.498  0.9729 -3.0143 -1.2345
18810TIP3   OH277920   3.209   3.285  13.002  0.4333 -0.1665  0.1059
18810TIP3    H177921   3.166   3.300  12.918  1.0604 -1.1080 -0.4019
18810TIP3    H277922   3.296   3.322  12.992  0.0408  1.0161  0.8553
18811TIP3   OH277923   0.197   3.096  13.472 -0.2513  0.2223  0.2213
18811TIP3    H177924   0.212   3.080  13.565 -1.7805 -0.4346  0.3815
18811TIP3    H277925   0.248   3.175  13.453 -2.6046  2.4839  2.4993
18812TIP3   OH277926   3.115   5.828   1.322  0.1249  0.0384 -0.6807
18812TIP3    H177927   3.020   5.839   1.315  0.2064 -0.2569 -3.5146
18812TIP3    H277928   3.127   5.775   1.401 -2.1432 -0.6910 -0.7390
18813TIP3   OH277929   4.229   4.332   2.185 -0.3962  0.0024 -0.4217
18813TIP3    H177930   4.204   4.271   2.116 -2.5355  1.3506 -0.9390
18813TIP3    H277931   4.204   4.418   2.151  0.5776  0.9647  1.1382
18814TIP3   OH277932   0.355   0.778   1.739  0.3161 -0.7466  0.1405
18814TIP3    H177933   0.351   0.855   1.796 -1.5190 -0.5404 -0.2018
18814TIP3    H277934   0.445   0.778   1.705  0.3874  1.1931  0.2116
18815TIP3   OH277935   2.031   0.202  16.052  0.3632  0.1936 -0.4821
18815TIP3    H177936   2.089   0.256  16.106  1.7614 -0.1998 -1.5038
18815TIP3    H277937   2.024   0.119  16.099 -0.8796  0.8361  0.5347
18816TIP3   OH277938   0.702   1.972  15.879 -0.3382  0.4391  0.1110
18816TIP3    H177939   0.659   1.906  15.824 -1.3863  0.2609  1.1214
18816TIP3    H277940   0.641   1.987  15.951  1.0418  0.6183  1.2823
18817TIP3   OH277941   4.966   0.242  17.075  0.7134 -0.0089  0.5590
18817TIP3    H177942   5.043   0.281  17.116  1.7337 -1.9504  0.6416
18817TIP3    H277943   4.907   0.224  17.148  0.5343  0.7213  0.5989
18818TIP3   OH277944   3.247   6.685  16.094 -0.1868  0.3233 -0.0773
18818TIP3    H177945   3.306   6.700  16.168  0.3430 -0.7494 -0.2619
18818TIP3    H277946   3.291   6.619  16.040 -1.9469 -1.2240  0.2467
18819TIP3   OH277947   5.710   2.231   4.666  0.1993  0.0179  0.5814
18819TIP3    H177948   5.658   2.303   4.701  0.1743  0.6279 -0.6420
18819TIP3    H277949   5.778   2.216   4.732 -1.3082 -0.5892  2.0525
18820TIP3   OH277950   0.169   1.660  15.855 -0.3559  0.0211 -0.3326
18820TIP3    H177951   0.246   1.717  15.852 -0.5438  0.2818 -0.1487
18820TIP3    H277952   0.108   1.704  15.914  0.2559 -1.2996  1.3664
18821TIP3   OH277953   5.384   2.360   5.367 -0.6852 -0.5544  0.2597
18821TIP3    H177954   5.301   2.369   5.320 -0.3932  0.4677 -0.0893
18821TIP3    H277955   5.362   2.378   5.458 -0.6728  0.8468  0.0122
18822TIP3   OH277956   2.188   6.520  16.200 -0.6767  0.4125  0.2002
18822TIP3    H177957   2.277   6.547  16.224 -0.6822  2.7750 -1.9664
18822TIP3    H277958   2.151   6.485  16.281  2.2887 -0.9544  1.0890
18823TIP3   OH277959   1.004   1.400  16.386  0.0630 -0.4815  0.2562
18823TIP3    H177960   0.910   1.405  16.366  0.3400  0.3638 -0.9901
18823TIP3    H277961   1.046   1.435  16.307  1.3633  0.5609  1.3803
18824TIP3   OH277962   1.178   0.738   4.849 -0.1785 -0.0937 -0.0225
18824TIP3    H177963   1.196   0.648   4.824 -1.9823 -0.3961 -0.3733
18824TIP3    H277964   1.095   0.734   4.897 -0.0366  1.3111  0.3975
18825TIP3   OH277965   5.178   0.327  16.733 -0.4033  0.2254  0.0060
18825TIP3    H177966   5.125   0.404  16.754 -1.1306 -0.1778 -0.3327
18825TIP3    H277967   5.144   0.297  16.649  0.9962  0.5109 -0.6853
18826TIP3   OH277968   5.175   4.879   6.804  0.3175  0.4661 -0.4459
18826TIP3    H177969   5.162   4.811   6.870 -1.6468  1.3112  0.1299
18826TIP3    H277970   5.248   4.849   6.751  1.7513 -0.4132  1.9111
18827TIP3   OH277971   0.552   1.681  16.156  0.4450 -0.7408 -0.2652
18827TIP3    H177972   0.567   1.619  16.084 -1.6746 -1.3198 -0.2704
18827TIP3    H277973   0.506   1.754  16.116  2.2640  0.5630 -0.0997
18828TIP3   OH277974   6.477   5.691   3.118 -0.0502 -0.4594  0.0297
18828TIP3    H177975   6.520   5.775   3.104  0.9112 -0.7898  0.8723
18828TIP3    H277976   6.383   5.712   3.121 -0.0504  0.1650 -2.5273
18829TIP3   OH277977   2.513   3.480   2.668  0.5305  0.1189 -0.2084
18829TIP3    H177978   2.543   3.390   2.674 -1.5174 -0.8935 -2.9310
18829TIP3    H277979   2.570   3.520   2.602  0.0176  0.0969 -0.6753
18830TIP3   OH277980   0.240   3.487  14.758 -0.0901 -0.3177  0.0651
18830TIP3    H177981   0.182   3.461  14.829 -0.0649 -0.4750  0.0283
18830TIP3    H277982   0.181   3.502  14.684  0.0532 -1.9997 -0.4168
18831TIP3   OH277983   4.020   2.191  15.167 -0.1212  0.3543 -0.0316
18831TIP3    H177984   4.001   2.235  15.250 -1.3841  0.5058 -0.3807
18831TIP3    H277985   3.967   2.237  15.102  0.7700  0.1738 -0.9195
18832TIP3   OH277986   5.272   3.139  12.248 -0.1236  0.6143 -0.0718
18832TIP3    H177987   5.185   3.130  12.208 -0.3243 -1.6466  0.7497
18832TIP3    H277988   5.288   3.234  12.248 -1.9048  0.9763 -1.6350
18833TIP3   OH277989   5.785   2.795  14.553  0.2274 -0.4338  0.4829
18833TIP3    H177990   5.805   2.772  14.463  0.8509  0.3371  0.4181
18833TIP3    H277991   5.773   2.711  14.597  1.3523 -0.8622  0.0108
18834TIP3   OH277992   2.648   4.845   5.312  0.5033 -0.4073 -0.7851
18834TIP3    H177993   2.704   4.901   5.366  0.2012 -0.6458 -0.2275
18834TIP3    H277994   2.651   4.885   5.225  0.1744  0.5522 -0.3573
18835TIP3   OH277995   2.341   6.258   2.193  0.2862  0.3342  0.1812
18835TIP3    H177996   2.298   6.185   2.237 -0.0316  1.7506  2.3602
18835TIP3    H277997   2.345   6.231   2.101 -2.3748 -1.2120  0.4085
18836TIP3   OH277998   0.744   6.527   2.502 -0.0168 -0.0598 -0.3281
18836TIP3    H177999   0.747   6.515   2.407 -1.8171  1.1916 -0.5953
18836TIP3    H278000   0.736   6.438   2.537 -3.9855 -0.4523 -1.6786
18837TIP3   OH278001   1.885   1.459   0.041 -0.3161  0.3853 -0.4245
18837TIP3    H178002   1.967   1.410   0.045 -1.0573 -0.8492  0.6131
18837TIP3    H278003   1.881   1.492  -0.049  0.8014 -0.4558 -0.8126
18838TIP3   OH278004   5.880   1.712  11.757 -0.1493  0.1003  0.4107
18838TIP3    H178005   5.791   1.732  11.784 -0.6970 -1.4563 -0.1610
18838TIP3    H278006   5.882   1.730  11.663 -0.6277 -2.2786 -0.0957
18839TIP3   OH278007   3.040   6.255  14.374  0.0139  0.0201  0.3693
18839TIP3    H178008   3.033   6.337  14.424 -0.3417 -0.5356  1.2514
18839TIP3    H278009   2.997   6.190  14.428 -0.6140 -0.5642 -0.7899
18840TIP3   OH278010   5.012   3.926  11.455 -0.0737  0.9359 -0.2419
18840TIP3    H178011   4.997   3.971  11.538  0.7386 -0.8776  0.9520
18840TIP3    H278012   4.930   3.880  11.438  0.8805 -1.5789  1.4948
18841TIP3   OH278013   2.517   1.251   1.522 -0.7215  0.2664 -0.1460
18841TIP3    H178014   2.506   1.156   1.516 -0.4421  0.2665 -0.6427
18841TIP3    H278015   2.565   1.275   1.443  1.5392  0.4683  1.2125
18842TIP3   OH278016   0.085   0.423   5.241  0.1332 -0.2122 -0.1321
18842TIP3    H178017   0.112   0.372   5.164 -1.0324 -0.3500 -0.4607
18842TIP3    H278018   0.137   0.503   5.235  0.0748 -0.2323 -1.0465
18843TIP3   OH278019   3.782   5.552  12.710  1.3726 -0.3177 -0.0135
18843TIP3    H178020   3.697   5.590  12.733  1.5671 -0.2411  0.6205
18843TIP3    H278021   3.780   5.543  12.615  1.4034  1.5046 -0.2257
18844TIP3   OH278022   6.496   3.360   0.468  0.6888  0.2189  0.5275
18844TIP3    H178023   6.535   3.276   0.444  0.5599  0.0134  1.0234
18844TIP3    H278024   6.488   3.408   0.385  0.1709 -0.5016  0.1514
18845TIP3   OH278025   2.341   2.249  11.241 -0.4033 -0.0949 -0.3857
18845TIP3    H178026   2.376   2.160  11.247 -0.5662 -0.1864 -0.7810
18845TIP3    H278027   2.383   2.287  11.165  1.8524  1.1642  1.3549
18846TIP3   OH278028   1.653   2.070  13.021  0.2299 -0.4855 -0.1989
18846TIP3    H178029   1.569   2.105  12.992  0.1024  1.0550  1.8140
18846TIP3    H278030   1.672   2.000  12.959 -1.0674  1.0787 -2.4894
18847TIP3   OH278031   2.059   5.310  13.088 -0.4115  0.2011 -0.1235
18847TIP3    H178032   2.129   5.354  13.041 -1.0097  1.0906 -0.2184
18847TIP3    H278033   2.060   5.351  13.175 -1.3027  0.7987 -0.3742
18848TIP3   OH278034   4.342   4.097   0.863  0.0619 -0.1204  0.1646
18848TIP3    H178035   4.369   4.005   0.859 -0.4665 -0.2963  0.4591
18848TIP3    H278036   4.246   4.094   0.864  0.0257  0.4733 -0.6011
18849TIP3   OH278037   1.661   2.655  14.605  0.1803  0.4107  0.1239
18849TIP3    H178038   1.681   2.667  14.698 -0.3820 -1.2811  0.4956
18849TIP3    H278039   1.636   2.563  14.598  0.5441  0.4312 -1.7739
18850TIP3   OH278040   6.245   1.566  14.190  0.4930 -0.1836 -0.4233
18850TIP3    H178041   6.177   1.589  14.127  0.1004  0.2729  0.1560
18850TIP3    H278042   6.325   1.605  14.155  0.3749 -0.3683 -0.8971
18851TIP3   OH278043   1.013   5.991   3.494 -0.5151  0.1424 -0.7300
18851TIP3    H178044   0.922   5.973   3.515 -0.3555  0.4319  0.2409
18851TIP3    H278045   1.050   6.029   3.574  0.8951 -1.5201 -0.5364
18852TIP3   OH278046   5.947   5.943  13.264 -0.1452  0.4992  0.4425
18852TIP3    H178047   5.930   6.036  13.252  1.2679  0.8400  0.9138
18852TIP3    H278048   5.978   5.913  13.178  0.0831  0.6322  0.4765
18853TIP3   OH278049   6.003   0.734  10.432 -0.4817 -0.6468  0.2808
18853TIP3    H178050   5.951   0.800  10.387  0.3614 -0.5914 -0.6518
18853TIP3    H278051   6.028   0.775  10.515  0.1730  0.2747 -0.3552
18854TIP3   OH278052   2.817   3.973   1.521  0.0300 -0.2576  0.0904
18854TIP3    H178053   2.780   3.885   1.515  0.9721 -0.5989 -1.1540
18854TIP3    H278054   2.836   3.984   1.614 -1.6604 -0.6811  0.5210
18855TIP3   OH278055   1.669   6.094  16.546  0.0201 -0.0612 -0.0557
18855TIP3    H178056   1.759   6.096  16.579  0.1942  2.7058 -0.4710
18855TIP3    H278057   1.654   6.002  16.524  1.7241 -1.1246  2.6671
18856TIP3   OH278058   4.381   3.082  11.013 -0.0607  0.3678  0.0622
18856TIP3    H178059   4.469   3.078  10.976  0.8071 -3.1299  2.0363
18856TIP3    H278060   4.341   2.999  10.988 -2.0443  1.0017  0.9430
18857TIP3   OH278061   0.682   4.783   3.536  0.2439 -0.4493  0.0214
18857TIP3    H178062   0.676   4.845   3.608 -3.1509 -1.3396  0.6816
18857TIP3    H278063   0.680   4.697   3.578  0.7056 -0.9992 -1.0485
18858TIP3   OH278064   6.025   1.939   4.949  0.2903  0.1536  0.1689
18858TIP3    H178065   6.073   2.020   4.929 -0.0916  0.1029 -1.0072
18858TIP3    H278066   6.091   1.882   4.989  1.3207 -0.0028 -1.6343
18859TIP3   OH278067   4.767   1.238  14.707  0.2071  0.2797  0.2974
18859TIP3    H178068   4.838   1.254  14.645  0.1314 -1.2480 -0.2206
18859TIP3    H278069   4.793   1.158  14.753 -1.5609 -0.8460 -0.5359
18860TIP3   OH278070   1.303   3.971   0.321 -0.2685  0.1660 -0.1863
18860TIP3    H178071   1.319   3.963   0.227  0.0719 -0.7381 -0.0620
18860TIP3    H278072   1.345   4.054   0.346  1.1221 -0.4218 -0.5237
18861TIP3   OH278073   2.490   4.521   1.341  0.0952 -0.6942  0.1744
18861TIP3    H178074   2.434   4.593   1.371  0.1270 -0.7229  0.3041
18861TIP3    H278075   2.578   4.557   1.341  0.0100 -0.4646 -0.6061
18862TIP3   OH278076   1.206   6.358  12.010  0.1847  0.5865  0.6499
18862TIP3    H178077   1.138   6.318  11.957 -0.3989  2.2552  0.0699
18862TIP3    H278078   1.271   6.289  12.022 -1.2579 -0.8411  0.6321
18863TIP3   OH278079   2.227   1.966  14.246  0.1044 -0.1158  0.0916
18863TIP3    H178080   2.233   2.055  14.282 -0.9811  0.0988 -0.2346
18863TIP3    H278081   2.264   1.973  14.158  1.5729 -0.3677  0.6560
18864TIP3   OH278082   0.725   5.192   1.826  0.6810 -0.0915  0.2416
18864TIP3    H178083   0.727   5.286   1.803 -1.5929 -0.1677 -0.5201
18864TIP3    H278084   0.817   5.170   1.843  1.2928  2.2500  0.3695
18865TIP3   OH278085   4.983   2.807  14.201  0.1143 -0.2083 -0.2068
18865TIP3    H178086   4.943   2.846  14.123 -1.2867 -0.7960  0.1859
18865TIP3    H278087   5.017   2.722  14.170 -1.1986 -0.8263 -0.0338
18866TIP3   OH278088   3.589   6.727  15.947 -0.1731  0.3562 -0.3034
18866TIP3    H178089   3.588   6.743  15.853  0.7421  2.0021 -0.0774
18866TIP3    H278090   3.661   6.666  15.960 -1.2783 -1.1284 -0.7896
18867TIP3   OH278091   2.181   5.566   5.484 -0.3253 -0.1191  0.4871
18867TIP3    H178092   2.144   5.629   5.423  0.7492  0.5128  0.4571
18867TIP3    H278093   2.217   5.619   5.555  0.9118 -0.6556  0.2886
18868TIP3   OH278094   4.729   1.961   3.001 -0.2193 -0.7212 -0.2696
18868TIP3    H178095   4.795   1.970   3.070  1.4935 -1.0512 -1.8001
18868TIP3    H278096   4.645   1.961   3.048  0.8246  0.1366  1.7004
18869TIP3   OH278097   2.865   3.598  12.232  0.5853  0.4888 -0.1308
18869TIP3    H178098   2.789   3.575  12.179 -0.8914 -0.0409  2.0620
18869TIP3    H278099   2.917   3.518  12.237 -0.5319 -0.1884  1.1555
18870TIP3   OH278100   2.692   0.476   5.243 -0.1053  0.0576 -0.1067
18870TIP3    H178101   2.766   0.517   5.199 -0.5415  0.3844 -0.5497
18870TIP3    H278102   2.731   0.428   5.316  0.3797  1.6871  0.7504
18871TIP3   OH278103   3.822   2.307  11.152  0.0842  0.4045 -0.1449
18871TIP3    H178104   3.855   2.225  11.190  1.8076  1.4292  0.6956
18871TIP3    H278105   3.738   2.283  11.113 -0.0271 -1.5012  1.1174
18872TIP3   OH278106   2.496   5.045   0.524  0.6960  0.1028 -0.1494
18872TIP3    H178107   2.422   4.990   0.498  0.9083 -0.1779 -0.1640
18872TIP3    H278108   2.570   4.985   0.528  1.2815  0.6583 -1.7627
18873TIP3   OH278109   4.552   3.637  15.966 -0.1077  0.2974 -0.4500
18873TIP3    H178110   4.528   3.729  15.964  0.7897  0.6089  1.2273
18873TIP3    H278111   4.617   3.628  15.896  1.5016  1.4968  0.8156
18874TIP3   OH278112   4.628   6.509   1.552  0.6812  0.3459  0.2076
18874TIP3    H178113   4.599   6.587   1.504 -0.8332  0.4372  1.2005
18874TIP3    H278114   4.635   6.441   1.486  0.4023  0.9179 -0.4264
18875TIP3   OH278115   2.763   1.080  11.720 -0.5617 -0.2540 -0.1982
18875TIP3    H178116   2.856   1.101  11.712 -0.8179  0.4918 -1.8444
18875TIP3    H278117   2.728   1.096  11.632 -2.5564  1.0372  0.7653
18876TIP3   OH278118   2.336   0.572   0.988  0.8302 -0.3618  0.4450
18876TIP3    H178119   2.314   0.653   0.942  0.7263 -1.0702 -0.8012
18876TIP3    H278120   2.396   0.599   1.056 -0.5038  0.9978  1.1378
18877TIP3   OH278121   2.387   0.795  15.579  0.1613 -0.0124 -0.2608
18877TIP3    H178122   2.317   0.743  15.617  0.7324  0.1134  1.0297
18877TIP3    H278123   2.427   0.738  15.513 -1.3382  0.0468 -1.2566
18878TIP3   OH278124   3.294   0.052  16.606  0.2276  0.1875 -0.0399
18878TIP3    H178125   3.228   0.001  16.559 -0.3706  0.8984  0.0105
18878TIP3    H278126   3.333   0.108  16.540  0.0347  0.5233  0.1262
18879TIP3   OH278127   5.988   3.279  12.116  0.1935  0.0691 -0.1076
18879TIP3    H178128   6.029   3.219  12.054 -0.8926 -0.6027 -0.2013
18879TIP3    H278129   5.904   3.237  12.137 -0.3947  1.3491  0.1525
18880TIP3   OH278130   3.431   1.836   3.370  0.3430  0.1703  0.5761
18880TIP3    H178131   3.438   1.778   3.445  1.3756  0.6295  0.8463
18880TIP3    H278132   3.351   1.807   3.325 -0.0741 -0.3619  1.6198
18881TIP3   OH278133   5.148   1.893  16.810 -0.2238 -0.5396  0.1040
18881TIP3    H178134   5.117   1.829  16.745 -2.0358  2.1247 -1.8766
18881TIP3    H278135   5.243   1.896  16.798 -0.3008 -1.6131 -0.9454
18882TIP3   OH278136   6.336   6.160   0.603 -0.0729 -0.1238  0.6798
18882TIP3    H178137   6.279   6.125   0.672 -1.4751  1.1937  0.2588
18882TIP3    H278138   6.277   6.170   0.528  0.7736  1.0684  0.1557
18883TIP3   OH278139   2.085   1.464   5.360 -0.0953  0.4552  0.1120
18883TIP3    H178140   2.161   1.480   5.417 -1.7343 -0.2616  2.6719
18883TIP3    H278141   2.017   1.432   5.419 -1.3633 -2.3094 -2.5709
18884TIP3   OH278142   5.382   5.464  13.050 -0.3193 -0.2949 -0.8835
18884TIP3    H178143   5.422   5.521  12.984 -0.1898 -2.1895 -2.5279
18884TIP3    H278144   5.442   5.389  13.057  1.3410  1.0546  3.6957
18885TIP3   OH278145   1.431   4.617  15.040  0.0357 -0.2892  0.1647
18885TIP3    H178146   1.380   4.632  14.960 -0.4364 -0.3292  0.4529
18885TIP3    H278147   1.503   4.560  15.012 -0.0234 -0.1574 -0.2680
18886TIP3   OH278148   5.621   0.402  16.342 -0.0251 -0.1291  0.3671
18886TIP3    H178149   5.717   0.409  16.343 -0.0756  1.0486 -0.8392
18886TIP3    H278150   5.594   0.435  16.427  0.6281 -0.3385  0.6632
18887TIP3   OH278151   0.629   2.387  15.635 -0.4006 -0.2482 -0.0201
18887TIP3    H178152   0.644   2.476  15.668 -1.5662 -0.0529  0.0345
18887TIP3    H278153   0.542   2.363  15.669  0.6922 -2.1970  1.6629
18888TIP3   OH278154   5.778   3.932   4.982 -0.0509  0.0623  0.3879
18888TIP3    H178155   5.835   3.885   5.043  0.8257 -0.1991 -0.6108
18888TIP3    H278156   5.761   3.869   4.912 -1.7052  0.0863  0.7205
18889TIP3   OH278157   3.800   6.482  17.003  0.0109 -0.0644  0.1930
18889TIP3    H178158   3.786   6.546  17.073 -0.9355  0.3239 -0.3221
18889TIP3    H278159   3.835   6.405  17.047  1.4758  0.8856  0.7978
18890TIP3   OH278160   3.903   0.904   0.106 -0.0536 -0.0179  0.1435
18890TIP3    H178161   3.839   0.833   0.109 -0.0304 -0.0337  0.2831
18890TIP3    H278162   3.931   0.908   0.015  1.1463 -1.2675  0.4315
18891TIP3   OH278163   1.050   2.339  11.609  0.6276  0.8143  0.1717
18891TIP3    H178164   1.074   2.361  11.519  1.7625  1.2635  0.5587
18891TIP3    H278165   1.133   2.341  11.657  0.0085  0.8701  1.2814
18892TIP3   OH278166   0.869   1.854   6.384  0.0315 -0.2225  0.1854
18892TIP3    H178167   0.841   1.794   6.452 -0.0861  0.1268  0.4476
18892TIP3    H278168   0.807   1.927   6.388  0.1911 -0.0659 -0.1039
18893TIP3   OH278169   0.794   2.399   4.552  0.4541 -0.1200  0.5703
18893TIP3    H178170   0.717   2.455   4.545  0.3626 -0.2675  0.3781
18893TIP3    H278171   0.866   2.452   4.517  0.2021 -0.4492 -0.4728
18894TIP3   OH278172   3.519   3.988  14.041  0.0803 -0.2625 -0.7373
18894TIP3    H178173   3.508   3.992  13.946  0.5229  0.5903 -0.7611
18894TIP3    H278174   3.553   4.075  14.065 -0.1136 -0.4382  0.2088
18895TIP3   OH278175   4.358   2.519   3.306  0.4216 -0.6908  0.3087
18895TIP3    H178176   4.348   2.531   3.211  0.7247  0.0044  0.3606
18895TIP3    H278177   4.268   2.522   3.340  0.4576  1.7213  0.3324
18896TIP3   OH278178   0.705   2.168   2.846 -0.5802  0.5408  0.4697
18896TIP3    H178179   0.778   2.217   2.884 -0.3682  0.4637  0.1601
18896TIP3    H278180   0.702   2.195   2.755  0.8571 -1.5231 -0.2735
18897TIP3   OH278181   1.951   1.204   4.667  0.2836  0.8271 -0.5203
18897TIP3    H178182   1.871   1.156   4.686  1.5315 -1.7090 -1.2049
18897TIP3    H278183   1.972   1.250   4.748 -1.1654  0.4835  0.0679
18898TIP3   OH278184   2.452   4.139  17.367 -0.2050 -0.1563 -0.1683
18898TIP3    H178185   2.459   4.180  17.281  1.3073  0.1132  0.0625
18898TIP3    H278186   2.540   4.105  17.385 -0.3877  0.1526  1.4472
18899TIP3   OH278187   3.118   2.905  14.136 -0.5409 -0.5190 -0.1292
18899TIP3    H178188   3.141   2.997  14.121 -1.0213 -0.3418  0.2058
18899TIP3    H278189   3.068   2.905  14.217  0.1104 -1.1825  0.2918
18900TIP3   OH278190   1.454   0.316  16.401  0.1818  0.0501  0.0880
18900TIP3    H178191   1.470   0.407  16.376 -1.5679  0.2598 -0.4304
18900TIP3    H278192   1.501   0.264  16.336 -2.3975  0.6069 -2.4407
18901TIP3   OH278193   6.303   6.299  15.328  0.1347  0.7476 -0.1666
18901TIP3    H178194   6.333   6.267  15.413 -0.8626  0.1767 -0.0026
18901TIP3    H278195   6.250   6.227  15.293  1.0720  0.7073 -1.5869
18902TIP3   OH278196   6.479   0.634  15.833 -0.6366  0.2407  0.1622
18902TIP3    H178197   6.507   0.553  15.876 -0.8763  0.1749  0.1935
18902TIP3    H278198   6.416   0.673  15.894 -0.1189  0.7253  0.4017
18903TIP3   OH278199   5.619   4.894   3.489 -1.0051  0.3791  0.5712
18903TIP3    H178200   5.670   4.957   3.540 -0.7638  0.3628  0.3488
18903TIP3    H278201   5.625   4.925   3.399 -2.5121  1.1627  0.6982
18904TIP3   OH278202   6.044   0.887   0.738  0.7099  0.4226 -0.5359
18904TIP3    H178203   6.021   0.822   0.672  2.0382  0.1974 -0.7908
18904TIP3    H278204   6.129   0.859   0.771  1.1701  1.8714 -0.4418
18905TIP3   OH278205   4.638   6.146  15.242  0.0437 -0.2433  0.4596
18905TIP3    H178206   4.711   6.091  15.271 -0.5068 -0.8660  0.6669
18905TIP3    H278207   4.666   6.236  15.262  0.4081 -0.5398  1.2839
18906TIP3   OH278208   4.749   2.963  13.668  0.0244 -0.4669 -0.0128
18906TIP3    H178209   4.705   3.047  13.679  1.1107  0.0611  0.4165
18906TIP3    H278210   4.797   2.972  13.586  1.3910 -0.0734  0.7982
18907TIP3   OH278211   3.396   1.471  15.909  0.3304 -0.0587  0.2397
18907TIP3    H178212   3.474   1.474  15.964  0.6908 -1.5087 -0.1369
18907TIP3    H278213   3.427   1.438  15.825 -0.7258 -1.0235  0.2043
18908TIP3   OH278214   1.870   3.551  13.674 -0.3508  0.4378 -0.1288
18908TIP3    H178215   1.878   3.621  13.609 -2.6790  1.3707  0.5014
18908TIP3    H278216   1.873   3.471  13.622  0.9043  1.0253 -1.0264
18909TIP3   OH278217   0.997   4.957  15.830  0.3226  0.3514  0.1555
18909TIP3    H178218   0.939   5.017  15.876  1.6187  0.9149  1.1281
18909TIP3    H278219   1.060   4.929  15.896  1.1869 -0.2008 -0.8665
18910TIP3   OH278220   0.060   5.890  14.621 -0.0167 -0.3090  0.4333
18910TIP3    H178221   0.068   5.916  14.529  1.0245 -0.6224  0.4226
18910TIP3    H278222   0.121   5.948  14.668 -1.3890  0.6483  1.1067
18911TIP3   OH278223   0.828   5.517   5.104  0.2619  0.1209 -0.4434
18911TIP3    H178224   0.908   5.496   5.153 -0.3072  1.6005  1.2010
18911TIP3    H278225   0.759   5.467   5.147 -0.3395  1.8656  0.7097
18912TIP3   OH278226   3.157   6.272   2.414 -0.1590 -0.2477  0.5824
18912TIP3    H178227   3.229   6.267   2.351 -0.0860 -1.8092  0.7339
18912TIP3    H278228   3.108   6.350   2.389  0.8026  0.0724 -0.3825
18913TIP3   OH278229   6.565   5.353  14.127 -0.4818 -0.3722  0.5225
18913TIP3    H178230   6.598   5.389  14.209 -0.1522  1.7706 -0.4801
18913TIP3    H278231   6.483   5.400  14.111 -1.3663 -1.8969  0.3800
18914TIP3   OH278232   5.884   2.026  13.498 -0.2002  0.0450  0.1378
18914TIP3    H178233   5.828   2.037  13.421 -0.2526 -1.5297 -0.0834
18914TIP3    H278234   5.910   1.934  13.495  0.5589  0.1999  1.4956
18915TIP3   OH278235   3.603   4.310  16.137 -0.2865  0.1361 -0.6801
18915TIP3    H178236   3.647   4.390  16.165 -0.7839  0.2226 -0.1275
18915TIP3    H278237   3.636   4.295  16.048 -0.1548  0.9222 -0.7739
18916TIP3   OH278238   4.927   0.761  14.162 -0.4767  0.9387 -0.5168
18916TIP3    H178239   4.868   0.695  14.199 -1.4321 -0.0521 -3.4782
18916TIP3    H278240   4.893   0.845  14.195  0.8649  0.1013  3.4560
18917TIP3   OH278241   1.124   5.304  13.620 -0.2631  0.3657 -0.2443
18917TIP3    H178242   1.070   5.250  13.562  0.0603 -0.2721  0.0407
18917TIP3    H278243   1.066   5.377  13.644 -0.9314 -0.1819 -0.1348
18918TIP3   OH278244   4.167   1.101  15.918 -0.1441 -0.5031  0.4929
18918TIP3    H178245   4.126   1.074  16.000 -3.1906  0.5898 -0.5446
18918TIP3    H278246   4.201   1.020  15.881  0.2284 -1.1964  2.2228
18919TIP3   OH278247   3.511   0.569  14.793 -0.2089 -0.1887  0.1217
18919TIP3    H178248   3.564   0.571  14.872  0.0849 -1.4331 -0.0303
18919TIP3    H278249   3.421   0.561  14.824 -0.2419  0.9508  0.3552
18920TIP3   OH278250   0.499   2.920  11.048  0.2065 -0.7135 -0.0096
18920TIP3    H178251   0.484   2.928  10.953 -0.8509 -3.7243 -0.1898
18920TIP3    H278252   0.571   2.858  11.055  1.6932  1.0322  1.2219
18921TIP3   OH278253   1.296   3.029  13.153 -0.1924 -0.1399  0.4941
18921TIP3    H178254   1.252   2.950  13.182 -1.9432  0.8540  0.7048
18921TIP3    H278255   1.253   3.052  13.070  2.1870 -0.8830 -1.0439
18922TIP3   OH278256   0.040   5.315   3.820 -0.9815  0.6752  0.3407
18922TIP3    H178257   0.113   5.295   3.761 -1.1501  1.8482 -0.2976
18922TIP3    H278258   0.078   5.375   3.885 -0.1490 -2.4135  2.9894
18923TIP3   OH278259   5.554   0.103  16.340  0.5290 -0.0351  0.2327
18923TIP3    H178260   5.459   0.116  16.343  0.3572 -0.4947 -1.6387
18923TIP3    H278261   5.589   0.189  16.317  0.2656 -0.4883 -2.0708
18924TIP3   OH278262   6.504   6.181  13.541 -0.1540  0.7808  0.3668
18924TIP3    H178263   6.442   6.108  13.550 -0.1684  0.9113  1.4599
18924TIP3    H278264   6.496   6.230  13.623  1.2544  0.9076  0.4585
18925TIP3   OH278265   1.451   2.143   4.197  0.1920  0.3031 -0.0404
18925TIP3    H178266   1.514   2.204   4.159 -1.4273  2.6581  0.8258
18925TIP3    H278267   1.376   2.146   4.137 -0.2435 -0.1670  0.4663
18926TIP3   OH278268   2.212   4.269  15.505 -0.2582  0.1218 -0.1970
18926TIP3    H178269   2.268   4.324  15.559 -0.7620 -0.0685  0.5352
18926TIP3    H278270   2.240   4.179  15.526  1.6821  0.0699 -2.5879
18927TIP3   OH278271   4.694   1.557  16.285 -0.3088  0.1577  0.5599
18927TIP3    H178272   4.611   1.512  16.296  0.0813 -0.7465 -0.0889
18927TIP3    H278273   4.748   1.497  16.233  0.9894  0.4137  1.5416
18928TIP3   OH278274   2.714   0.777  13.598  0.4940  0.1950  0.2447
18928TIP3    H178275   2.673   0.733  13.672  0.2241 -1.1249 -0.6694
18928TIP3    H278276   2.709   0.870  13.620 -3.2040  0.1716  0.1065
18929TIP3   OH278277   5.059   0.278  16.486 -0.1086  0.1658 -0.9818
18929TIP3    H178278   5.074   0.188  16.457 -0.2400  0.4376 -1.9301
18929TIP3    H278279   4.966   0.294  16.465  0.4094  1.1799 -2.7331
18930TIP3   OH278280   0.980   2.064   1.697  0.3186  0.3860  0.1631
18930TIP3    H178281   0.968   2.159   1.695 -1.6693  0.1988  0.8596
18930TIP3    H278282   0.950   2.034   1.611 -0.5356  0.2724  0.4901
18931TIP3   OH278283   4.666   2.691  13.940 -0.6011  0.2884 -0.5931
18931TIP3    H178284   4.634   2.638  13.867  1.1065 -2.2947  0.3847
18931TIP3    H278285   4.587   2.721  13.985 -1.6556  0.4388 -2.4542
18932TIP3   OH278286   0.720   2.420   0.432 -0.0010  0.3239 -0.6790
18932TIP3    H178287   0.678   2.452   0.352 -0.4976  1.8564  0.1493
18932TIP3    H278288   0.800   2.473   0.439  0.3335 -0.2046 -0.4525
18933TIP3   OH278289   6.325   4.264  13.271 -0.0105 -0.2243 -0.3955
18933TIP3    H178290   6.266   4.278  13.345 -0.8086 -1.5808 -0.7286
18933TIP3    H278291   6.326   4.348  13.224  0.4950  0.6460  1.1126
18934TIP3   OH278292   1.810   6.220   3.531  0.0462  0.0081 -0.2806
18934TIP3    H178293   1.818   6.142   3.585  1.4559 -1.2126 -2.1224
18934TIP3    H278294   1.722   6.215   3.493 -0.1025 -0.3392  0.1123
18935TIP3   OH278295   4.724   2.981  16.151 -0.1278  0.4413 -0.2376
18935TIP3    H178296   4.694   3.061  16.193 -1.5647  0.1698 -0.6871
18935TIP3    H278297   4.662   2.914  16.180  0.9400 -0.4665 -0.0210
18936TIP3   OH278298   2.509   5.416   3.014 -0.2139 -0.8824  0.1165
18936TIP3    H178299   2.449   5.346   3.041 -0.8254  0.2468  1.8624
18936TIP3    H278300   2.575   5.420   3.083 -1.7584  2.0196  1.6627
18937TIP3   OH278301   3.853   2.080  16.239  0.0849 -0.2563 -0.2863
18937TIP3    H178302   3.788   2.089  16.309 -1.0832  1.1223 -1.4669
18937TIP3    H278303   3.873   2.170  16.214  0.6194 -0.7198 -1.5798
18938TIP3   OH278304   3.895   1.834   2.332 -0.3775 -0.1836 -0.3337
18938TIP3    H178305   3.925   1.775   2.263 -0.5550 -1.0304  0.2942
18938TIP3    H278306   3.974   1.852   2.384 -0.5364 -0.7445  0.1070
18939TIP3   OH278307   2.339   3.795   4.933  0.1058 -0.2733 -0.6108
18939TIP3    H178308   2.320   3.862   4.867 -0.0304 -0.6680 -0.9734
18939TIP3    H278309   2.264   3.736   4.931 -0.4427  0.3430  0.7075
18940TIP3   OH278310   2.921   4.185   6.612 -0.0423 -0.2851 -0.2455
18940TIP3    H178311   2.970   4.103   6.619  1.5897  0.6028 -0.7403
18940TIP3    H278312   2.846   4.173   6.671  0.4783 -1.8895  0.1434
18941TIP3   OH278313   6.681   2.755  16.178 -0.2674 -0.4304  0.0252
18941TIP3    H178314   6.669   2.845  16.147 -0.3260 -0.7226 -0.8189
18941TIP3    H278315   6.715   2.765  16.267  1.4636  0.4467 -0.6878
18942TIP3   OH278316   6.129   6.353  13.584 -0.0017 -0.5243  0.5150
18942TIP3    H178317   6.099   6.285  13.644 -1.2929  0.1571  0.6706
18942TIP3    H278318   6.144   6.308  13.501  0.1972 -1.1755  0.8987
18943TIP3   OH278319   2.991   0.718   4.431  0.2718  0.0690 -0.1581
18943TIP3    H178320   3.030   0.634   4.408 -0.2135  0.0257 -0.8372
18943TIP3    H278321   3.053   0.783   4.399  0.2257 -0.0163 -0.4223
18944TIP3   OH278322   6.201   0.450   4.505 -0.3966  0.0239 -0.0402
18944TIP3    H178323   6.115   0.453   4.462  0.5366  0.3024 -2.0239
18944TIP3    H278324   6.195   0.516   4.574 -1.3753  1.0234 -1.0224
18945TIP3   OH278325   3.675   3.093   1.124  0.5900 -0.4949 -0.0237
18945TIP3    H178326   3.730   3.171   1.123  0.3998 -0.3227  0.9680
18945TIP3    H278327   3.679   3.063   1.215  0.2461 -1.3414 -0.2790
18946TIP3   OH278328   0.848   0.966  12.805 -0.2240 -0.3833 -0.4242
18946TIP3    H178329   0.884   0.964  12.893  0.0594 -0.3359 -0.5387
18946TIP3    H278330   0.755   0.947  12.817 -0.3246  0.2843 -0.0410
18947TIP3   OH278331   0.996   4.308  12.134 -0.3351 -0.0589 -0.2800
18947TIP3    H178332   1.014   4.304  12.228 -0.0372  1.2333 -0.2646
18947TIP3    H278333   1.058   4.247  12.095  2.5253  2.4412  0.0057
18948TIP3   OH278334   3.561   1.090   2.807 -0.1377 -0.2037  0.3257
18948TIP3    H178335   3.480   1.060   2.765 -0.5151 -1.7797  2.0336
18948TIP3    H278336   3.539   1.176   2.843  0.0423  0.9481 -2.0980
18949TIP3   OH278337   0.890   3.690  14.610 -0.4377 -0.3684 -0.0961
18949TIP3    H178338   0.910   3.775  14.570  0.2428 -1.5000 -2.3626
18949TIP3    H278339   0.795   3.681  14.601 -0.7918  0.8597  1.8052
18950TIP3   OH278340   4.512   5.277   6.025  0.7797  0.2341  0.8243
18950TIP3    H178341   4.527   5.267   5.931  1.9404 -1.3892  1.1429
18950TIP3    H278342   4.507   5.372   6.039 -1.4347  0.4981 -1.1386
18951TIP3   OH278343   4.877   1.967   3.353 -0.0997 -0.2214 -0.2078
18951TIP3    H178344   4.893   1.883   3.396 -2.7874 -2.3001 -2.8055
18951TIP3    H278345   4.788   1.991   3.380 -0.4048  0.3087 -1.5713
18952TIP3   OH278346   3.868   4.458   3.955  0.1297  0.6111 -0.2953
18952TIP3    H178347   3.780   4.423   3.971  0.6836 -0.5400  0.3253
18952TIP3    H278348   3.890   4.426   3.867  0.2957  0.1206 -0.0754
18953TIP3   OH278349   0.890   3.957   0.193  0.2470 -0.3551 -0.2981
18953TIP3    H178350   0.860   4.032   0.141 -0.1418  2.3686  3.4324
18953TIP3    H278351   0.824   3.890   0.178 -1.6742  1.5231 -0.7361
18954TIP3   OH278352   4.432   4.030   1.751  0.1144  0.3240 -0.1066
18954TIP3    H178353   4.463   4.060   1.837 -0.6428 -0.4217  0.4417
18954TIP3    H278354   4.355   4.085   1.733  0.2319  0.4322 -0.2770
18955TIP3   OH278355   5.027   3.391   1.707 -0.2860  0.4329  0.0593
18955TIP3    H178356   4.963   3.319   1.704 -0.2923  0.2580  2.3218
18955TIP3    H278357   5.058   3.391   1.798  1.2029  2.0305 -0.3986
18956TIP3   OH278358   4.623   3.489  12.925 -0.1420 -0.0030  0.4339
18956TIP3    H178359   4.633   3.481  12.830  1.3404 -2.6485  0.7135
18956TIP3    H278360   4.689   3.553  12.951  1.8720 -1.7801 -0.0362
18957TIP3   OH278361   3.684   4.712   4.850  0.1498 -0.3001  0.3329
18957TIP3    H178362   3.613   4.735   4.909  0.6266  0.3048  0.6820
18957TIP3    H278363   3.737   4.791   4.844  0.3046 -0.4648 -0.6328
18958TIP3   OH278364   4.146   2.921   4.770 -0.0255  0.4833  0.7926
18958TIP3    H178365   4.233   2.933   4.731  0.9113  1.4074  3.0402
18958TIP3    H278366   4.121   3.007   4.802 -3.3630  1.0783 -2.6488
18959TIP3   OH278367   6.729   2.763  16.464 -0.2474 -0.7557  0.9166
18959TIP3    H178368   6.704   2.852  16.491  1.1792  0.5859 -1.7491
18959TIP3    H278369   6.693   2.706  16.531 -2.6911  1.7013  1.8579
18960TIP3   OH278370   0.043   1.359  12.163 -0.2650  0.6408  0.0493
18960TIP3    H178371   0.098   1.435  12.182  0.0187  0.0330  1.9439
18960TIP3    H278372  -0.046   1.394  12.157 -0.0070  1.2627 -0.1938
18961TIP3   OH278373   5.405   4.478  15.799 -0.0077 -0.2979 -0.0242
18961TIP3    H178374   5.456   4.557  15.815 -0.1159  0.2260 -1.9471
18961TIP3    H278375   5.438   4.444  15.716  0.3558 -2.5824  0.9741
18962TIP3   OH278376   1.122   3.924   3.884  0.1321  0.5118 -0.2455
18962TIP3    H178377   1.214   3.950   3.888 -0.0313  1.0146  0.6387
18962TIP3    H278378   1.075   4.000   3.919 -0.4522 -0.4852  1.2627
18963TIP3   OH278379   6.471   1.609   6.382 -0.3916  0.3147  0.2064
18963TIP3    H178380   6.546   1.608   6.322  0.2186  0.3457  0.9655
18963TIP3    H278381   6.449   1.702   6.391 -0.3750  0.3226  0.1655
18964TIP3   OH278382   3.421   4.075  14.419  0.0857 -0.1894  0.3566
18964TIP3    H178383   3.406   3.985  14.445  1.7238 -0.7596 -0.5631
18964TIP3    H278384   3.371   4.086  14.338 -1.5245  0.2945  1.3696
18965TIP3   OH278385   5.828   5.483  12.568  0.0836 -0.6585  0.4232
18965TIP3    H178386   5.791   5.513  12.485  1.4091 -0.5326 -0.1521
18965TIP3    H278387   5.914   5.524  12.571  0.6728 -1.9196  1.1151
18966TIP3   OH278388   0.612   2.046   4.450  0.6382 -0.3214 -0.8565
18966TIP3    H178389   0.681   1.980   4.453  1.4746  0.5511 -0.1893
18966TIP3    H278390   0.654   2.123   4.410  0.2337  0.4124  0.0987
18967TIP3   OH278391   4.097   4.114  10.742 -0.1017 -0.7049 -0.2731
18967TIP3    H178392   4.072   4.180  10.677  1.1979 -0.0280 -0.1234
18967TIP3    H278393   4.040   4.132  10.818  0.8517  0.8597  0.1065
18968TIP3   OH278394   4.087   1.994   1.863  0.1799 -0.2602  1.1099
18968TIP3    H178395   4.098   1.976   1.956  0.1523  0.0183  1.1708
18968TIP3    H278396   4.175   2.019   1.833  0.4474 -1.5422  0.7812
18969TIP3   OH278397   6.559   3.173   6.409 -0.1615 -0.4868  0.7568
18969TIP3    H178398   6.492   3.132   6.465  0.5612 -0.4619  1.6748
18969TIP3    H278399   6.618   3.217   6.471  0.6541 -0.4356 -0.0361
18970TIP3   OH278400   0.082   3.384   4.347  0.0460 -0.3504 -0.7487
18970TIP3    H178401   0.079   3.466   4.397  1.3892 -0.9773  0.4673
18970TIP3    H278402   0.046   3.406   4.262 -0.2706  1.3315 -0.2196
18971TIP3   OH278403   3.237   0.038   2.962  0.1931  0.8269  0.2424
18971TIP3    H178404   3.185   0.098   3.015 -1.1474 -0.7329  0.7669
18971TIP3    H278405   3.203   0.048   2.874 -1.7362 -0.8460  0.7300
18972TIP3   OH278406   6.572   6.314  15.739 -0.2825 -0.9350 -0.4481
18972TIP3    H178407   6.599   6.406  15.741 -0.1629 -0.9760  0.0491
18972TIP3    H278408   6.623   6.273  15.809 -2.1787 -0.8697  1.0408
18973TIP3   OH278409   2.908   5.592  16.480 -0.1341  0.4499 -0.3362
18973TIP3    H178410   2.852   5.622  16.409 -0.5643  1.8061  0.5399
18973TIP3    H278411   2.996   5.589  16.441 -0.7657 -1.8013 -1.7509
18974TIP3   OH278412   5.969   5.772  16.945 -0.3242 -0.6487 -0.1030
18974TIP3    H178413   6.062   5.755  16.930 -0.0631  0.6828 -0.1400
18974TIP3    H278414   5.942   5.822  16.867 -0.8021 -0.1478  0.3811
18975TIP3   OH278415   3.653   4.791  13.322 -0.0069 -0.2659 -0.1589
18975TIP3    H178416   3.726   4.849  13.343 -2.2543  2.4715  0.6871
18975TIP3    H278417   3.666   4.715  13.380  1.9382  0.2724  0.1899
18976TIP3   OH278418   4.047   1.665  14.887 -0.2774  0.0827 -0.2557
18976TIP3    H178419   3.952   1.670  14.877 -0.3417  0.0947  0.3159
18976TIP3    H278420   4.071   1.581  14.849 -0.2019  1.1109 -2.6226
18977TIP3   OH278421   4.820   3.874   1.152  0.1266  0.3623 -0.3885
18977TIP3    H178422   4.883   3.808   1.181 -0.5081 -0.6866 -1.3214
18977TIP3    H278423   4.801   3.850   1.061  1.3215  2.9734 -1.4241
18978TIP3   OH278424   4.267   6.385   3.841 -0.0442  0.1618 -0.0404
18978TIP3    H178425   4.234   6.417   3.757  1.6470  0.4337 -0.6372
18978TIP3    H278426   4.353   6.425   3.850  0.8443 -1.7904  0.6633
18979TIP3   OH278427   6.001   0.412   5.826  0.1145  0.0231  0.4381
18979TIP3    H178428   5.935   0.350   5.794  0.4766 -0.1145 -0.0563
18979TIP3    H278429   6.082   0.361   5.832  0.5256  0.5474 -0.4417
18980TIP3   OH278430   1.790   2.399   4.518  0.4120  0.0598 -0.2566
18980TIP3    H178431   1.707   2.352   4.510  0.2711  0.5810 -2.6524
18980TIP3    H278432   1.831   2.388   4.432  2.7109  0.0742  0.7659
18981TIP3   OH278433   2.370   4.833   0.825 -0.1218  0.0157 -0.0769
18981TIP3    H178434   2.312   4.757   0.821 -1.7253  1.1700  0.0126
18981TIP3    H278435   2.450   4.801   0.865 -1.0003 -1.4795  0.5526
18982TIP3   OH278436   3.073   2.992  15.713 -0.2460 -0.0267 -0.2615
18982TIP3    H178437   3.161   2.987  15.675 -0.4613 -1.4279 -0.6506
18982TIP3    H278438   3.078   3.063  15.777  1.8950 -1.7209  1.5989
18983TIP3   OH278439   1.065   4.729   3.918 -0.0819  0.7551  0.3939
18983TIP3    H178440   1.090   4.695   4.004 -1.0430  1.1626  0.8467
18983TIP3    H278441   1.147   4.754   3.877  0.4910 -0.4757  0.7460
18984TIP3   OH278442   1.206   4.895   0.856 -0.6315  0.1688 -0.3454
18984TIP3    H178443   1.155   4.972   0.835 -1.4831 -0.5914 -1.1392
18984TIP3    H278444   1.144   4.835   0.897 -0.1859 -0.4391 -0.5410
18985TIP3   OH278445   2.469   4.492   0.675  0.2195 -0.0301 -0.4133
18985TIP3    H178446   2.470   4.423   0.609  0.4953  0.4180 -0.8844
18985TIP3    H278447   2.388   4.477   0.724 -0.4420  0.1623 -1.4220
18986TIP3   OH278448   3.845   6.143  12.114  0.3934 -0.4014 -0.7711
18986TIP3    H178449   3.874   6.155  12.205  0.0564 -0.2752 -0.6804
18986TIP3    H278450   3.809   6.228  12.089  1.1217 -0.2262 -1.2576
18987TIP3   OH278451   2.665   4.239   2.406  0.2085  0.5834 -0.0264
18987TIP3    H178452   2.722   4.163   2.394 -0.1667  0.5133 -1.5879
18987TIP3    H278453   2.578   4.208   2.382 -0.1639  1.2062  0.4726
18988TIP3   OH278454   2.851   0.226   0.253 -0.5408 -0.0711 -0.5436
18988TIP3    H178455   2.857   0.224   0.349 -0.5001 -0.2605 -0.5505
18988TIP3    H278456   2.812   0.142   0.230  1.6385 -1.0670 -0.8596
18989TIP3   OH278457   0.294   1.440  16.340 -0.3498 -0.2171  0.1755
18989TIP3    H178458   0.207   1.447  16.380 -1.0433 -0.5590 -1.2079
18989TIP3    H278459   0.355   1.447  16.414 -1.5901 -2.9733  1.6247
18990TIP3   OH278460   3.856   0.144  15.399  0.8932 -0.2942 -0.3955
18990TIP3    H178461   3.778   0.198  15.413  2.0774  1.0095  1.5705
18990TIP3    H278462   3.924   0.206  15.373  1.6116 -1.2235 -0.7700
18991TIP3   OH278463   3.385   4.339  16.496  0.3773 -0.2841  0.7776
18991TIP3    H178464   3.345   4.360  16.412  1.7297 -0.6307  0.0153
18991TIP3    H278465   3.440   4.415  16.517  0.6573 -0.5301  0.9541
18992TIP3   OH278466   0.834   5.640  11.759  0.0937 -0.5032  0.0023
18992TIP3    H178467   0.832   5.568  11.695  1.3391  0.2558 -0.9301
18992TIP3    H278468   0.905   5.617  11.819 -0.1519 -0.5138  0.2945
18993TIP3   OH278469   0.836   3.125  15.036  0.3417 -0.9556  0.1672
18993TIP3    H178470   0.762   3.075  15.070  0.9416 -1.6582  0.4645
18993TIP3    H278471   0.910   3.100  15.092  0.7044  0.0867  0.1710
18994TIP3   OH278472   0.932   1.543  17.069  0.5539 -0.4235 -0.0245
18994TIP3    H178473   0.949   1.546  16.975  0.4062  1.4617 -0.0407
18994TIP3    H278474   0.927   1.635  17.095 -1.0182 -0.8925  1.5394
18995TIP3   OH278475   1.132   4.087   0.695 -0.8792  0.4143 -0.0451
18995TIP3    H178476   1.088   4.071   0.612 -1.0948 -0.3755  0.2100
18995TIP3    H278477   1.074   4.145   0.743 -1.9450 -1.0365  0.5040
18996TIP3   OH278478   4.877   2.518  11.936 -0.7004  0.0125  0.3408
18996TIP3    H178479   4.855   2.598  11.984  0.4756  0.4285  0.2378
18996TIP3    H278480   4.942   2.474  11.991 -0.6246 -0.3747 -0.0505
18997TIP3   OH278481   0.074   4.915  15.479 -0.3990  0.0718 -0.7063
18997TIP3    H178482   0.029   4.832  15.492  1.8637 -1.2273 -0.6802
18997TIP3    H278483   0.094   4.945  15.568  2.0693 -1.3210 -0.7182
18998TIP3   OH278484   1.357   1.007  15.331  0.0834  0.5909  0.3946
18998TIP3    H178485   1.416   1.031  15.402  0.1560 -0.7089  0.8030
18998TIP3    H278486   1.285   0.959  15.375 -0.3903  0.6672 -0.2857
18999TIP3   OH278487   5.254   5.996  14.582  0.0157 -0.0030  0.3443
18999TIP3    H178488   5.258   6.091  14.566 -0.4635  0.4931  2.7867
18999TIP3    H278489   5.265   5.957  14.496  0.7884  2.2673 -0.6638
19000TIP3   OH278490   1.247   1.246  16.008 -0.2565 -0.4185 -0.6576
19000TIP3    H178491   1.180   1.302  16.049  1.9288  0.6494  1.7840
19000TIP3    H278492   1.201   1.165  15.986 -2.2935  0.1379  1.1764
19001TIP3   OH278493   3.571   6.044  12.740  0.7611 -0.5798  0.1219
19001TIP3    H178494   3.623   5.975  12.699  0.2339 -0.9504  0.0666
19001TIP3    H278495   3.488   6.043  12.693  0.7362  0.0728  0.1419
19002TIP3   OH278496   3.852   0.423   0.135  0.0020 -0.3753 -0.1203
19002TIP3    H178497   3.919   0.396   0.198  0.4553 -1.1039 -0.9006
19002TIP3    H278498   3.902   0.455   0.060 -0.5242 -0.7466 -0.6332
19003TIP3   OH278499   1.192   5.127  12.384 -0.0359 -0.2312 -0.0099
19003TIP3    H178500   1.187   5.054  12.446 -0.3371  0.2421  0.5302
19003TIP3    H278501   1.282   5.160  12.393 -0.6892  1.2251  1.8083
19004TIP3   OH278502   6.485   0.165   5.339  0.6224  0.4025  0.3207
19004TIP3    H178503   6.469   0.107   5.414 -0.6826  0.0049 -0.2379
19004TIP3    H278504   6.554   0.122   5.289  1.9365  0.9653  1.5787
19005TIP3   OH278505   2.410   3.327  12.022 -0.5024  0.0965 -0.0195
19005TIP3    H178506   2.377   3.261  12.082 -2.5306 -1.7262 -2.8398
19005TIP3    H278507   2.368   3.408  12.049 -1.4870 -0.6981  0.8992
19006TIP3   OH278508   6.382   1.454  12.544 -0.1091 -0.9961  0.4977
19006TIP3    H178509   6.441   1.519  12.584 -0.8045 -0.2636  0.3535
19006TIP3    H278510   6.440   1.381  12.521  0.8251 -0.1167 -0.0382
19007TIP3   OH278511   0.244   1.665  15.026 -0.2813  0.4129 -0.6277
19007TIP3    H178512   0.232   1.586  15.080 -0.3926  0.1448 -1.0325
19007TIP3    H278513   0.193   1.732  15.071 -2.3696 -0.3873 -1.6114
19008TIP3   OH278514   3.422   1.707  16.923 -0.0045 -0.5217  0.6906
19008TIP3    H178515   3.507   1.669  16.947  1.7509  2.2158 -0.6920
19008TIP3    H278516   3.409   1.777  16.987 -0.8222 -0.3559  0.3499
19009TIP3   OH278517   5.701   0.433  15.904 -0.5238  0.2160 -0.0620
19009TIP3    H178518   5.706   0.505  15.842 -0.1747 -0.9812 -1.4920
19009TIP3    H278519   5.779   0.442  15.958  1.0228 -0.6137 -2.0311
19010TIP3   OH278520   0.042   6.556  15.981  0.4661 -0.1991  0.0094
19010TIP3    H178521  -0.044   6.526  16.012  0.5327 -2.4150 -1.7211
19010TIP3    H278522   0.105   6.506  16.033  0.6290 -0.7733 -0.7175
19011TIP3   OH278523   3.870   2.492   1.112  0.8138 -0.0444  0.2547
19011TIP3    H178524   3.918   2.563   1.153  1.8496 -0.9112  0.5748
19011TIP3    H278525   3.867   2.516   1.019  1.4258  0.2592  0.3112
19012TIP3   OH278526   1.008   6.307  14.005 -0.0617  0.4394 -0.2531
19012TIP3    H178527   0.957   6.313  14.086 -3.1240  0.7857 -2.0552
19012TIP3    H278528   1.015   6.213  13.988 -1.8781  0.3981 -0.9558
19013TIP3   OH278529   0.689   5.294   2.419 -0.0433 -0.5161  0.1396
19013TIP3    H178530   0.665   5.259   2.333  0.1218 -1.4854  0.4731
19013TIP3    H278531   0.779   5.264   2.432  0.4408  0.8157  0.0561
19014TIP3   OH278532   5.589   2.507   2.652 -0.8191 -0.0047 -0.1338
19014TIP3    H178533   5.630   2.435   2.701 -0.3077 -0.7214 -1.5792
19014TIP3    H278534   5.630   2.586   2.688  1.9942 -0.6752 -1.5435
19015TIP3   OH278535   3.257   3.552  14.368 -0.2455  0.1729 -0.6646
19015TIP3    H178536   3.299   3.517  14.288 -0.7630 -1.7734 -0.1444
19015TIP3    H278537   3.167   3.521  14.363 -0.1080 -0.6341  0.9926
19016TIP3   OH278538   6.586   4.647   1.838 -0.0683  0.5728  0.6068
19016TIP3    H178539   6.651   4.710   1.867 -2.1387  2.2517  1.9788
19016TIP3    H278540   6.565   4.596   1.916 -0.5715  0.2251  0.2548
19017TIP3   OH278541   5.248   5.100   6.933  0.3357  0.2216 -0.8021
19017TIP3    H178542   5.206   5.027   6.886  1.1798 -1.1848  0.5396
19017TIP3    H278543   5.340   5.095   6.908  0.8676 -0.7487  1.1472
19018TIP3   OH278544   5.013   4.523  15.942 -0.1802 -0.0340 -0.2041
19018TIP3    H178545   4.964   4.603  15.922 -2.8515 -1.3395  0.6164
19018TIP3    H278546   5.003   4.512  16.036 -0.6347 -1.7505 -0.4137
19019TIP3   OH278547   5.698   6.419  14.151  0.1464 -0.6594 -0.6461
19019TIP3    H178548   5.641   6.487  14.115  0.4601 -0.0861 -0.0867
19019TIP3    H278549   5.697   6.435  14.245 -1.0459 -2.4249 -0.3107
19020TIP3   OH278550   5.864   6.434  11.886  0.2604  0.2099 -0.0901
19020TIP3    H178551   5.878   6.360  11.945 -1.1804  0.8231  1.0753
19020TIP3    H278552   5.946   6.440  11.837  1.1274 -0.9631  1.1187
19021TIP3   OH278553   6.351   4.630   0.746  0.4300 -0.4646 -0.2359
19021TIP3    H178554   6.309   4.699   0.695 -0.2071 -1.3755 -0.9796
19021TIP3    H278555   6.422   4.599   0.690  1.0620 -0.0540  0.3250
19022TIP3   OH278556   0.900   0.966  16.516  0.1023  0.1262 -0.3444
19022TIP3    H178557   0.821   0.920  16.544  1.5224 -0.5411  3.1969
19022TIP3    H278558   0.889   1.054  16.552 -0.1129  0.8440 -2.1089
19023TIP3   OH278559   5.867   2.869   1.379  0.0105  0.1871  0.4215
19023TIP3    H178560   5.776   2.849   1.356  0.7185 -1.7986 -0.9533
19023TIP3    H278561   5.892   2.800   1.439  1.0168 -0.1430 -0.3544
19024TIP3   OH278562   4.831   4.718   6.269 -0.0985 -0.0487 -0.1846
19024TIP3    H178563   4.906   4.753   6.316 -1.2268  0.8299  1.0256
19024TIP3    H278564   4.837   4.757   6.181  1.3556 -0.7519 -0.4251
19025TIP3   OH278565   3.924   3.346   2.262 -0.0078  0.3846  0.2601
19025TIP3    H178566   3.997   3.326   2.320 -1.1238 -1.0986  1.2429
19025TIP3    H278567   3.936   3.288   2.187 -0.0388  0.3180  0.3063
19026TIP3   OH278568   0.855   6.029  15.862  0.9693  0.2227  0.1329
19026TIP3    H178569   0.784   6.051  15.800 -0.3254 -2.1139  0.6671
19026TIP3    H278570   0.933   6.024  15.807  0.9362  3.2883 -0.4183
19027TIP3   OH278571   1.681   1.710  10.836  0.3634 -0.2532  1.0024
19027TIP3    H178572   1.603   1.765  10.831  1.0539  0.6896 -0.1654
19027TIP3    H278573   1.649   1.621  10.825 -0.3466  0.2970 -2.5743
19028TIP3   OH278574   2.144   6.433   2.234  0.3389  0.7381  0.5254
19028TIP3    H178575   2.201   6.357   2.247 -1.3456 -0.8986 -1.0537
19028TIP3    H278576   2.188   6.483   2.165 -0.2653 -0.7877 -1.0598
19029TIP3   OH278577   4.193   3.728  14.927  0.0943  0.0358  0.3009
19029TIP3    H178578   4.235   3.649  14.894  0.0156  0.5995 -1.2344
19029TIP3    H278579   4.136   3.698  14.997  1.8099 -0.9547  1.3403
19030TIP3   OH278580   5.973   2.533   4.682 -0.5827 -0.3931  0.4625
19030TIP3    H178581   5.966   2.595   4.755 -1.3407 -0.4107  0.4139
19030TIP3    H278582   5.909   2.464   4.703 -1.4839  0.0687 -0.6666
19031TIP3   OH278583   5.455   2.167  16.939  0.5514 -0.0754  0.2759
19031TIP3    H178584   5.431   2.202  17.025  0.0968 -2.6096  1.2912
19031TIP3    H278585   5.548   2.188  16.930  0.4774  0.7165  1.1338
19032TIP3   OH278586   1.508   1.243   0.956 -0.2383  0.2515 -0.3184
19032TIP3    H178587   1.557   1.209   0.881  0.9628 -0.5389  0.7937
19032TIP3    H278588   1.551   1.326   0.977 -0.1035  0.1048 -0.0268
19033TIP3   OH278589   2.798   6.005   5.717 -0.7396  0.1627  0.0876
19033TIP3    H178590   2.859   6.071   5.685 -1.2063  1.0853  1.0480
19033TIP3    H278591   2.808   6.007   5.812 -2.7576  0.8503  0.3285
19034TIP3   OH278592   1.227   2.498  12.976  0.2897 -0.2372  0.0035
19034TIP3    H178593   1.137   2.472  12.956  0.3880  0.5646 -1.7046
19034TIP3    H278594   1.227   2.593  12.964  1.4176 -0.2638 -0.3021
19035TIP3   OH278595   3.812   5.980  14.513  0.2239  0.3563 -0.0477
19035TIP3    H178596   3.730   6.022  14.486 -0.3420 -0.0511  0.9734
19035TIP3    H278597   3.806   5.976  14.609  1.5002  0.4261  0.0447
19036TIP3   OH278598   3.117   1.806  12.899  0.2928  0.4837  0.1862
19036TIP3    H178599   3.153   1.800  12.987 -0.1072  0.0486  0.3251
19036TIP3    H278600   3.075   1.892  12.896  0.0027  0.3571  0.5373
19037TIP3   OH278601   4.096   1.492   2.544 -0.1058  0.4426 -0.3581
19037TIP3    H178602   4.181   1.461   2.577  0.5214  1.8586 -0.5929
19037TIP3    H278603   4.050   1.524   2.622 -0.1780  0.2526 -0.3215
19038TIP3   OH278604   6.048   6.210   4.187  0.0641 -0.6252 -0.1375
19038TIP3    H178605   6.004   6.255   4.115 -1.9417 -1.1535  0.6838
19038TIP3    H278606   6.022   6.119   4.178  1.1773 -1.0031  0.2886
19039TIP3   OH278607   4.992   2.715   0.775 -0.6182 -0.0492  0.4233
19039TIP3    H178608   4.917   2.713   0.834 -0.8390  1.2509  0.2094
19039TIP3    H278609   4.961   2.762   0.698 -0.2080 -1.3598 -0.5797
19040TIP3   OH278610   2.732   2.157   5.638 -0.2043 -0.4558  0.5344
19040TIP3    H178611   2.764   2.092   5.576  0.8642 -0.0050  0.5866
19040TIP3    H278612   2.741   2.115   5.724  0.6887 -0.1702  0.5861
19041TIP3   OH278613   6.737   5.819  12.963 -0.1672  0.2314 -0.2585
19041TIP3    H178614   6.806   5.770  12.919 -0.6778 -0.0501 -0.7651
19041TIP3    H278615   6.697   5.755  13.023  1.3927  0.9659  1.6479
19042TIP3   OH278616   2.099   2.407   2.349  0.2052 -0.1772 -0.5625
19042TIP3    H178617   2.005   2.424   2.354 -0.0097 -1.4501  0.5921
19042TIP3    H278618   2.138   2.467   2.413 -0.1717 -1.4829  0.9841
19043TIP3   OH278619   0.489   4.603   6.132 -0.5416  0.3774 -0.2245
19043TIP3    H178620   0.511   4.695   6.119 -1.6540  1.1485  2.5655
19043TIP3    H278621   0.565   4.565   6.177 -0.3319  0.0846 -0.8209
19044TIP3   OH278622   6.551   5.736   1.588 -0.0741  0.5481  0.2558
19044TIP3    H178623   6.517   5.712   1.675 -1.3366  0.5703 -0.2063
19044TIP3    H278624   6.496   5.810   1.561  2.4792  2.8314  0.8291
19045TIP3   OH278625   5.894   5.553   0.474 -0.0770  0.1615 -0.4633
19045TIP3    H178626   5.843   5.497   0.416 -1.5373  2.4790 -1.5882
19045TIP3    H278627   5.836   5.573   0.547  0.3890  0.2781 -0.1161
19046TIP3   OH278628   5.159   1.797  12.507  0.2084  0.2831 -0.3558
19046TIP3    H178629   5.195   1.724  12.558 -0.9806  0.2730  0.4998
19046TIP3    H278630   5.064   1.787  12.514  0.0211  1.1149 -1.4095
19047TIP3   OH278631   4.222   4.924  10.837 -0.2426  0.3978  0.3370
19047TIP3    H178632   4.177   4.845  10.807 -0.5469  0.5477  0.3941
19047TIP3    H278633   4.300   4.891  10.882 -0.4924  0.1194  0.5743
19048TIP3   OH278634   4.051   3.987  11.935  0.2709 -0.3015 -0.4762
19048TIP3    H178635   4.107   4.059  11.905 -0.0219  0.3518  0.5166
19048TIP3    H278636   4.081   3.912  11.884  1.9865  0.0533 -0.0674
19049TIP3   OH278637   1.959   6.386  11.454  0.5242 -0.0588 -0.1526
19049TIP3    H178638   2.053   6.369  11.464  0.4622  0.3273  1.5174
19049TIP3    H278639   1.950   6.481  11.464  0.1371  0.1865 -2.3598
19050TIP3   OH278640   5.587   5.260  12.022  0.1489  0.1798 -0.0787
19050TIP3    H178641   5.658   5.206  12.057  0.1884  0.3355  0.0798
19050TIP3    H278642   5.552   5.306  12.098 -1.2290 -1.1550  0.1559
19051TIP3   OH278643   5.068   5.319  12.080  0.3433  0.0528 -0.3186
19051TIP3    H178644   5.004   5.248  12.084 -0.3401  0.6912  0.5060
19051TIP3    H278645   5.141   5.289  12.134 -0.5127  0.5052  1.1407
19052TIP3   OH278646   2.365   3.637  14.060 -0.4769 -0.0180  0.2307
19052TIP3    H178647   2.450   3.677  14.043 -0.1522 -0.4317  0.8480
19052TIP3    H278648   2.350   3.579  13.985  1.1050 -2.1043  1.4547
19053TIP3   OH278649   2.943   2.111  12.534 -0.0381 -0.1644 -0.5022
19053TIP3    H178650   2.858   2.117  12.580  0.7000 -0.7871  1.0035
19053TIP3    H278651   2.929   2.045  12.466 -0.3665 -1.3581  0.6846
19054TIP3   OH278652   3.674   5.022  10.814  0.3061  0.1136 -0.1915
19054TIP3    H178653   3.628   4.953  10.861  1.1033 -1.4548 -1.6288
19054TIP3    H278654   3.765   4.991  10.809  0.9292  1.7901  0.0871
19055TIP3   OH278655   3.184   2.633  14.127  0.5021  0.1873  0.9661
19055TIP3    H178656   3.273   2.625  14.159  0.9347  1.4003  0.1010
19055TIP3    H278657   3.159   2.724  14.144 -0.0962  0.2184  0.0170
19056TIP3   OH278658   5.742   3.277  11.802  0.2013 -0.1711  0.3252
19056TIP3    H178659   5.775   3.238  11.882  2.0968  0.9710  0.1545
19056TIP3    H278660   5.699   3.205  11.756  0.9957 -1.3370  1.3690
19057TIP3   OH278661   6.717   6.673  14.795 -0.3145  0.3302 -0.4080
19057TIP3    H178662   6.715   6.583  14.828 -0.4512  0.0477 -1.1762
19057TIP3    H278663   6.761   6.666  14.710 -0.1868  1.0137 -0.3997
19058TIP3   OH278664   2.888   2.236   2.605 -0.5932  0.2496 -0.2863
19058TIP3    H178665   2.798   2.256   2.581  0.0177  0.8292 -2.2633
19058TIP3    H278666   2.888   2.143   2.627 -1.8823  0.5121  0.9909
19059TIP3   OH278667   1.064   4.702   1.313  0.2589 -0.7711  0.1436
19059TIP3    H178668   1.030   4.789   1.334  0.4934 -0.9748  1.4500
19059TIP3    H278669   1.119   4.715   1.235 -0.5554  0.0495 -0.2984
19060TIP3   OH278670   5.456   3.972  17.278 -0.5618  0.1286 -0.4013
19060TIP3    H178671   5.480   3.915  17.351 -2.0982  0.5166  0.4468
19060TIP3    H278672   5.471   4.060  17.309 -2.3993  0.3659 -0.0294
19061TIP3   OH278673   0.442   1.099  15.566 -0.3286  0.0071  0.0985
19061TIP3    H178674   0.436   1.114  15.472 -2.0289 -0.0893  0.1742
19061TIP3    H278675   0.496   1.021  15.574 -1.7939 -1.1538 -0.9184
19062TIP3   OH278676   2.011   5.406   4.118  0.2598  0.4194 -0.1897
19062TIP3    H178677   2.098   5.368   4.120  0.2533  0.4230  0.1243
19062TIP3    H278678   1.965   5.365   4.191  0.0864  0.6274 -0.1818
19063TIP3   OH278679   5.918   4.741  15.848  0.6273 -0.4907 -0.2446
19063TIP3    H178680   5.842   4.795  15.872 -0.4051 -0.8842 -2.4165
19063TIP3    H278681   5.898   4.654  15.884 -0.8009 -1.0195 -2.1577
19064TIP3   OH278682   3.487   0.189   2.290  0.6239  0.0199  0.5252
19064TIP3    H178683   3.511   0.099   2.270  1.1239  0.1621  0.4492
19064TIP3    H278684   3.407   0.205   2.239  0.5705 -0.3579  0.4914
19065TIP3   OH278685   5.278   6.690   1.718  0.4990  0.1144  0.2638
19065TIP3    H178686   5.259   6.597   1.729  0.0142 -0.0071 -1.4325
19065TIP3    H278687   5.207   6.734   1.766 -0.9672 -0.3984 -1.3559
19066TIP3   OH278688   0.436   3.216   1.776 -0.1309 -0.1673  0.1915
19066TIP3    H178689   0.394   3.190   1.695  0.1068  2.4003 -0.8403
19066TIP3    H278690   0.528   3.229   1.753  0.6829 -2.5644  1.6840
19067TIP3   OH278691   0.209   6.197  15.284  0.2669 -0.2847 -0.2173
19067TIP3    H178692   0.209   6.101  15.277 -3.0256 -0.2461 -3.5315
19067TIP3    H278693   0.128   6.218  15.329 -0.6045  0.9024 -2.1905
19068TIP3   OH278694   6.267   6.004   5.842 -0.7108 -0.4270 -0.4698
19068TIP3    H178695   6.312   5.929   5.881  0.2797 -0.1387 -1.0495
19068TIP3    H278696   6.185   6.011   5.892  0.6663  0.1600  1.8334
19069TIP3   OH278697   3.006   2.728   5.345 -0.1704 -0.2190  0.0467
19069TIP3    H178698   3.076   2.773   5.297 -0.1929  0.8019  0.9406
19069TIP3    H278699   3.021   2.635   5.327  0.5060  0.0706 -0.9924
19070TIP3   OH278700   0.280   0.977  11.710 -0.3605 -0.0612 -0.1165
19070TIP3    H178701   0.360   0.939  11.746 -1.6362 -1.5590  1.3776
19070TIP3    H278702   0.302   1.002  11.621  1.4508 -1.4966 -0.1214
19071TIP3   OH278703   0.531   1.948   2.774 -0.1967  0.5122  0.1060
19071TIP3    H178704   0.545   2.034   2.815 -2.4889  0.9036  0.1980
19071TIP3    H278705   0.616   1.925   2.739  1.0165  1.8418  1.9379
19072TIP3   OH278706   3.009   3.952   4.580 -0.4010  0.0107 -0.3023
19072TIP3    H178707   2.995   3.859   4.596  0.0836 -0.0013  0.0835
19072TIP3    H278708   2.923   3.985   4.554 -0.8244 -0.3335  0.6047
19073TIP3   OH278709   4.929   4.407  11.595 -0.0321  0.1669 -1.0238
19073TIP3    H178710   4.959   4.429  11.507  0.5569 -0.9112 -1.1121
19073TIP3    H278711   4.835   4.396  11.586 -0.1867  1.4585 -1.2051
19074TIP3   OH278712   2.243   2.874   5.026 -0.1566 -0.2675 -0.4130
19074TIP3    H178713   2.154   2.885   5.059  0.0283 -0.2635  0.1029
19074TIP3    H278714   2.232   2.842   4.937 -0.6956 -2.5741  0.4005
19075TIP3   OH278715   2.414   0.251   5.504 -0.0687 -0.4465  0.5194
19075TIP3    H178716   2.347   0.241   5.573  0.3413  0.9926  1.1593
19075TIP3    H278717   2.452   0.163   5.495 -2.3940 -1.4561 -0.2666
19076TIP3   OH278718   6.373   4.574  15.424  0.4274  0.2024  0.4983
19076TIP3    H178719   6.435   4.519  15.471  0.4594  0.9402  1.3526
19076TIP3    H278720   6.293   4.521  15.419  1.1132 -0.7779 -0.6666
19077TIP3   OH278721   2.889   2.693   4.573 -0.1497 -0.1919  0.0215
19077TIP3    H178722   2.847   2.608   4.560 -0.7867  0.1606 -0.2366
19077TIP3    H278723   2.982   2.675   4.560 -0.1919 -0.9996  0.7131
19078TIP3   OH278724   1.279   2.951   5.134 -0.2516  0.0558 -0.7355
19078TIP3    H178725   1.338   2.915   5.067 -0.2429 -1.8121  0.2233
19078TIP3    H278726   1.244   3.030   5.093  0.9160 -0.1871 -2.3535
19079TIP3   OH278727   3.037   6.670  16.573 -0.0385 -0.2609  0.0393
19079TIP3    H178728   2.978   6.733  16.531 -2.0001 -2.0812 -0.1446
19079TIP3    H278729   3.092   6.638  16.502 -1.0424 -0.8476 -0.5076
19080TIP3   OH278730   4.270   2.886   0.744 -0.1434  0.4345  0.3384
19080TIP3    H178731   4.262   2.946   0.818  0.1373 -1.0665  1.6347
19080TIP3    H278732   4.364   2.885   0.725 -0.2019  0.7326  0.0207
19081TIP3   OH278733   1.930   6.014   5.792 -0.1407 -0.1454 -0.4926
19081TIP3    H178734   1.978   6.067   5.856 -0.2497 -1.4263  0.7125
19081TIP3    H278735   1.839   6.019   5.821  0.0030 -1.9934  0.4608
19082TIP3   OH278736   5.558   2.017   6.269  0.3118 -0.1955  0.0334
19082TIP3    H178737   5.543   2.099   6.222  0.0357  0.7736  1.7087
19082TIP3    H278738   5.473   1.973   6.268  0.1032  0.1904  0.2640
19083TIP3   OH278739   1.087   2.290   4.866 -0.4328 -0.1197 -0.0604
19083TIP3    H178740   1.111   2.292   4.958 -3.3151 -0.7536  0.8004
19083TIP3    H278741   1.028   2.365   4.855 -0.7933 -0.5369 -1.1663
19084TIP3   OH278742   6.141   2.079   5.898 -0.0613 -0.3243 -0.8487
19084TIP3    H178743   6.079   2.149   5.877  0.8730  0.7309 -0.2075
19084TIP3    H278744   6.190   2.113   5.973  1.7276 -0.8703 -1.7343
19085TIP3   OH278745   2.412   6.237  13.452 -0.7128  0.0535 -0.1113
19085TIP3    H178746   2.405   6.324  13.491 -2.4427 -0.3209  0.4903
19085TIP3    H278747   2.349   6.183  13.500  0.4296 -1.5876 -0.3696
19086TIP3   OH278748   3.900   2.054   0.776  0.1021 -0.2892  0.1551
19086TIP3    H178749   3.982   2.069   0.730 -0.2627  0.4063 -0.2882
19086TIP3    H278750   3.842   2.125   0.747 -0.4835 -0.4540  0.8673
19087TIP3   OH278751   2.355   0.157   1.712  0.3300 -0.0707 -0.2384
19087TIP3    H178752   2.273   0.178   1.666  0.9848 -0.7497 -1.7964
19087TIP3    H278753   2.340   0.068   1.746  0.6170 -0.4514 -1.0700
19088TIP3   OH278754   6.639   5.027  16.376 -0.2183 -0.3854 -0.2758
19088TIP3    H178755   6.582   5.099  16.403  2.8655  1.7409  1.0716
19088TIP3    H278756   6.630   5.025  16.281 -0.9166  1.3079 -0.2905
19089TIP3   OH278757   1.990   2.346   3.757  0.0376  0.0168  0.1535
19089TIP3    H178758   1.926   2.307   3.697 -0.1288 -1.1648  1.0630
19089TIP3    H278759   2.000   2.282   3.827  1.6278  0.5364  0.4517
19090TIP3   OH278760   1.061   2.340  14.287 -0.1919 -0.2893  0.5620
19090TIP3    H178761   0.982   2.332  14.235  0.7779  1.5757 -1.3531
19090TIP3    H278762   1.133   2.333  14.224  1.0643  1.3727  1.7075
19091TIP3   OH278763   5.276   5.846  15.018 -0.0553 -0.0952 -0.5318
19091TIP3    H178764   5.369   5.837  15.042 -0.5271 -0.4595  1.3361
19091TIP3    H278765   5.256   5.937  15.038 -0.6312 -0.5750  1.3529
19092TIP3   OH278766   1.301   5.970   4.376 -0.3320 -0.0485  0.0775
19092TIP3    H178767   1.277   6.061   4.393 -1.0005 -0.1781 -0.1270
19092TIP3    H278768   1.275   5.923   4.455 -3.1554 -0.5984 -1.0385
19093TIP3   OH278769   0.700   4.036   0.632 -0.5680 -0.0132  0.8145
19093TIP3    H178770   0.695   4.046   0.727 -0.1526  1.3505  0.7121
19093TIP3    H278771   0.722   4.123   0.600 -0.4043 -0.5224 -0.5164
19094TIP3   OH278772   2.983   4.735   0.601 -0.0698  0.4180  0.0689
19094TIP3    H178773   3.009   4.800   0.535  0.3113 -0.8193 -1.0513
19094TIP3    H278774   3.064   4.688   0.621 -0.6122 -0.6713 -0.2546
19095TIP3   OH278775   3.219   1.925   3.074 -0.2391 -0.3736 -0.3081
19095TIP3    H178776   3.182   1.960   3.156  0.5487 -0.2592  0.0118
19095TIP3    H278777   3.191   1.988   3.007  0.2373  0.2846  0.0922
19096TIP3   OH278778   5.989   3.512  16.700 -0.1578 -0.7017  0.0769
19096TIP3    H178779   6.065   3.565  16.724 -0.5297  0.1645 -0.5925
19096TIP3    H278780   5.914   3.569  16.719 -0.5714 -1.0364 -0.5245
19097TIP3   OH278781   1.437   5.367  15.101  0.3329  0.3104  0.0426
19097TIP3    H178782   1.492   5.410  15.035 -2.7052  0.1843 -2.8816
19097TIP3    H278783   1.469   5.277  15.102  1.7804  0.7915  0.3908
19098TIP3   OH278784   2.459   0.717  11.701  0.1620 -0.7782 -0.6801
19098TIP3    H178785   2.518   0.699  11.774  0.2217  0.5244 -0.3705
19098TIP3    H278786   2.372   0.692  11.734  0.3640 -1.4433 -0.6516
19099TIP3   OH278787   2.860   3.109   0.511  0.2346  0.4887  0.2601
19099TIP3    H178788   2.796   3.172   0.477  1.1842  1.1634 -0.3263
19099TIP3    H278789   2.836   3.026   0.470 -0.5789  0.6066  0.4639
19100TIP3   OH278790   6.578   1.435  16.212  0.1902  0.2126  0.3828
19100TIP3    H178791   6.506   1.486  16.175  1.4432  0.0023 -2.5750
19100TIP3    H278792   6.539   1.350  16.232 -0.6035  0.4182 -0.2363
19101TIP3   OH278793   1.008   5.825  12.401 -0.1914  0.6390  0.0527
19101TIP3    H178794   1.031   5.916  12.385 -0.4884  1.0843  1.9312
19101TIP3    H278795   1.083   5.775  12.368  0.5280  1.6372  0.1464
19102TIP3   OH278796   6.123   2.006   2.108 -0.0242 -0.0444 -0.2107
19102TIP3    H178797   6.113   1.968   2.020 -0.4102  0.2706 -0.3059
19102TIP3    H278798   6.216   2.024   2.116 -0.2584  2.1356 -1.5077
19103TIP3   OH278799   3.810   2.854  15.869 -0.1804 -0.2208 -0.0699
19103TIP3    H178800   3.795   2.910  15.793  0.7204 -1.0354 -0.8678
19103TIP3    H278801   3.897   2.817  15.856  1.2585  1.7945  2.7827
19104TIP3   OH278802   2.115   2.131   6.072 -0.2821 -0.4407 -0.1133
19104TIP3    H178803   2.132   2.123   5.978 -0.2806 -0.2033 -0.1345
19104TIP3    H278804   2.083   2.220   6.083 -1.6108 -0.8961 -0.0888
19105TIP3   OH278805   1.112   2.619   1.006  0.2593 -0.0708  0.1439
19105TIP3    H178806   1.112   2.685   1.075 -0.3700  1.1976 -1.0305
19105TIP3    H278807   1.184   2.560   1.029  0.5746  0.7862  1.4287
19106TIP3   OH278808   3.218   0.947   3.815  0.5879  0.1869  0.6969
19106TIP3    H178809   3.128   0.948   3.848  0.3675 -1.1710  0.2010
19106TIP3    H278810   3.268   0.904   3.883  1.1238  2.0088  1.5118
19107TIP3   OH278811   1.736   5.711  12.733 -0.2485  0.8243 -0.0492
19107TIP3    H178812   1.795   5.685  12.663  0.7234  1.2873  0.5761
19107TIP3    H278813   1.750   5.805  12.743 -2.4164  1.3201 -1.0936
19108TIP3   OH278814   5.492   1.256   4.252 -1.0145 -0.1865 -0.3593
19108TIP3    H178815   5.481   1.162   4.263  0.3064 -0.3350 -0.1108
19108TIP3    H278816   5.454   1.295   4.331 -0.2407 -0.6230  0.2437
19109TIP3   OH278817   4.050   3.345  13.097  0.1692  1.0351 -0.2509
19109TIP3    H178818   4.134   3.390  13.105  0.6805  0.0232  0.2073
19109TIP3    H278819   4.069   3.254  13.118 -0.7755  0.5070 -1.5310
19110TIP3   OH278820   1.847   5.821  17.250 -0.1097 -0.4908 -0.4499
19110TIP3    H178821   1.879   5.764  17.179 -0.9208 -1.9894  0.3475
19110TIP3    H278822   1.922   5.830  17.308  0.1585 -0.3553 -0.8096
19111TIP3   OH278823   5.446   0.361   0.653  0.3726  0.1153 -0.2405
19111TIP3    H178824   5.518   0.341   0.593  1.0247 -1.6836  1.0544
19111TIP3    H278825   5.471   0.444   0.693 -0.1458  1.4329 -2.4563
19112TIP3   OH278826   4.607   4.495   0.751  0.0600  0.1886  0.6321
19112TIP3    H178827   4.604   4.548   0.831 -0.6957  0.3056  0.5353
19112TIP3    H278828   4.521   4.454   0.746 -0.2438  0.8905 -0.5847
19113TIP3   OH278829   6.749   1.494   5.707  0.5824 -0.4120  0.4931
19113TIP3    H178830   6.822   1.512   5.649 -1.0707  1.1450 -1.2654
19113TIP3    H278831   6.723   1.404   5.687  0.4199 -0.0989 -0.7905
19114TIP3   OH278832   6.638   5.419  15.449  0.1076  0.2253  0.1923
19114TIP3    H178833   6.618   5.369  15.528 -0.6096  0.0361 -0.1038
19114TIP3    H278834   6.567   5.483  15.442 -0.1682 -0.1573 -0.6286
19115TIP3   OH278835   1.607   3.531  14.843  0.3416 -0.1732 -0.2668
19115TIP3    H178836   1.690   3.486  14.826  0.5800  0.4525 -0.8066
19115TIP3    H278837   1.563   3.532  14.758  0.1133  0.1658 -0.1449
19116TIP3   OH278838   6.473   0.930  17.288  0.4118 -0.4569 -0.2333
19116TIP3    H178839   6.398   0.990  17.297 -0.4845 -1.1021 -2.7068
19116TIP3    H278840   6.550   0.986  17.300 -0.4201  0.6760  0.0371
19117TIP3   OH278841   6.401   0.472  11.496  0.3528  0.6516  0.2893
19117TIP3    H178842   6.416   0.529  11.571  1.7608 -0.8902  1.2682
19117TIP3    H278843   6.351   0.399  11.531 -2.1234  1.5748 -1.1190
19118TIP3   OH278844   2.142   1.612  13.793  0.4882  0.4532  0.3967
19118TIP3    H178845   2.055   1.597  13.831  0.2653 -0.6808 -0.5039
19118TIP3    H278846   2.151   1.543  13.728  2.9122 -0.8010  1.9191
19119TIP3   OH278847   4.722   6.288   1.717 -0.6284 -0.0758 -0.4575
19119TIP3    H178848   4.635   6.301   1.681 -1.6590 -3.2350  0.6113
19119TIP3    H278849   4.732   6.193   1.724  0.9881  0.1945  3.7935
19120TIP3   OH278850   1.610   6.685  16.142 -0.3719 -0.4869 -0.1591
19120TIP3    H178851   1.671   6.614  16.119  2.1662  1.8335 -1.1700
19120TIP3    H278852   1.540   6.642  16.191  0.9382 -3.6821 -0.8580
19121TIP3   OH278853   4.927   2.858  14.892  0.0970  0.2433 -0.1659
19121TIP3    H178854   4.926   2.799  14.817 -2.0029  2.3341 -1.9261
19121TIP3    H278855   4.978   2.934  14.863 -2.7393  2.1526 -0.5157
19122TIP3   OH278856   3.738   4.302  15.877 -0.2805 -0.2793 -0.1648
19122TIP3    H178857   3.780   4.217  15.893  2.9719  1.1754 -0.3182
19122TIP3    H278858   3.776   4.332  15.794  0.7196  2.4430  1.1762
19123TIP3   OH278859   6.012   0.458   3.168 -0.2470  0.6392  0.1796
19123TIP3    H178860   6.075   0.527   3.187  0.1096  1.0153 -2.0128
19123TIP3    H278861   5.964   0.445   3.249  0.3228  2.7898  0.9195
19124TIP3   OH278862   3.598   6.363  12.320  0.3774  0.0497  0.2100
19124TIP3    H178863   3.655   6.293  12.351  1.0552  0.2346 -0.5719
19124TIP3    H278864   3.645   6.444  12.340  0.8777  0.1716 -1.3147
19125TIP3   OH278865   1.153   3.956  12.183  0.2678  0.6270  0.4357
19125TIP3    H178866   1.064   3.927  12.165  0.9736 -1.0105 -0.6346
19125TIP3    H278867   1.173   4.018  12.113 -0.3789  1.8695  1.3115
19126TIP3   OH278868   2.189   3.043   6.303 -0.2551 -0.4886  0.1602
19126TIP3    H178869   2.221   3.073   6.388  0.9539 -0.2632 -0.3476
19126TIP3    H278870   2.261   2.991   6.268 -0.9494 -1.0209 -0.5003
19127TIP3   OH278871   3.381   6.752   6.562 -0.7450 -0.3911 -0.4158
19127TIP3    H178872   3.415   6.800   6.638 -1.4151 -3.6201  2.1760
19127TIP3    H278873   3.448   6.686   6.544 -2.0233 -1.7142 -0.4828
19128TIP3   OH278874   3.694   5.327  17.417 -0.2364  0.0143  0.1328
19128TIP3    H178875   3.661   5.254  17.469  0.7623 -1.4882 -1.2638
19128TIP3    H278876   3.726   5.287  17.336 -0.7591  2.1492 -1.2131
19129TIP3   OH278877   5.234   0.554   5.560 -0.4878  0.8215 -0.1784
19129TIP3    H178878   5.264   0.463   5.562 -0.3335  0.8584 -0.7572
19129TIP3    H278879   5.181   0.563   5.640 -2.0803 -0.3375 -1.0289
19130TIP3   OH278880   2.002   3.680   5.873  0.0416  0.0312 -0.4615
19130TIP3    H178881   2.088   3.702   5.910  0.3899 -0.1060 -1.1718
19130TIP3    H278882   2.022   3.632   5.792 -0.6654  1.4111 -1.5094
19131TIP3   OH278883   4.184   2.018   2.353 -0.1353  0.5625 -0.1487
19131TIP3    H178884   4.273   2.052   2.359 -0.4531  1.0871  2.7779
19131TIP3    H278885   4.184   1.941   2.409 -1.6150  0.7886  0.1985
19132TIP3   OH278886   0.872   5.449   4.392  0.1219 -0.0286 -0.2404
19132TIP3    H178887   0.893   5.538   4.361  0.5775  0.1166  0.4559
19132TIP3    H278888   0.900   5.449   4.484  0.7343 -1.1042 -0.4175
19133TIP3   OH278889   4.537   3.511   0.744  0.0226  0.2490 -0.3234
19133TIP3    H178890   4.530   3.606   0.755  1.4082  0.2239  1.1163
19133TIP3    H278891   4.631   3.493   0.753 -0.3662 -1.4065  0.8106
19134TIP3   OH278892   5.017   3.876  12.514  0.0937 -0.1411  0.2682
19134TIP3    H178893   5.016   3.972  12.508  0.2638 -0.0258  1.7309
19134TIP3    H278894   4.999   3.858  12.606 -1.9614 -1.5898 -0.3426
19135TIP3   OH278895   3.364   0.703   0.813  0.0319  0.1704  0.0967
19135TIP3    H178896   3.452   0.674   0.789 -0.4302 -0.3244 -1.0742
19135TIP3    H278897   3.364   0.797   0.795 -0.3596 -0.2059 -2.1914
19136TIP3   OH278898   4.014   3.000  16.870 -0.4504 -0.4954 -0.1859
19136TIP3    H178899   4.034   3.075  16.926 -1.2919  0.3300 -0.9725
19136TIP3    H278900   4.088   2.941  16.883  0.9327  1.0767 -0.6049
19137TIP3   OH278901   4.092   2.580  14.020  0.0395  0.1206 -0.6876
19137TIP3    H178902   4.013   2.553  14.066  0.4444  0.1180  0.0151
19137TIP3    H278903   4.133   2.645  14.077  0.3410  0.4185 -1.2294
19138TIP3   OH278904   6.235   0.133  14.311 -0.1865  0.4007 -0.3185
19138TIP3    H178905   6.264   0.043  14.302  0.2840  0.2542  2.0044
19138TIP3    H278906   6.162   0.129  14.374  0.9174  1.7620  1.1544
19139TIP3   OH278907   4.950   2.030  10.844  0.4515  0.0102 -0.1021
19139TIP3    H178908   4.999   1.952  10.870 -0.1180 -0.9515 -1.7948
19139TIP3    H278909   5.007   2.076  10.782  0.4042  0.4644  0.1809
19140TIP3   OH278910   1.743   1.382  16.230 -0.4719  0.3038 -0.3877
19140TIP3    H178911   1.735   1.474  16.254 -0.3872  0.5889 -1.3989
19140TIP3    H278912   1.664   1.364  16.177  0.5017  0.3740 -1.9217
19141TIP3   OH278913   4.872   0.144   6.070 -0.0296 -0.1018 -0.2438
19141TIP3    H178914   4.902   0.067   6.119 -1.7102 -0.8765 -0.3808
19141TIP3    H278915   4.794   0.114   6.023 -0.3469  1.5224 -0.8145
19142TIP3   OH278916   3.606   2.667  12.865 -0.5753  0.0704  0.2442
19142TIP3    H178917   3.667   2.651  12.792 -1.8745 -2.1959 -0.4267
19142TIP3    H278918   3.629   2.755  12.896  1.5640  0.1695 -1.3811
19143TIP3   OH278919   5.511   4.783  14.381 -0.2884 -0.3420 -0.1842
19143TIP3    H178920   5.555   4.860  14.418 -1.9950  0.6507 -0.1293
19143TIP3    H278921   5.581   4.718  14.371  0.8755  0.5999  1.3899
19144TIP3   OH278922   3.293   3.248  10.960  0.2826 -0.3346  1.2360
19144TIP3    H178923   3.307   3.308  10.887  1.0298  0.2591  1.8436
19144TIP3    H278924   3.380   3.213  10.979 -0.3491 -2.7720 -0.0451
19145TIP3   OH278925   4.683   6.117  12.062  0.3512 -0.5102 -0.3689
19145TIP3    H178926   4.717   6.161  11.985 -0.2546 -0.4440 -0.6071
19145TIP3    H278927   4.717   6.028  12.056 -0.8748 -0.9347 -1.5077
19146TIP3   OH278928   3.511   4.346  12.289  0.2166 -0.4576 -0.0059
19146TIP3    H178929   3.505   4.274  12.227 -1.5808 -0.1817 -0.2008
19146TIP3    H278930   3.514   4.303  12.375  2.9413 -0.8472 -0.1930
19147TIP3   OH278931   5.362   1.450   0.121 -0.3353 -0.0107 -0.1307
19147TIP3    H178932   5.429   1.514   0.097 -0.1553 -0.4469 -0.8174
19147TIP3    H278933   5.412   1.373   0.150 -0.5224 -0.4776 -1.0138
19148TIP3   OH278934   0.232   3.768  14.847 -0.2896 -0.2138  0.1351
19148TIP3    H178935   0.319   3.743  14.878 -0.2631  0.2456  0.4434
19148TIP3    H278936   0.192   3.686  14.819  0.2296 -0.4328  0.0235
19149TIP3   OH278937   1.600   0.693   2.775 -0.2350 -0.8253  0.8483
19149TIP3    H178938   1.543   0.703   2.699  2.6726  0.2648 -1.3984
19149TIP3    H278939   1.562   0.750   2.841 -0.8223  1.2609 -1.1636
19150TIP3   OH278940   5.322   4.836  12.490 -0.2333 -0.0466 -0.3909
19150TIP3    H178941   5.230   4.861  12.485  0.4179  2.7322 -0.4415
19150TIP3    H278942   5.358   4.859  12.404  0.9338  1.1268  0.3708
19151TIP3   OH278943   1.023   5.245   1.844  0.2293 -0.1160 -0.0068
19151TIP3    H178944   1.068   5.165   1.816  1.1564 -0.1611  1.5073
19151TIP3    H278945   1.092   5.311   1.850 -0.3854  0.5712 -0.3641
19152TIP3   OH278946   6.719   3.643  11.644  0.5053 -0.4231  0.9466
19152TIP3    H178947   6.654   3.600  11.587  1.0025  0.5806 -0.4382
19152TIP3    H278948   6.798   3.591  11.633  1.9239  2.0821 -2.8360
19153TIP3   OH278949   2.331   1.438   1.413  0.2310 -0.1426  0.4866
19153TIP3    H178950   2.262   1.427   1.348  0.2608 -0.7229  0.5483
19153TIP3    H278951   2.342   1.351   1.451 -1.4439  0.6096  2.9624
19154TIP3   OH278952   6.189   6.576  11.165 -0.2142 -0.5910  0.0463
19154TIP3    H178953   6.188   6.616  11.078  0.6325 -0.1167  0.2327
19154TIP3    H278954   6.169   6.484  11.150 -0.6471 -0.3973 -0.5823
19155TIP3   OH278955   6.011   3.762  11.665  0.3058  0.6080  0.3682
19155TIP3    H178956   5.974   3.840  11.706 -0.6771 -0.4960  1.6645
19155TIP3    H278957   6.044   3.710  11.738 -0.0872 -0.7053 -0.3594
19156TIP3   OH278958   5.322   6.558  11.829  0.1540 -0.1257  0.4997
19156TIP3    H178959   5.269   6.478  11.820  0.4527 -0.7454  3.3733
19156TIP3    H278960   5.411   6.530  11.808  0.1085 -0.2827  0.5108
19157TIP3   OH278961   1.535   6.201  11.213 -0.4536  0.0916 -0.3254
19157TIP3    H178962   1.517   6.254  11.136  2.1943 -1.2667 -2.0253
19157TIP3    H278963   1.612   6.242  11.253 -0.3086 -0.6181  0.1403
19158TIP3   OH278964   0.851   6.109   2.558  0.2750  0.0900 -0.8290
19158TIP3    H178965   0.928   6.060   2.586  0.2367  0.5551  0.1418
19158TIP3    H278966   0.868   6.199   2.588 -1.6904 -0.2526  1.6622
19159TIP3   OH278967   0.833   0.973  12.544  0.6169  0.0595  0.5185
19159TIP3    H178968   0.854   0.985  12.637  0.6626 -0.5875  0.5982
19159TIP3    H278969   0.743   1.003  12.536  0.0847 -1.3164  1.0984
19160TIP3   OH278970   2.048   4.811   1.904 -0.4951  0.1690 -0.4178
19160TIP3    H178971   1.984   4.808   1.974 -0.0456  3.6977  0.3430
19160TIP3    H278972   2.131   4.788   1.946 -0.7060 -1.1722 -0.6732
19161TIP3   OH278973   1.192   6.312  15.103  0.5009  0.3697 -0.1842
19161TIP3    H178974   1.232   6.249  15.044  2.5752  3.5799 -2.5405
19161TIP3    H278975   1.140   6.369  15.046 -2.4010  0.1055  2.0058
19162TIP3   OH278976   0.820   3.587   3.833 -0.3716 -0.1412 -0.1856
19162TIP3    H178977   0.793   3.499   3.807 -0.5833 -0.6544  1.6775
19162TIP3    H278978   0.908   3.575   3.869 -0.3818  0.4303  0.0345
19163TIP3   OH278979   3.820   3.626   5.700  0.0096  0.0836  0.6413
19163TIP3    H178980   3.783   3.606   5.614 -1.0332  0.9607  0.8769
19163TIP3    H278981   3.914   3.610   5.689 -0.4053 -2.5443  0.1442
19164TIP3   OH278982   2.810   6.768   4.162 -0.3733 -0.3855  0.9050
19164TIP3    H178983   2.780   6.774   4.071  0.0647  0.1914  0.7949
19164TIP3    H278984   2.735   6.732   4.209 -0.6022 -0.6926  0.3166
19165TIP3   OH278985   3.342   5.350  11.746  0.7947  0.7361 -0.2990
19165TIP3    H178986   3.406   5.280  11.733  0.8961  0.9766 -1.1117
19165TIP3    H278987   3.342   5.364  11.841  1.4848  0.3015 -0.2248
19166TIP3   OH278988   4.955   3.690   4.767  0.1403 -0.3437 -0.0650
19166TIP3    H178989   4.973   3.633   4.693  2.9602  0.6234 -0.2110
19166TIP3    H278990   4.859   3.689   4.775 -0.0669 -2.8307 -1.7812
19167TIP3   OH278991   3.581   5.076  13.810  0.2085  0.3098 -0.3446
19167TIP3    H178992   3.614   5.099  13.723 -0.2991 -0.0164 -0.6296
19167TIP3    H278993   3.523   5.148  13.833  2.4850  1.8569  0.9732
19168TIP3   OH278994   2.772   2.942   0.150 -0.4256 -0.1266 -0.2353
19168TIP3    H178995   2.849   2.913   0.198  0.2113  1.1019 -0.4647
19168TIP3    H278996   2.699   2.898   0.194  0.3634 -1.0324  0.2067
19169TIP3   OH278997   4.454   2.888   4.942  0.0629  0.5622 -0.1505
19169TIP3    H178998   4.437   2.881   4.848 -0.1384 -0.3009 -0.0563
19169TIP3    H278999   4.403   2.964   4.970  0.3525  0.9992 -0.7885
19170TIP3   OH279000   2.982   4.417  12.418 -0.0819 -0.3014 -0.2360
19170TIP3    H179001   2.976   4.465  12.336  2.1900  0.0182 -0.2717
19170TIP3    H279002   3.068   4.441  12.454 -0.2546 -1.8392  1.3350
19171TIP3   OH279003   6.066   3.059   5.337 -0.0079 -0.0569  0.4966
19171TIP3    H179004   6.092   3.076   5.428 -1.5092 -1.5044  1.2572
19171TIP3    H279005   5.974   3.086   5.334 -0.0568 -0.3123 -0.5202
19172TIP3   OH279006   4.050   1.745  17.226  0.1483 -0.4272  1.0497
19172TIP3    H179007   4.118   1.810  17.241 -1.3486  0.9030  2.4412
19172TIP3    H279008   4.045   1.735  17.131  0.6277  1.2738  0.8227
19173TIP3   OH279009   4.144   2.983   2.102  0.0372 -0.3307  0.3530
19173TIP3    H179010   4.073   2.942   2.052  2.2394 -1.4003 -2.1475
19173TIP3    H279011   4.127   3.077   2.093 -1.1643 -0.5662 -0.0259
19174TIP3   OH279012   2.507   0.783  15.230  0.3690  0.1499  0.3778
19174TIP3    H179013   2.464   0.720  15.172 -1.4999  1.3106  0.4132
19174TIP3    H279014   2.524   0.735  15.310 -1.7099 -0.1811  0.6771
19175TIP3   OH279015   3.778   2.086  11.497  0.1248  0.9938  0.1220
19175TIP3    H179016   3.748   2.140  11.570 -0.1885  0.7115  0.2008
19175TIP3    H279017   3.724   2.114  11.423  0.2926  1.1243  0.0474
19176TIP3   OH279018   2.396   1.736   2.691 -0.3941 -0.3865 -0.1026
19176TIP3    H179019   2.440   1.816   2.660  0.9149 -1.3197 -0.7699
19176TIP3    H279020   2.398   1.744   2.786  0.4676  0.0253 -0.1362
19177TIP3   OH279021   6.263   3.169  14.746  0.0303 -0.3904  0.1279
19177TIP3    H179022   6.319   3.233  14.703  0.8117 -1.4801 -0.5327
19177TIP3    H279023   6.206   3.137  14.677  0.8281 -1.6532  0.0188
19178TIP3   OH279024   1.832   0.554   4.762  0.4737 -0.1908 -0.0674
19178TIP3    H179025   1.872   0.494   4.825  0.6864  1.0526  1.0405
19178TIP3    H279026   1.737   0.543   4.775  0.4657  1.7192  2.2517
19179TIP3   OH279027   2.296   2.149  12.282 -0.1428  0.0462 -0.2668
19179TIP3    H179028   2.266   2.206  12.353  2.6459  0.7063  0.5092
19179TIP3    H279029   2.299   2.061  12.321  1.2120  0.3784  0.4333
19180TIP3   OH279030   5.358   5.583  17.415 -0.5300 -0.1308  0.8191
19180TIP3    H179031   5.422   5.513  17.425 -0.4090 -0.0815  0.4083
19180TIP3    H279032   5.274   5.541  17.430 -0.4885 -0.4543  0.1583
19181TIP3   OH279033   1.611   1.266  15.725  0.2780  0.3808  0.6302
19181TIP3    H179034   1.642   1.356  15.733  0.6195  0.5249 -1.5722
19181TIP3    H279035   1.676   1.214  15.773  1.2670  1.1407  0.1561
19182TIP3   OH279036   2.751   0.744   3.646  0.5498  0.2851  0.1708
19182TIP3    H179037   2.693   0.813   3.679  0.8628  0.9267 -0.5676
19182TIP3    H279038   2.769   0.770   3.555  1.9007  0.0557  0.3469
19183TIP3   OH279039   4.917   1.832   6.306 -0.2862 -0.4789  0.0311
19183TIP3    H179040   4.853   1.762   6.318 -1.2270  0.2896 -0.3374
19183TIP3    H279041   4.997   1.800   6.347 -0.7520 -1.6889  0.0155
19184TIP3   OH279042   2.586   4.530  14.339  0.2255 -0.0515 -0.0250
19184TIP3    H179043   2.498   4.512  14.373  0.3597  1.4945  1.2538
19184TIP3    H279044   2.619   4.445  14.311 -1.0381 -0.9389  1.0720
19185TIP3   OH279045   6.554   0.519  14.416  0.2358 -0.9305 -0.1663
19185TIP3    H179046   6.556   0.427  14.441 -1.0233 -0.2742  2.9027
19185TIP3    H279047   6.572   0.566  14.498  0.9740  1.5584 -1.6546
19186TIP3   OH279048   5.028   5.080   5.437 -0.5420 -0.3331  0.2594
19186TIP3    H179049   5.094   5.031   5.387 -0.9115 -0.9913  0.4043
19186TIP3    H279050   5.079   5.128   5.502 -0.2369 -1.2657  0.7211
19187TIP3   OH279051   4.077   4.491   0.336 -0.6487  0.0480  0.8238
19187TIP3    H179052   4.010   4.559   0.332  0.9676  1.6893 -1.9614
19187TIP3    H279053   4.067   4.443   0.253  1.3534  0.1303  0.4927
19188TIP3   OH279054   3.400   2.509   2.031 -0.7623  0.0470  0.0079
19188TIP3    H179055   3.401   2.546   1.942  0.5862 -0.0390 -0.0381
19188TIP3    H279056   3.307   2.497   2.051 -1.3853  3.9122  0.2373
19189TIP3   OH279057   2.801   3.614  13.128  0.2851 -0.1546  0.4508
19189TIP3    H179058   2.739   3.552  13.089 -0.2935  2.1604 -2.6416
19189TIP3    H279059   2.885   3.590  13.090  0.1144  0.6641 -0.4937
19190TIP3   OH279060   5.850   5.116   1.433 -0.0302  0.0703 -0.7060
19190TIP3    H179061   5.794   5.131   1.357 -1.7310  0.7041  0.6071
19190TIP3    H279062   5.789   5.107   1.507  1.4082 -3.0778  0.2556
19191TIP3   OH279063   2.636   5.937  15.648  0.2251 -0.1567  0.1234
19191TIP3    H179064   2.696   5.872  15.686 -1.8962 -1.5523  1.2741
19191TIP3    H279065   2.623   5.907  15.558  1.3026  0.2108 -0.1655
19192TIP3   OH279066   4.792   2.362  12.753 -0.4231  0.4805 -0.7212
19192TIP3    H179067   4.867   2.417  12.776  0.6022 -1.1299 -0.0388
19192TIP3    H279068   4.728   2.376  12.823  0.3430 -0.1098  0.1128
19193TIP3   OH279069   4.457   4.867   1.716 -0.3622  0.4804  0.5850
19193TIP3    H179070   4.548   4.870   1.687  0.1414 -2.8016  1.4803
19193TIP3    H279071   4.453   4.931   1.787  1.4548  0.1332  1.0422
19194TIP3   OH279072   3.237   5.047  14.962  0.1480 -0.6049 -0.3831
19194TIP3    H179073   3.241   5.100  15.042 -1.3384  0.3564 -0.9065
19194TIP3    H279074   3.317   5.070  14.914 -0.0731  0.5908 -0.2217
19195TIP3   OH279075   0.655   0.085   4.464  0.4959  0.0341 -0.4111
19195TIP3    H179076   0.604   0.004   4.457 -0.1613  0.4263 -0.1997
19195TIP3    H279077   0.746   0.056   4.463  0.2599 -0.7690  0.3149
19196TIP3   OH279078   4.287   3.581  17.073  0.6787  0.0086  0.2089
19196TIP3    H179079   4.211   3.541  17.114 -0.6606  2.3942  0.2313
19196TIP3    H279080   4.357   3.570  17.137 -0.1260 -0.5846  1.0092
19197TIP3   OH279081   4.684   6.435   3.138 -0.5587  0.5467  0.0233
19197TIP3    H179082   4.675   6.530   3.150 -1.0875  0.3376  1.5588
19197TIP3    H279083   4.775   6.423   3.111  0.2129  1.3482  2.0111
19198TIP3   OH279084   4.511   1.647   3.198 -0.2158 -0.0107 -0.3031
19198TIP3    H179085   4.558   1.614   3.122 -0.7277  0.5950 -0.8954
19198TIP3    H279086   4.500   1.741   3.181 -2.1695 -0.2313 -0.4989
19199TIP3   OH279087   4.401   5.548   4.357  0.9032 -0.1555 -0.1000
19199TIP3    H179088   4.456   5.476   4.326 -1.0922 -0.6181 -3.0885
19199TIP3    H279089   4.443   5.627   4.324  2.9915  0.1713  3.0172
19200TIP3   OH279090   3.740   1.504   1.241 -0.3538 -0.2691  0.0746
19200TIP3    H179091   3.692   1.572   1.193 -2.3425 -1.1668  0.6612
19200TIP3    H279092   3.753   1.541   1.328  0.4483  0.1625 -0.2283
19201TIP3   OH279093   0.254   5.725   3.376  0.0016 -0.0605 -0.3404
19201TIP3    H179094   0.315   5.759   3.442 -0.3705  1.1590 -0.6080
19201TIP3    H279095   0.208   5.654   3.421 -1.1150  1.5277  1.1829
19202TIP3   OH279096   6.034   2.944   7.000 -0.4977  0.4639 -0.1827
19202TIP3    H179097   5.972   2.906   7.062 -0.0917 -3.1535 -1.7268
19202TIP3    H279098   5.980   3.001   6.944 -2.0752 -0.9285 -0.1646
19203TIP3   OH279099   2.944   2.390   2.897 -0.0700 -0.1046  0.2786
19203TIP3    H179100   2.910   2.478   2.913 -0.4398 -0.5369  2.1019
19203TIP3    H279101   2.959   2.387   2.802  0.1040  1.9580  0.1905
19204TIP3   OH279102   1.407   2.850   1.105  0.3561  0.3339  0.1473
19204TIP3    H179103   1.335   2.894   1.150 -0.8144 -1.8918  0.5553
19204TIP3    H279104   1.430   2.910   1.033 -2.0782  0.9911 -0.1705
19205TIP3   OH279105   1.096   0.211   5.878 -0.2572  0.5526  0.5012
19205TIP3    H179106   1.173   0.176   5.834 -2.2302 -0.5569 -2.3378
19205TIP3    H279107   1.074   0.291   5.830 -2.5295 -0.7422 -0.7838
19206TIP3   OH279108   2.742   0.828  16.239  0.5498  0.1169 -0.5008
19206TIP3    H179109   2.684   0.901  16.215  1.0418  1.0750  1.0735
19206TIP3    H279110   2.830   0.865  16.233  0.8825 -0.6892 -0.7297
19207TIP3   OH279111   0.166   2.602  17.204  0.0827 -1.1887 -0.0087
19207TIP3    H179112   0.085   2.652  17.216  0.2144 -0.5824 -1.4193
19207TIP3    H279113   0.227   2.639  17.268 -0.3769 -0.7916  0.2110
19208TIP3   OH279114   5.042   5.126   0.528 -0.2851  0.9816 -0.0377
19208TIP3    H179115   5.059   5.101   0.619  0.7932 -1.4427 -0.8328
19208TIP3    H279116   5.118   5.094   0.480 -1.5683  0.7703 -2.0188
19209TIP3   OH279117   2.575   2.385   2.973  0.2647 -0.1256 -0.1970
19209TIP3    H179118   2.647   2.429   2.928  1.2932  0.4444  1.8797
19209TIP3    H279119   2.517   2.456   3.000 -0.7978 -0.5358 -1.3495
19210TIP3   OH279120   4.077   4.172  16.644 -0.0576  0.2310 -0.0375
19210TIP3    H179121   4.104   4.141  16.558 -1.9286 -0.0737 -0.5649
19210TIP3    H279122   4.078   4.094  16.699 -0.8130  0.0134 -0.3194
19211TIP3   OH279123   0.829   2.175  15.684  0.0245  0.0160 -0.3119
19211TIP3    H179124   0.791   2.118  15.752  2.1382 -0.6296  0.4353
19211TIP3    H279125   0.766   2.245  15.673 -1.9396 -1.6261 -0.0883
19212TIP3   OH279126   4.934   1.376  13.726 -0.4215 -0.2174 -0.3853
19212TIP3    H179127   5.026   1.379  13.701 -0.0677 -2.5106  0.4718
19212TIP3    H279128   4.930   1.426  13.808  0.3956 -1.4093  0.4109
19213TIP3   OH279129   0.334   3.434  17.403 -0.0037  0.4533 -0.3375
19213TIP3    H179130   0.424   3.419  17.430  0.3225  0.9459 -1.1012
19213TIP3    H279131   0.293   3.347  17.405 -0.0325  0.4788  1.7495
19214TIP3   OH279132   3.459   2.164  13.475 -0.5085 -0.0326 -0.3282
19214TIP3    H179133   3.382   2.212  13.444  0.3670  2.9271  1.6670
19214TIP3    H279134   3.533   2.217  13.447  0.5880 -0.6872  1.1827
19215TIP3   OH279135   1.090   4.996  11.409 -0.0843 -0.3310 -0.4630
19215TIP3    H179136   1.075   4.905  11.386  1.6560 -0.4941 -1.0655
19215TIP3    H279137   1.045   5.046  11.340  2.5082 -0.8041 -2.6655
19216TIP3   OH279138   6.645   3.405  16.843 -0.2450  0.6016  0.0154
19216TIP3    H179139   6.597   3.448  16.772 -1.2428  0.3085  0.4973
19216TIP3    H279140   6.733   3.389  16.807 -0.7444  0.4235 -1.1537
19217TIP3   OH279141   1.918   4.813  16.515 -0.0470  0.8140 -0.1255
19217TIP3    H179142   1.973   4.734  16.517 -1.2428 -0.0421  1.2938
19217TIP3    H279143   1.847   4.792  16.455 -1.0824  0.2588  1.2438
19218TIP3   OH279144   1.231   6.427   1.565 -0.4606 -0.0969  0.0795
19218TIP3    H179145   1.255   6.424   1.657  0.8697  0.2902 -0.2379
19218TIP3    H279146   1.283   6.498   1.528 -0.2761 -0.8478 -1.1656
19219TIP3   OH279147   3.030   1.955   4.677 -0.2202 -0.0869 -0.4711
19219TIP3    H179148   2.976   1.919   4.606 -1.1486 -1.9561  1.0667
19219TIP3    H279149   3.099   1.890   4.689 -0.3010  0.0095  0.5710
19220TIP3   OH279150   3.972   6.126   1.193 -0.4775  0.0957  0.7517
19220TIP3    H179151   4.053   6.157   1.153  0.1502 -1.4335  0.7855
19220TIP3    H279152   3.996   6.044   1.236 -1.7925  0.1987  1.7539
19221TIP3   OH279153   6.227   2.165  12.740  0.2008  0.5122  0.5104
19221TIP3    H179154   6.213   2.108  12.665  0.8511 -0.8342  1.3835
19221TIP3    H279155   6.276   2.240  12.705 -0.5034  0.4576 -0.6125
19222TIP3   OH279156   5.089   5.043  16.584 -0.0390  0.3153 -0.1237
19222TIP3    H179157   5.049   4.969  16.538  2.2814 -0.6065 -0.8106
19222TIP3    H279158   5.179   5.044  16.553  0.3778  2.5815  0.9699
19223TIP3   OH279159   1.883   0.605   0.764 -0.6466  0.3040  0.6612
19223TIP3    H179160   1.895   0.700   0.761  0.2740  0.2172  1.3180
19223TIP3    H279161   1.854   0.586   0.853 -0.0164 -0.1162  0.7819
19224TIP3   OH279162   4.470   2.610   0.154 -0.3688 -0.3997  0.0031
19224TIP3    H179163   4.441   2.671   0.222  0.4165 -1.3297  1.2156
19224TIP3    H279164   4.549   2.650   0.118 -1.0068  0.2895 -0.6591
19225TIP3   OH279165   4.333   2.895   2.334  0.0949  0.4152 -0.2023
19225TIP3    H179166   4.402   2.874   2.271  1.6057  0.7240  1.2763
19225TIP3    H279167   4.263   2.933   2.281  1.5015  1.1073 -1.6513
19226TIP3   OH279168   1.488   0.842   2.977 -0.9727 -0.2330 -0.4815
19226TIP3    H179169   1.420   0.828   3.044 -0.8936  1.7109  0.0694
19226TIP3    H279170   1.490   0.937   2.965  0.7767 -0.3545 -1.4220
19227TIP3   OH279171   6.417   2.442  15.283  0.4554  0.0220  0.2007
19227TIP3    H179172   6.458   2.521  15.317  1.0149 -0.1392 -0.0959
19227TIP3    H279173   6.489   2.392  15.244 -0.0710 -0.1041 -0.6353
19228TIP3   OH279174   6.657   3.435   2.343  0.3708 -0.1892  0.0775
19228TIP3    H179175   6.594   3.366   2.324 -0.6342  0.4564  0.9993
19228TIP3    H279176   6.658   3.442   2.439  1.4598  0.1676  0.0601
19229TIP3   OH279177   0.090   5.655  11.941  0.3693  0.6536  0.7175
19229TIP3    H179178   0.168   5.616  11.901 -0.1684  0.5321 -0.2502
19229TIP3    H279179   0.032   5.581  11.955  0.1908  0.8251  0.8832
19230TIP3   OH279180   0.879   2.688   0.134  0.1817  0.0836  0.3481
19230TIP3    H179181   0.949   2.750   0.112 -0.0165  0.6617  1.2576
19230TIP3    H279182   0.829   2.733   0.202  0.3841 -1.3289  1.4743
19231TIP3   OH279183   5.070   3.788   5.148 -0.5350  0.2593  0.1945
19231TIP3    H179184   5.012   3.834   5.087  0.2205 -0.9377 -1.5225
19231TIP3    H279185   5.158   3.813   5.121 -0.1813 -0.3121  0.7775
19232TIP3   OH279186   0.198   2.772  11.324 -0.0141 -0.2850 -0.4766
19232TIP3    H179187   0.270   2.836  11.317 -1.8294  2.0800  0.9079
19232TIP3    H279188   0.238   2.695  11.363  2.2081  0.1171 -1.7831
19233TIP3   OH279189   4.859   3.400   4.187 -0.3634 -0.3660  0.4945
19233TIP3    H179190   4.950   3.424   4.172 -0.2301 -1.2262 -0.1672
19233TIP3    H279191   4.814   3.422   4.106 -0.1458 -2.6596 -0.3176
19234TIP3   OH279192   6.648   1.297  11.349 -0.2375  0.6100  0.3859
19234TIP3    H179193   6.681   1.375  11.305  0.7280  0.1987  0.3664
19234TIP3    H279194   6.622   1.239  11.278  3.0678 -0.8306  0.1894
19235TIP3   OH279195   6.419   4.796  12.343 -0.1944 -0.2660 -0.0097
19235TIP3    H179196   6.390   4.829  12.259 -1.0212  0.7152  0.6369
19235TIP3    H279197   6.407   4.701  12.338 -0.8733 -0.1435 -0.7472
19236TIP3   OH279198   4.332   0.624   5.336  0.3072 -0.1833 -0.4647
19236TIP3    H179199   4.245   0.665   5.331  0.9416  1.4817  1.0140
19236TIP3    H279200   4.358   0.613   5.245 -0.2640  2.0274 -0.9624
19237TIP3   OH279201   4.247   6.585   4.727 -0.2267  0.0172 -0.3082
19237TIP3    H179202   4.342   6.588   4.739 -0.3380 -0.1688  0.6973
19237TIP3    H279203   4.223   6.674   4.702  0.3493 -0.2119 -1.7956
19238TIP3   OH279204   6.471   0.276   2.687 -0.5837 -0.2444 -0.0528
19238TIP3    H179205   6.474   0.288   2.782  1.6924  1.2474 -0.2455
19238TIP3    H279206   6.460   0.182   2.675  1.7058 -0.8327  1.7363
19239TIP3   OH279207   4.163   5.656   5.007  0.2779  0.1467 -0.3943
19239TIP3    H179208   4.241   5.629   5.058 -0.9925 -0.8363  1.1379
19239TIP3    H279209   4.139   5.577   4.959 -0.3995  0.1029  0.0078
19240TIP3   OH279210   2.776   3.136   5.100 -0.0149 -0.5887  0.2765
19240TIP3    H179211   2.715   3.149   5.028 -1.8381  0.1495  1.8873
19240TIP3    H279212   2.820   3.053   5.079 -0.1756 -0.1930 -1.8435
19241TIP3   OH279213   0.650   0.565  12.395 -0.1266  0.4404  0.3661
19241TIP3    H179214   0.596   0.632  12.436 -1.0547 -0.1302  0.0993
19241TIP3    H279215   0.617   0.558  12.306  1.0306  0.7589 -0.1088
19242TIP3   OH279216   4.746   3.130  15.711  0.1814  0.5427 -0.5767
19242TIP3    H179217   4.839   3.147  15.698 -0.0575  1.3592 -1.2822
19242TIP3    H279218   4.709   3.214  15.737 -0.4608  0.3689 -0.9125
19243TIP3   OH279219   2.852   5.665   1.837 -0.3636  0.4066 -0.5582
19243TIP3    H179220   2.912   5.622   1.776 -1.5324  0.1149 -1.5342
19243TIP3    H279221   2.868   5.622   1.921 -0.6372 -1.0871 -1.2505
19244TIP3   OH279222   0.758   3.538  12.551 -0.3184 -0.0961  0.4706
19244TIP3    H179223   0.782   3.611  12.494 -1.4094 -0.1094 -0.0239
19244TIP3    H279224   0.833   3.528  12.610  0.8381 -0.0549 -0.9168
19245TIP3   OH279225   6.380   5.278  10.868  0.3853  0.0917 -0.4394
19245TIP3    H179226   6.323   5.292  10.793 -0.6279 -0.7895  0.1502
19245TIP3    H279227   6.433   5.202  10.844  1.8279  1.2937 -1.2553
19246TIP3   OH279228   4.503   3.785  11.198 -0.1689  0.0199  0.1114
19246TIP3    H179229   4.594   3.811  11.182 -0.0846 -0.4149 -0.1340
19246TIP3    H279230   4.481   3.730  11.123 -0.4786 -0.2777  0.4195
19247TIP3   OH279231   5.494   2.512  15.347  0.0028  0.4569  0.2047
19247TIP3    H179232   5.414   2.460  15.354  0.6702 -0.6051  0.1639
19247TIP3    H279233   5.551   2.460  15.289  0.9660  0.8742  0.7618
19248TIP3   OH279234   0.277   6.099  12.708 -0.4058  0.5158  0.4176
19248TIP3    H179235   0.216   6.030  12.684 -0.2056 -1.6997  5.1223
19248TIP3    H279236   0.362   6.054  12.714  0.3846  1.9664  0.4633
19249TIP3   OH279237   4.070   3.491  14.048  0.1168  0.1730  0.1320
19249TIP3    H179238   4.045   3.401  14.072 -1.7465  1.0053  1.6162
19249TIP3    H279239   4.003   3.546  14.090  1.3666  2.2837 -0.5024
19250TIP3   OH279240   5.696   5.619   0.261 -0.0838  0.0306 -0.2524
19250TIP3    H179241   5.691   5.606   0.166 -2.6643 -0.3792 -0.1184
19250TIP3    H279242   5.690   5.530   0.298  1.4301  0.1377  0.3221
19251TIP3   OH279243   3.765   6.474   4.999  0.6124  0.6726  0.4564
19251TIP3    H179244   3.837   6.525   5.037  0.4133  0.9184  0.4998
19251TIP3    H279245   3.691   6.490   5.057  1.0757 -1.3337  1.7265
19252TIP3   OH279246   5.889   4.534   2.720 -0.1415  0.2307 -0.0005
19252TIP3    H179247   5.865   4.442   2.704  0.6110  0.1436 -0.7072
19252TIP3    H279248   5.871   4.578   2.637  1.0266  0.3871 -0.1855
19253TIP3   OH279249   1.447   1.189   0.108 -0.0738 -0.3272 -0.1810
19253TIP3    H179250   1.374   1.184   0.170  0.4578 -1.4282  0.3739
19253TIP3    H279251   1.422   1.259   0.048  0.6768  2.9517  2.9618
19254TIP3   OH279252   0.545   0.030  14.233 -0.8547 -0.1187  0.0372
19254TIP3    H179253   0.565   0.092  14.303  2.5998 -0.5533 -0.4208
19254TIP3    H279254   0.525  -0.052  14.279 -3.1215  0.6397  0.5525
19255TIP3   OH279255   4.026   0.677   4.183 -0.1089 -0.0283 -0.0827
19255TIP3    H179256   4.025   0.581   4.194 -0.8764 -0.0329 -0.1492
19255TIP3    H279257   4.060   0.691   4.095  1.9256 -0.1508  0.6101
19256TIP3   OH279258   2.761   1.671   2.380 -0.1487 -0.1739 -0.4315
19256TIP3    H179259   2.666   1.661   2.382 -0.0864 -1.4689 -2.2011
19256TIP3    H279260   2.786   1.676   2.472 -2.0771  2.2140  0.0815
19257TIP3   OH279261   2.433   5.148   5.281  0.2230  0.2807  0.5513
19257TIP3    H179262   2.526   5.147   5.301  0.5056  0.5502 -0.6505
19257TIP3    H279263   2.398   5.223   5.330  0.9712  1.2024 -0.2760
19258TIP3   OH279264   3.919   2.913  14.181  0.1375 -0.2702 -0.4836
19258TIP3    H179265   3.928   2.858  14.102 -1.5314 -0.0947 -0.8333
19258TIP3    H279266   3.927   3.002  14.148  2.6785 -0.2360  0.0620
19259TIP3   OH279267   4.766   0.174   5.258 -0.1565  0.2434 -0.5919
19259TIP3    H179268   4.736   0.265   5.258 -1.3477 -0.1236 -1.9737
19259TIP3    H279269   4.767   0.150   5.351  0.7245  1.8020 -0.1396
19260TIP3   OH279270   1.503   1.973  15.045  0.2610 -0.4754  0.2977
19260TIP3    H179271   1.562   2.039  15.081  0.1395 -0.3280  0.2283
19260TIP3    H279272   1.477   1.920  15.120  1.5783 -1.4132  0.1273
19261TIP3   OH279273   3.263   6.663   3.213  0.6510  0.1649  0.3297
19261TIP3    H179274   3.174   6.696   3.224 -0.0595 -1.9010  1.3585
19261TIP3    H279275   3.285   6.684   3.122 -0.8943  0.7042  0.0396
19262TIP3   OH279276   1.566   6.391  15.813 -0.2395  0.0924  0.1902
19262TIP3    H179277   1.491   6.335  15.793  0.0562 -0.2626  0.0689
19262TIP3    H279278   1.527   6.471  15.848 -0.6758 -0.0906  0.1313
19263TIP3   OH279279   0.221   5.755   5.904 -0.1179 -0.0277  0.2774
19263TIP3    H179280   0.244   5.689   5.969 -1.8575  0.4195  1.4082
19263TIP3    H279281   0.251   5.838   5.943  1.6159 -0.0485 -0.9144
19264TIP3   OH279282   1.920   0.097  13.826 -0.0793 -0.1697 -0.2936
19264TIP3    H179283   1.958   0.179  13.795 -1.7262  0.4679 -0.7094
19264TIP3    H279284   1.887   0.118  13.913 -0.7575 -0.3108 -0.5154
19265TIP3   OH279285   2.155   4.383  16.041 -0.2339  0.3803 -0.0585
19265TIP3    H179286   2.094   4.424  16.102  1.4779  1.1785  1.2007
19265TIP3    H279287   2.116   4.398  15.955 -0.7932  2.7565  0.5220
19266TIP3   OH279288   2.522   5.783  10.659 -0.6558 -0.2366 -0.8169
19266TIP3    H179289   2.604   5.734  10.659 -0.8204 -0.5457 -2.0474
19266TIP3    H279290   2.548   5.875  10.660 -0.2649 -0.3221 -2.2435
19267TIP3   OH279291   1.907   5.216  16.062  0.3808 -0.3895  0.0807
19267TIP3    H179292   1.813   5.232  16.053  0.3512 -0.5923  0.0186
19267TIP3    H279293   1.912   5.135  16.114  0.5083 -0.8426 -0.6207
19268TIP3   OH279294   2.531   6.015  13.182  0.0380  0.1695 -0.2882
19268TIP3    H179295   2.526   6.009  13.087 -0.3282 -1.9664 -0.1716
19268TIP3    H279296   2.478   6.092  13.203  1.4984  1.6997 -1.8833
19269TIP3   OH279297   1.616   5.061   5.623 -0.3022  0.6149  0.5049
19269TIP3    H179298   1.575   4.991   5.675 -0.9448 -1.4218 -2.4680
19269TIP3    H279299   1.558   5.136   5.635 -1.3481 -0.2868  1.3794
19270TIP3   OH279300   2.828   1.865  11.263 -0.0892  0.4733 -0.3279
19270TIP3    H179301   2.904   1.905  11.304  0.7787 -0.4288 -1.0247
19270TIP3    H279302   2.814   1.915  11.183  1.2433 -0.8148 -1.4054
19271TIP3   OH279303   1.191   1.771   5.215  0.7550  0.6058 -0.1328
19271TIP3    H179304   1.210   1.677   5.218 -0.0290  0.4756  1.2477
19271TIP3    H279305   1.230   1.800   5.132 -0.5043 -1.2583 -1.4542
19272TIP3   OH279306   1.272   2.685   2.143 -0.9568  0.0919  0.6297
19272TIP3    H179307   1.254   2.750   2.075 -0.1152  0.8095  1.0762
19272TIP3    H279308   1.297   2.606   2.095 -0.0241  0.6966  0.0971
19273TIP3   OH279309   3.252   0.332  16.718 -0.2223  0.1116  0.0868
19273TIP3    H179310   3.297   0.376  16.646 -0.3257  1.3147  0.7186
19273TIP3    H279311   3.204   0.402  16.762 -0.2974 -0.6271  1.2209
19274TIP3   OH279312   6.187   1.292  12.997  0.1044  0.7734  0.0279
19274TIP3    H179313   6.139   1.246  12.928 -0.8070 -1.0077  1.7496
19274TIP3    H279314   6.235   1.361  12.951 -1.0889  0.1808 -2.2590
19275TIP3   OH279315   3.640   1.925   5.033 -0.2299  0.4819 -0.2745
19275TIP3    H179316   3.647   1.834   5.005  2.5053  0.3364  0.5596
19275TIP3    H279317   3.670   1.976   4.958 -0.3812  0.6013 -0.2540
19276TIP3   OH279318   5.456   3.511   1.248  0.0070 -0.0686  0.4781
19276TIP3    H179319   5.391   3.459   1.200  0.3035  0.0739 -0.0742
19276TIP3    H279320   5.534   3.456   1.249  0.5995  0.7174 -0.8723
19277TIP3   OH279321   3.710   1.815  11.577 -0.0025  0.1092  0.1764
19277TIP3    H179322   3.741   1.901  11.549  0.9024  0.8039  2.9176
19277TIP3    H279323   3.663   1.833  11.659  0.9465 -2.0741  1.2798
19278TIP3   OH279324   0.769   2.759   0.953  0.3711  0.5533  0.0684
19278TIP3    H179325   0.737   2.822   0.889 -0.7253 -0.3279 -0.2755
19278TIP3    H279326   0.818   2.812   1.017 -1.1865  1.8570  0.2363
19279TIP3   OH279327   4.958   0.470   1.776 -0.2714 -0.0093  0.3529
19279TIP3    H179328   5.023   0.475   1.705 -1.2666 -3.3260 -1.0022
19279TIP3    H279329   5.007   0.436   1.850 -0.1097 -1.1053 -0.2309
19280TIP3   OH279330   0.495   3.955   4.632 -0.4847  0.1585 -0.0577
19280TIP3    H179331   0.476   3.908   4.714  1.0517 -0.9349 -0.2902
19280TIP3    H279332   0.545   4.032   4.660  0.6212 -0.5612  0.0081
19281TIP3   OH279333   5.125   5.705  13.684 -0.2404 -0.0114 -0.0649
19281TIP3    H179334   5.095   5.724  13.595 -0.8046 -0.4029  0.0354
19281TIP3    H279335   5.216   5.676  13.673 -0.3093 -0.0596 -0.5134
19282TIP3   OH279336   4.038   3.415   4.915  0.0862  0.7338  0.3927
19282TIP3    H179337   4.020   3.480   4.847 -1.9506  0.0253  0.1838
19282TIP3    H279338   4.082   3.465   4.984  1.5034  1.6319 -1.0830
19283TIP3   OH279339   6.556   3.585  14.547 -0.1097 -0.0710 -0.6681
19283TIP3    H179340   6.559   3.655  14.482 -1.0154  0.6430  0.0306
19283TIP3    H279341   6.492   3.615  14.611  1.0306 -0.5863  0.7668
19284TIP3   OH279342   5.562   5.551   3.971 -0.3352  0.4925  0.5193
19284TIP3    H179343   5.475   5.511   3.978 -0.0657  0.0092  1.2756
19284TIP3    H279344   5.611   5.490   3.916  0.0977 -0.2928  1.7333
19285TIP3   OH279345   4.086   0.312  12.777 -0.0688  0.0637  0.2463
19285TIP3    H179346   4.036   0.319  12.858 -0.5571 -2.1179  0.1841
19285TIP3    H279347   4.033   0.257  12.719  1.0031  0.2265 -0.9553
19286TIP3   OH279348   3.711   2.346   0.131 -0.2210 -0.1085  0.0766
19286TIP3    H179349   3.648   2.402   0.175 -0.1597  1.2489 -1.4839
19286TIP3    H279350   3.797   2.377   0.160 -0.0721  2.2932 -2.5203
19287TIP3   OH279351   4.471   5.718  16.951 -0.4336 -0.1870 -0.1146
19287TIP3    H179352   4.489   5.624  16.956  5.6713  0.2861 -3.4565
19287TIP3    H279353   4.447   5.734  16.860  0.2929  1.6138 -0.0363
19288TIP3   OH279354   5.291   0.992   1.633  0.0543  0.6764 -0.1120
19288TIP3    H179355   5.323   1.079   1.658 -1.8154  1.3888 -0.0410
19288TIP3    H279356   5.277   0.947   1.716  0.7784  0.3750 -0.1426
19289TIP3   OH279357   6.188   1.864   6.286  0.0334  0.7817  0.2142
19289TIP3    H179358   6.247   1.905   6.349 -1.6678  2.2678  0.9401
19289TIP3    H279359   6.154   1.938   6.234 -0.0460 -0.2031 -1.1961
19290TIP3   OH279360   5.804   2.033  11.283  0.1911 -0.5461  0.9263
19290TIP3    H179361   5.835   2.080  11.206 -0.2322 -0.1491  0.9927
19290TIP3    H279362   5.764   1.954  11.247  2.1700 -1.5938  0.9030
19291TIP3   OH279363   0.966   0.815   1.890 -0.2657 -0.0611 -0.0099
19291TIP3    H179364   0.929   0.788   1.806 -0.7243  1.2062 -0.2295
19291TIP3    H279365   1.028   0.745   1.912  0.2056 -0.1918 -1.6316
19292TIP3   OH279366   4.431   3.351   4.462  0.3287  0.2879  0.0158
19292TIP3    H179367   4.408   3.410   4.533 -0.0951  1.0982 -0.7672
19292TIP3    H279368   4.525   3.362   4.450  0.1963  1.0913 -0.3551
19293TIP3   OH279369   0.969   4.259   2.451 -0.3306 -0.0728 -0.0493
19293TIP3    H179370   0.894   4.299   2.496  1.8701  1.4202  2.5784
19293TIP3    H279371   1.045   4.290   2.499  2.1545 -0.3969 -3.3966
19294TIP3   OH279372   6.004   0.092  13.424 -0.5093 -0.0567  0.4830
19294TIP3    H179373   5.919   0.088  13.382 -0.2203  1.2949 -0.3221
19294TIP3    H279374   6.016   0.007  13.465 -1.3586 -0.9885 -1.1328
19295TIP3   OH279375   0.905   3.091   2.407 -0.1412 -0.1001  0.1542
19295TIP3    H179376   0.813   3.076   2.431 -0.2005  0.5889  0.3536
19295TIP3    H279377   0.952   3.017   2.445 -0.5523 -0.2209  0.4327
19296TIP3   OH279378   0.866   2.374   0.134  0.0102  0.0467 -0.0288
19296TIP3    H179379   0.914   2.455   0.117  0.7251  0.3153  2.7720
19296TIP3    H279380   0.780   2.388   0.094  0.6233  1.5538 -0.9023
19297TIP3   OH279381   5.460   6.600   2.058  0.3579  0.1570  0.0138
19297TIP3    H179382   5.520   6.674   2.051 -1.5452  1.9384  1.4382
19297TIP3    H279383   5.460   6.577   2.151 -1.2133  0.2829  0.0748
19298TIP3   OH279384   2.543   5.561  13.119  0.3143 -0.4962 -0.7598
19298TIP3    H179385   2.557   5.654  13.138  0.9338 -0.6831 -0.2592
19298TIP3    H279386   2.577   5.516  13.196 -0.9306 -1.1036 -0.5413
19299TIP3   OH279387   0.136   5.550  16.134 -0.1874 -0.1623  0.0811
19299TIP3    H179388   0.197   5.476  16.133 -0.8846 -0.7663  1.1083
19299TIP3    H279389   0.141   5.586  16.046  1.2496 -0.5330 -0.0129
19300TIP3   OH279390   5.259   1.180  16.528 -0.5684 -0.4951 -0.4594
19300TIP3    H179391   5.322   1.252  16.534 -1.7416  0.4441  2.6964
19300TIP3    H279392   5.293   1.114  16.588 -0.8269 -1.5212 -1.4075
19301TIP3   OH279393   5.904   4.936   3.811 -0.5395  0.7220 -0.2249
19301TIP3    H179394   5.971   5.004   3.819  1.7323 -1.5657  2.6639
19301TIP3    H279395   5.943   4.870   3.754 -1.5900  0.6282 -0.8590
19302TIP3   OH279396   5.408   4.807   2.576 -0.3998 -0.4666 -0.2162
19302TIP3    H179397   5.464   4.733   2.601 -0.7692 -0.5040  0.5250
19302TIP3    H279398   5.468   4.870   2.537  0.1209 -0.6338  0.2917
19303TIP3   OH279399   3.753   1.662   6.641 -0.1078 -0.3098 -0.2472
19303TIP3    H179400   3.766   1.756   6.627  0.8332 -0.4885 -0.6337
19303TIP3    H279401   3.700   1.657   6.720  1.6428  0.5170  1.0551
19304TIP3   OH279402   3.214   5.347   2.831  0.0927  0.2754 -0.2996
19304TIP3    H179403   3.251   5.362   2.743  0.0335  0.6033 -0.2691
19304TIP3    H279404   3.120   5.360   2.820 -0.1452 -1.4421 -0.5718
19305TIP3   OH279405   0.004   2.164  11.424  0.7203 -0.3857  0.0985
19305TIP3    H179406   0.005   2.120  11.340 -1.6745 -0.4747  0.0456
19305TIP3    H279407  -0.079   2.139  11.464 -0.2412  3.0475  0.6067
19306TIP3   OH279408   1.132   1.375   4.206  0.1039 -0.0442  0.1262
19306TIP3    H179409   1.107   1.302   4.148 -0.1108  0.7412 -0.8009
19306TIP3    H279410   1.068   1.444   4.187  0.6364  0.5882  0.5757
19307TIP3   OH279411   0.739   6.354   4.296 -0.4521  0.0881  0.0919
19307TIP3    H179412   0.736   6.279   4.237 -1.0768 -0.5561  0.9184
19307TIP3    H279413   0.791   6.324   4.371  0.3905  0.9171 -0.1283
19308TIP3   OH279414   4.684   0.629   2.611 -0.3423 -0.9215  0.1318
19308TIP3    H179415   4.691   0.657   2.703 -0.1658 -1.5321  0.3028
19308TIP3    H279416   4.663   0.710   2.564 -0.5441 -0.6192  0.7225
19309TIP3   OH279417   2.970   4.205   0.315 -0.0921 -0.4450  0.0223
19309TIP3    H179418   2.980   4.126   0.261 -1.5594  0.4220 -1.5973
19309TIP3    H279419   2.963   4.277   0.252  0.5464  0.9271  1.4560
19310TIP3   OH279420   1.284   6.044  11.311  0.0417  0.7346 -0.1466
19310TIP3    H179421   1.237   6.041  11.394 -1.1411 -0.0715 -0.8046
19310TIP3    H279422   1.225   6.000  11.249  1.9380 -0.8910 -0.8986
19311TIP3   OH279423   0.588   3.507   1.605  0.0149  0.0720 -0.0243
19311TIP3    H179424   0.604   3.535   1.696  0.7583  0.5787 -0.3005
19311TIP3    H279425   0.552   3.585   1.563  1.2285  0.3634 -0.5680
19312TIP3   OH279426   3.998   3.265   6.207 -0.0938 -0.2211  0.7456
19312TIP3    H179427   4.071   3.287   6.265  0.3226  1.2704 -0.2996
19312TIP3    H279428   3.923   3.313   6.244  0.0488  0.2914  0.3838
19313TIP3   OH279429   1.084   1.391  14.647 -0.3909  0.0068  0.6816
19313TIP3    H179430   1.175   1.405  14.620 -0.1074 -1.1323  0.9661
19313TIP3    H279431   1.032   1.441  14.585  0.2938 -1.6196 -1.3236
19314TIP3   OH279432   1.375   4.175  13.025 -0.3129 -0.5111  0.3092
19314TIP3    H179433   1.370   4.215  13.112  0.6212  0.3512 -0.0119
19314TIP3    H279434   1.441   4.107  13.033  2.5844  1.9762 -0.5510
19315TIP3   OH279435   5.658   4.589   3.775  0.0941  0.2767  0.0465
19315TIP3    H179436   5.630   4.528   3.706  0.1103 -0.9294  1.0893
19315TIP3    H279437   5.606   4.668   3.758 -2.9566 -1.3487  1.0136
19316TIP3   OH279438   4.841   1.491   3.979  0.3123 -0.4919  0.3133
19316TIP3    H179439   4.792   1.489   4.061  0.6443 -2.6251  0.5128
19316TIP3    H279440   4.932   1.504   4.006  0.5653 -2.2481  0.4124
19317TIP3   OH279441   5.509   3.171  11.978  0.2055 -0.4044 -0.2519
19317TIP3    H179442   5.528   3.159  11.885 -2.1647 -0.1149 -0.8522
19317TIP3    H279443   5.422   3.132  11.989 -0.1620  0.8242  1.5330
19318TIP3   OH279444   2.064   3.623  13.232 -0.0421  0.1703 -0.3672
19318TIP3    H179445   2.112   3.681  13.291  1.9939  0.0277 -1.7597
19318TIP3    H279446   2.089   3.653  13.144 -2.4598 -0.0275 -1.1765
19319TIP3   OH279447   3.148   2.686  13.367 -0.0738  0.5117  0.0706
19319TIP3    H179448   3.119   2.686  13.275 -0.8412 -0.6431  0.2876
19319TIP3    H279449   3.103   2.611  13.406 -0.2849  1.3781  1.5657
19320TIP3   OH279450   3.839   4.704   1.287 -0.1018 -0.1953  0.0756
19320TIP3    H179451   3.750   4.674   1.306 -0.1317 -0.4715 -0.4805
19320TIP3    H279452   3.894   4.627   1.302 -0.0463 -0.2277 -0.2824
19321TIP3   OH279453   2.870   2.845  11.217 -0.0600  0.3696 -0.5546
19321TIP3    H179454   2.789   2.889  11.193 -1.5814 -0.4289  2.5361
19321TIP3    H279455   2.891   2.880  11.304  0.4601 -2.5300  0.5876
19322TIP3   OH279456   5.041   1.920   1.497  0.3739 -0.0751 -0.1630
19322TIP3    H179457   5.136   1.931   1.499  0.3503  0.1024  0.8064
19322TIP3    H279458   5.028   1.827   1.481  0.6923  0.0263 -1.0571
19323TIP3   OH279459   2.450   5.250   3.823  0.3355 -0.6218 -0.1810
19323TIP3    H179460   2.544   5.242   3.841  0.0867 -0.0431  1.5206
19323TIP3    H279461   2.443   5.328   3.768  0.7734 -0.0522  0.5495
19324TIP3   OH279462   2.881   5.596   5.276 -0.3191 -0.3671 -0.3892
19324TIP3    H179463   2.960   5.651   5.268  1.1072 -1.8490  2.0853
19324TIP3    H279464   2.834   5.634   5.350 -0.7100 -0.9061 -0.3614
19325TIP3   OH279465   6.171   6.216  13.096  0.0964  0.1926 -0.1219
19325TIP3    H179466   6.174   6.120  13.096 -0.0747  0.1834 -0.4744
19325TIP3    H279467   6.165   6.239  13.003  0.5348  0.5608 -0.0608
19326TIP3   OH279468   1.233   6.380   3.347  0.2500  0.4218  0.5324
19326TIP3    H179469   1.201   6.459   3.304  1.0001  1.2731  1.4805
19326TIP3    H279470   1.154   6.334   3.377 -0.1584  1.7134  1.5121
19327TIP3   OH279471   0.499   4.763   5.369  0.1659  0.3300  0.6748
19327TIP3    H179472   0.563   4.693   5.377 -0.7306 -0.3996  1.7979
19327TIP3    H279473   0.550   4.844   5.379  1.3723 -0.0609 -1.6761
19328TIP3   OH279474   3.876   4.223   1.384 -0.5820  0.3658 -0.4988
19328TIP3    H179475   3.878   4.283   1.309  0.6225 -0.2526 -0.9875
19328TIP3    H279476   3.897   4.279   1.459 -2.1000  1.0509 -0.5381
19329TIP3   OH279477   3.910   0.475   4.496  0.3706  0.6927 -0.0205
19329TIP3    H179478   3.837   0.504   4.552  0.8524  1.2313  0.3441
19329TIP3    H279479   3.986   0.522   4.530  0.5266  1.7311 -1.6785
19330TIP3   OH279480   5.374   4.705  13.905  0.0105  0.0232 -0.5522
19330TIP3    H179481   5.297   4.696  13.848  1.3578 -1.2373 -2.2808
19330TIP3    H279482   5.356   4.644  13.977 -0.4728 -0.5146 -1.1098
19331TIP3   OH279483   5.530   3.032  15.861  0.3743  0.0161  0.7233
19331TIP3    H179484   5.455   3.084  15.891 -1.2058 -1.9463  0.3557
19331TIP3    H279485   5.502   2.994  15.778  1.9579 -0.4355  0.3584
19332TIP3   OH279486   4.943   6.402   3.043  0.1071  0.0241 -0.8375
19332TIP3    H179487   4.934   6.407   2.948  2.8143  0.1966 -1.1461
19332TIP3    H279488   4.990   6.320   3.059 -0.4427 -0.0769  0.3857
19333TIP3   OH279489   4.893   3.779   5.654 -0.3195 -0.3703 -0.1983
19333TIP3    H179490   4.962   3.738   5.602 -0.3155  0.6602 -1.0416
19333TIP3    H279491   4.939   3.843   5.708 -0.7871  2.0390 -2.4780
19334TIP3   OH279492   5.663   6.219  15.884 -0.5128 -0.3051  0.3310
19334TIP3    H179493   5.669   6.135  15.836 -0.3962 -0.8884  1.3433
19334TIP3    H279494   5.704   6.282  15.825 -2.6011 -0.4938 -1.4446
19335TIP3   OH279495   4.455   4.680  17.280  0.7449  0.1592 -0.3315
19335TIP3    H179496   4.359   4.678  17.283  0.7645 -1.0692  0.8398
19335TIP3    H279497   4.476   4.708  17.191 -0.7051  0.0292 -0.7449
19336TIP3   OH279498   4.669   3.645  16.272 -0.2282  0.5557 -0.5192
19336TIP3    H179499   4.601   3.698  16.313 -2.4536  0.2826 -3.5139
19336TIP3    H279500   4.742   3.706  16.259  0.4506  0.7474  3.1441
19337TIP3   OH279501   3.563   6.294   3.941  0.4748  0.0021 -0.0282
19337TIP3    H179502   3.490   6.245   3.980 -0.1659  2.0607  1.5988
19337TIP3    H279503   3.524   6.378   3.917  1.8615  0.3332 -1.1918
19338TIP3   OH279504   4.293   6.008  15.580 -0.2751  0.8008  0.0841
19338TIP3    H179505   4.231   5.963  15.637 -0.7231  2.0985  0.6602
19338TIP3    H279506   4.336   6.072  15.637  0.5890  0.8772 -0.6313
19339TIP3   OH279507   1.047   6.371  13.557  0.1215  0.1723  0.4876
19339TIP3    H179508   1.020   6.442  13.616  0.3456 -0.2211  1.0669
19339TIP3    H279509   1.026   6.404  13.470 -1.9827  0.0191  0.8662
19340TIP3   OH279510   2.567   5.163   4.492 -0.1814  0.1753 -0.1663
19340TIP3    H179511   2.595   5.250   4.463 -1.2424  0.0594 -1.6500
19340TIP3    H279512   2.648   5.116   4.509  0.4181  1.2768  0.1444
19341TIP3   OH279513   4.623   2.027   3.448  0.0584 -0.0315  0.1045
19341TIP3    H179514   4.536   1.987   3.450 -0.3284  0.6995 -1.2078
19341TIP3    H279515   4.606   2.121   3.439  0.9771  0.0686 -0.6730
19342TIP3   OH279516   3.824   3.191   1.683 -0.5469 -0.2001 -0.1846
19342TIP3    H179517   3.749   3.143   1.649 -1.4855  0.1891  1.2268
19342TIP3    H279518   3.882   3.123   1.718 -1.2708 -0.4224  0.6434
19343TIP3   OH279519   0.741   2.683   4.992 -0.4183 -0.2022  0.2048
19343TIP3    H179520   0.727   2.671   4.898 -2.2267 -0.6865  0.4920
19343TIP3    H279521   0.662   2.729   5.022 -1.1174 -2.3698  1.8983
19344TIP3   OH279522   0.647   1.022   0.176  1.0464 -0.5494  0.5392
19344TIP3    H179523   0.659   1.115   0.156 -0.0390 -0.6086 -0.4871
19344TIP3    H279524   0.623   1.020   0.269 -0.6284  0.3816  0.1718
19345TIP3   OH279525   6.047   0.111   0.822  0.3547  0.3475 -0.4351
19345TIP3    H179526   6.048   0.207   0.820  0.1901  0.4308  1.5299
19345TIP3    H279527   6.051   0.085   0.730 -0.4211  2.2510 -1.0570
19346TIP3   OH279528   1.931   6.617   2.280  0.2317  0.2875 -0.5591
19346TIP3    H179529   2.010   6.563   2.283  1.1537  1.4743 -1.8896
19346TIP3    H279530   1.931   6.654   2.191 -0.9887  1.5239 -0.0723
19347TIP3   OH279531   4.677   6.325  16.282 -0.0613  0.2344  0.2135
19347TIP3    H179532   4.667   6.246  16.335 -0.3864  0.4095  0.4196
19347TIP3    H279533   4.760   6.363  16.312  1.1046 -1.0274 -1.2278
19348TIP3   OH279534   5.746   3.800   0.156  0.2580  0.5991 -0.2479
19348TIP3    H179535   5.777   3.713   0.133 -0.6784  0.2140 -0.1328
19348TIP3    H279536   5.780   3.816   0.244  0.2945  0.2801 -0.2057
19349TIP3   OH279537   6.586   6.678  13.997 -0.0834 -0.3972 -0.3993
19349TIP3    H179538   6.672   6.644  14.024  0.0918 -0.7346 -1.3440
19349TIP3    H279539   6.598   6.772  13.990  1.1032 -0.6628 -3.4358
19350TIP3   OH279540   3.209   4.236  11.919  0.0848 -0.0860 -0.1242
19350TIP3    H179541   3.256   4.228  12.002 -1.1729  0.0900  0.6445
19350TIP3    H279542   3.203   4.331  11.904  0.7044 -0.1266 -0.6644
19351TIP3   OH279543   1.645   6.439   2.901  0.3557  0.1863  0.4583
19351TIP3    H179544   1.683   6.353   2.883  1.0787  0.5965 -0.0050
19351TIP3    H279545   1.644   6.483   2.816  3.2950  1.9432  1.1933
19352TIP3   OH279546   3.224   1.086  14.608 -0.8774 -0.1456  0.2248
19352TIP3    H179547   3.304   1.049  14.646 -0.7674 -0.3819 -0.2343
19352TIP3    H279548   3.156   1.021  14.625 -0.1412 -1.9622 -3.0325
19353TIP3   OH279549   2.786   5.274   4.799  0.0952 -1.0361  0.2000
19353TIP3    H179550   2.722   5.324   4.749 -0.2173 -0.5505  1.0529
19353TIP3    H279551   2.870   5.291   4.756  0.0792  0.6729  0.7788
19354TIP3   OH279552   6.380   1.904  16.406  0.2559  0.0109 -0.1791
19354TIP3    H179553   6.447   1.839  16.383  1.6522  0.8107  1.4076
19354TIP3    H279554   6.368   1.893  16.500 -0.0829  1.5161 -0.0240
19355TIP3   OH279555   0.191   2.864   1.068  0.3181 -0.4375 -0.6685
19355TIP3    H179556   0.106   2.892   1.032  0.4553  1.8772  0.6324
19355TIP3    H279557   0.181   2.769   1.079 -0.9889 -0.7255 -3.3188
19356TIP3   OH279558   2.243   4.419  12.779 -0.0331  0.6023  0.1253
19356TIP3    H179559   2.202   4.372  12.706  0.8630  0.6501 -0.4202
19356TIP3    H279560   2.226   4.511  12.761 -0.8121  0.5625  0.5999
19357TIP3   OH279561   5.960   4.734  15.565 -0.5415 -0.4703 -0.5941
19357TIP3    H179562   5.941   4.640  15.560 -4.2119  0.1281 -0.6971
19357TIP3    H279563   5.934   4.759  15.654 -1.4485  0.7201 -1.1625
19358TIP3   OH279564   5.948   3.109   4.489  0.4190  0.2140  0.5880
19358TIP3    H179565   5.875   3.094   4.429  0.0212  1.1679  0.8093
19358TIP3    H279566   5.909   3.102   4.576  0.9049 -0.7334  0.7496
19359TIP3   OH279567   3.136   5.257   4.261 -0.2392  0.6284  0.2197
19359TIP3    H179568   3.140   5.260   4.357  0.6895 -0.0255  0.2188
19359TIP3    H279569   3.108   5.344   4.235  2.2787  1.7418  0.9818
19360TIP3   OH279570   1.366   6.003  13.469 -0.2807  0.0129  0.4442
19360TIP3    H179571   1.425   5.930  13.488  1.9211  1.1937 -1.4557
19360TIP3    H279572   1.375   6.060  13.545  1.9994  0.7093 -0.2659
19361TIP3   OH279573   3.436   5.143   5.655 -0.2132 -0.4266  0.5250
19361TIP3    H179574   3.427   5.228   5.611 -1.4947  0.0711  1.6511
19361TIP3    H279575   3.367   5.089   5.617 -0.6598 -0.3224  1.1757
19362TIP3   OH279576   5.649   0.535   3.971 -0.0461  0.2513  0.2844
19362TIP3    H179577   5.618   0.485   3.895 -0.8017  0.8171  0.2009
19362TIP3    H279578   5.741   0.510   3.981 -0.3035 -0.8664  0.0243
19363TIP3   OH279579   2.271   0.522   4.972  0.1773 -0.4602  0.1485
19363TIP3    H179580   2.223   0.547   4.893  2.2226  0.2124 -0.9482
19363TIP3    H279581   2.356   0.565   4.963  0.7559 -1.0272  2.3510
19364TIP3   OH279582   0.371   6.414  15.228 -0.4004 -0.3530  0.0457
19364TIP3    H179583   0.326   6.333  15.252  0.7957 -0.1520  3.3905
19364TIP3    H279584   0.317   6.483  15.266  1.1988  0.0449  1.7152
19365TIP3   OH279585   1.551   1.217   5.282 -0.0725 -0.4225 -0.0126
19365TIP3    H179586   1.587   1.130   5.300  0.0154 -0.4013 -0.0877
19365TIP3    H279587   1.620   1.262   5.233 -0.2028 -0.3862 -0.1642
19366TIP3   OH279588   0.639   5.988  13.912  0.3592 -0.2504 -0.0758
19366TIP3    H179589   0.603   6.076  13.903  1.4729  0.5227  2.4137
19366TIP3    H279590   0.640   5.953  13.822 -3.2106  0.9517 -0.7346
19367TIP3   OH279591   3.607   5.228   2.608  0.0621 -0.4066 -0.3217
19367TIP3    H179592   3.613   5.275   2.691  0.4613 -0.9876 -0.0178
19367TIP3    H279593   3.697   5.220   2.578 -0.0525 -0.4906 -0.6433
19368TIP3   OH279594   0.194   6.155   6.368  0.2363 -0.1819 -0.0361
19368TIP3    H179595   0.273   6.171   6.317  0.4325 -0.5816  0.1357
19368TIP3    H279596   0.183   6.234   6.421  1.9102 -1.0628  1.7615
19369TIP3   OH279597   3.923   5.547   4.976 -0.3068 -0.3444  0.1551
19369TIP3    H179598   3.926   5.583   5.065  3.0455  0.3651 -0.1312
19369TIP3    H279599   3.901   5.455   4.989 -1.2687  0.0385  1.5737
19370TIP3   OH279600   3.149   5.716  15.990 -0.1401 -0.1519 -1.0206
19370TIP3    H179601   3.062   5.690  16.021 -0.0470 -0.7432 -1.2450
19370TIP3    H279602   3.136   5.740  15.899 -0.2612  0.7986 -0.7615
19371TIP3   OH279603   0.161   1.843  16.559  0.7839  0.5908  0.3114
19371TIP3    H179604   0.175   1.910  16.492 -1.1887 -0.6902 -1.4948
19371TIP3    H279605   0.229   1.778  16.542  0.3401  0.3091 -0.4084
19372TIP3   OH279606   5.149   0.516  14.124  0.2495  0.2760 -0.0879
19372TIP3    H179607   5.157   0.546  14.033  1.3217 -0.9799 -0.4463
19372TIP3    H279608   5.067   0.467  14.126  1.9485 -2.9150 -1.4442
19373TIP3   OH279609   6.434   3.428  10.912 -0.1058  0.0856 -0.8409
19373TIP3    H179610   6.362   3.474  10.954  0.6234  0.6424 -0.1810
19373TIP3    H279611   6.393   3.350  10.873 -1.6078  1.8766 -3.0766
19374TIP3   OH279612   2.447   3.960   4.367 -0.1358 -0.4571  0.2472
19374TIP3    H179613   2.419   3.977   4.277 -2.2332 -3.0403  0.2917
19374TIP3    H279614   2.372   3.985   4.420 -0.0144 -1.6310  0.9990
19375TIP3   OH279615   3.913   4.440   4.494  0.1167  0.1684 -0.0572
19375TIP3    H179616   3.973   4.489   4.438 -0.8122  0.7651 -0.5677
19375TIP3    H279617   3.895   4.500   4.567 -0.5208  0.3462 -0.3525
19376TIP3   OH279618   3.717   2.830   6.407 -0.0638 -0.5198  0.2327
19376TIP3    H179619   3.720   2.751   6.460  0.2000 -1.4472 -1.1135
19376TIP3    H279620   3.795   2.879   6.433  0.4371 -1.2945  0.2330
19377TIP3   OH279621   5.014   0.082   5.086  0.1944  0.0760  0.3490
19377TIP3    H179622   5.071   0.044   5.153  0.1033 -0.6875  0.0085
19377TIP3    H279623   4.926   0.052   5.110  0.2588 -0.8857 -0.5524
19378TIP3   OH279624   3.086   3.281  15.813  0.0812 -0.0942 -0.1759
19378TIP3    H179625   3.000   3.294  15.773 -0.4652 -1.3234  0.5303
19378TIP3    H279626   3.098   3.358  15.868 -2.4147 -1.5912  2.8046
19379TIP3   OH279627   2.152   3.526   3.254  0.7225 -0.0289  0.2166
19379TIP3    H179628   2.159   3.582   3.331  0.3180 -1.9498  1.7314
19379TIP3    H279629   2.088   3.459   3.278  0.7007 -0.7842 -1.7337
19380TIP3   OH279630   4.482   2.361   0.396  0.1891  0.4709  0.2893
19380TIP3    H179631   4.390   2.377   0.375  0.1081  0.7240  0.8275
19380TIP3    H279632   4.498   2.271   0.366 -0.4929  0.0865  1.0505
19381TIP3   OH279633   5.152   6.252  16.878  0.5861 -0.2553  0.0931
19381TIP3    H179634   5.061   6.279  16.894  0.0718 -1.1662 -1.1525
19381TIP3    H279635   5.167   6.271  16.786  2.3670  1.7594  0.7126
19382TIP3   OH279636   0.940   4.225   4.219  0.1994  0.4206 -0.4888
19382TIP3    H179637   0.896   4.149   4.257  1.0712 -0.3038 -0.8923
19382TIP3    H279638   0.937   4.291   4.288  0.2175 -0.2768  0.1918
19383TIP3   OH279639   2.295   6.370   4.296  0.2998 -0.0784 -0.1700
19383TIP3    H179640   2.385   6.369   4.264 -0.4981 -0.8439 -2.5735
19383TIP3    H279641   2.241   6.361   4.218 -1.9786  2.3611  0.9605
19384TIP3   OH279642   2.535   6.382  11.591  0.0912  0.2759  0.2521
19384TIP3    H179643   2.520   6.458  11.647  0.3695 -0.0671  0.7933
19384TIP3    H279644   2.467   6.320  11.616  0.8804 -0.3085  0.9788
19385TIP3   OH279645   3.905   4.341   3.701  0.2949 -0.8395  0.1521
19385TIP3    H179646   3.871   4.263   3.657 -0.0660 -0.4491 -0.2758
19385TIP3    H279647   3.997   4.320   3.718  0.7123 -0.6717 -1.6295
19386TIP3   OH279648   4.859   1.713   0.363 -0.7986  0.1618  0.0554
19386TIP3    H179649   4.855   1.787   0.302 -0.3539 -0.5451 -0.8662
19386TIP3    H279650   4.779   1.663   0.345  0.4976 -1.3997 -1.7868
19387TIP3   OH279651   6.753   4.130   3.837 -0.3542  0.2381  0.0473
19387TIP3    H179652   6.837   4.095   3.806 -1.3106 -1.0054 -1.2713
19387TIP3    H279653   6.756   4.223   3.815  0.2158 -0.0310 -1.0603
19388TIP3   OH279654   2.328   2.867   6.746 -0.5015 -0.2318  0.0100
19388TIP3    H179655   2.250   2.920   6.758 -1.7557 -2.2911  1.8826
19388TIP3    H279656   2.379   2.881   6.826  0.0505 -0.4428 -0.2975
19389TIP3   OH279657   6.461   1.338   5.511  0.8453 -0.4043  0.0497
19389TIP3    H179658   6.534   1.359   5.452  0.0662 -1.7184 -1.4390
19389TIP3    H279659   6.386   1.385   5.473  0.8801  0.9389  1.5692
19390TIP3   OH279660   1.028   0.380  11.628  0.4851 -0.5585  0.4871
19390TIP3    H179661   1.106   0.433  11.643 -0.3096  1.1228 -1.0308
19390TIP3    H279662   0.969   0.404  11.700  0.9464 -1.0698  1.0521
19391TIP3   OH279663   3.754   2.454   3.116  0.2236 -0.3709 -0.0435
19391TIP3    H179664   3.695   2.430   3.188  0.4597 -0.8616 -0.0112
19391TIP3    H279665   3.840   2.427   3.146  0.4980  0.4998 -0.0212
19392TIP3   OH279666   2.891   6.263   4.576  0.0066 -0.0067  0.3326
19392TIP3    H179667   2.882   6.204   4.501 -0.1162  0.2449  0.1496
19392TIP3    H279668   2.812   6.247   4.628  0.6308 -1.0197  1.0101
19393TIP3   OH279669   6.308   3.468   1.588  0.3087  0.1852 -0.1685
19393TIP3    H179670   6.279   3.509   1.670  1.1111  0.7390 -0.1516
19393TIP3    H279671   6.385   3.417   1.613  0.0702 -0.3028 -0.4293
19394TIP3   OH279672   5.308   5.103   4.593 -0.4022  0.8239  0.2832
19394TIP3    H179673   5.378   5.168   4.599 -0.9275  1.5257 -0.8904
19394TIP3    H279674   5.273   5.114   4.505  0.2066 -1.8051 -0.3824
19395TIP3   OH279675   4.560   1.713  13.109  0.4146 -0.3353  0.1419
19395TIP3    H179676   4.572   1.677  13.197  0.3173  0.3866  0.4535
19395TIP3    H279677   4.608   1.796  13.110 -0.6895  0.3158 -0.0729
19396TIP3   OH279678   6.025   0.461   5.089  0.1170  0.1031 -0.0279
19396TIP3    H179679   6.115   0.481   5.115 -0.1686 -0.8319  1.9078
19396TIP3    H279680   5.973   0.533   5.124  0.0479  0.3758 -0.6857
19397TIP3   OH279681   6.160   1.311  15.669  0.7959 -0.3951  0.6929
19397TIP3    H179682   6.082   1.352  15.633  0.9741 -1.4507 -1.0273
19397TIP3    H279683   6.219   1.384  15.689  1.5576  0.3178 -3.3083
19398TIP3   OH279684   1.204   1.436  16.997 -0.0381 -0.3635 -0.2638
19398TIP3    H179685   1.267   1.375  17.035 -0.2089 -1.1474 -1.2013
19398TIP3    H279686   1.203   1.510  17.057 -1.1204 -2.0124  1.8550
19399TIP3   OH279687   4.816   5.967   5.775 -0.1719  0.0361  0.3955
19399TIP3    H179688   4.906   5.937   5.787 -0.2241 -0.5273 -0.5412
19399TIP3    H279689   4.820   6.025   5.700 -0.8371 -1.2388 -0.6674
19400TIP3   OH279690   2.985   3.903  16.113 -0.1345 -0.5235  0.0238
19400TIP3    H179691   2.981   3.997  16.127 -0.1263 -0.5256  0.0389
19400TIP3    H279692   3.031   3.893  16.030  0.4004 -0.5371  0.3177
19401TIP3   OH279693   2.682   5.875   2.926  0.6035 -0.3403 -0.2123
19401TIP3    H179694   2.589   5.875   2.950  0.0727 -1.2075 -2.1078
19401TIP3    H279695   2.718   5.952   2.969 -1.3371  0.8798 -0.6784
19402TIP3   OH279696   3.087   5.950   5.700  0.3890  0.0259 -0.1562
19402TIP3    H179697   3.066   6.038   5.668 -0.9639  0.3584  1.4995
19402TIP3    H279698   3.018   5.930   5.763  2.0143 -1.2065  1.3545
19403TIP3   OH279699   2.670   0.795   0.271 -0.2706 -0.1693  0.1071
19403TIP3    H179700   2.752   0.821   0.314  0.3897 -1.2460 -0.4628
19403TIP3    H279701   2.680   0.701   0.255 -1.0017 -0.0296 -1.3002
19404TIP3   OH279702   0.726   4.073   2.291  0.0440  0.2590  0.0916
19404TIP3    H179703   0.812   4.109   2.272  0.0797 -0.2617 -0.7827
19404TIP3    H279704   0.742   3.991   2.336  0.0376 -0.2949 -0.8899
19405TIP3   OH279705   2.522   4.161   3.311  0.5572 -0.4246 -0.4535
19405TIP3    H179706   2.456   4.150   3.244  0.0918 -0.0871 -0.0566
19405TIP3    H279707   2.567   4.242   3.288  0.3798 -0.2948 -0.3390
19406TIP3   OH279708   1.641   3.685  16.067  0.1101  0.5258  0.4195
19406TIP3    H179709   1.680   3.734  16.140  1.8154 -0.5178  0.2470
19406TIP3    H279710   1.553   3.723  16.058  0.9076  2.7040  1.0786
19407TIP3   OH279711   1.939   4.433   0.755 -0.2290 -0.1381 -0.3202
19407TIP3    H179712   1.954   4.417   0.662  1.8054  4.0883 -0.9743
19407TIP3    H279713   1.871   4.501   0.757  1.1822  1.3307  1.0262
19408TIP3   OH279714   4.708   2.020   5.732 -0.2810 -0.0171 -0.0661
19408TIP3    H179715   4.682   2.016   5.824  1.4117 -0.7646  0.4167
19408TIP3    H279716   4.727   1.930   5.708  1.0265  0.3723 -0.5916
19409TIP3   OH279717   3.305   1.531   4.109  0.4157 -0.0934 -0.3024
19409TIP3    H179718   3.312   1.529   4.014  0.4946 -1.0010 -0.2836
19409TIP3    H279719   3.380   1.480   4.139 -0.1228 -0.5890  0.2185
19410TIP3   OH279720   3.004   0.875   2.666 -0.5979 -0.7605 -0.3012
19410TIP3    H179721   3.040   0.789   2.691  0.0939 -0.8365 -1.4845
19410TIP3    H279722   3.033   0.887   2.576 -0.9130  0.6084 -0.2325
19411TIP3   OH279723   4.025   4.346  14.976 -0.1419  0.2192  0.0467
19411TIP3    H179724   4.057   4.310  15.058 -0.8230 -0.4580  0.0272
19411TIP3    H279725   4.006   4.438  14.996 -2.8778 -0.5312  1.4521
19412TIP3   OH279726   3.529   5.600  12.576  0.6720  0.1025  0.0780
19412TIP3    H179727   3.471   5.560  12.511  0.4969  0.4487  0.0139
19412TIP3    H279728   3.477   5.601  12.657  1.2040 -1.1201  0.4506
19413TIP3   OH279729   5.903   2.538   0.682 -0.0920  0.3844  0.3371
19413TIP3    H179730   5.845   2.614   0.690 -0.9577 -0.2298  0.0416
19413TIP3    H279731   5.926   2.516   0.772 -1.5359 -0.2717  0.5736
19414TIP3   OH279732   3.831   4.347  11.470 -0.4524  0.1644  0.0871
19414TIP3    H179733   3.816   4.314  11.558 -0.5024  1.5636  0.6253
19414TIP3    H279734   3.925   4.364  11.466 -0.2064 -1.1722 -0.6205
19415TIP3   OH279735   5.495   1.223  12.354  1.1180  0.0768 -0.0396
19415TIP3    H179736   5.537   1.228  12.268  1.7599 -1.1608  0.1736
19415TIP3    H279737   5.514   1.134  12.385  0.0352  0.1605  0.9460
19416TIP3   OH279738   5.676   1.256  14.801  0.0508 -0.4363 -0.7686
19416TIP3    H179739   5.623   1.184  14.766 -2.8609  0.0195  2.1646
19416TIP3    H279740   5.652   1.332  14.749  0.0126 -0.7822 -1.2655
19417TIP3   OH279741   2.098   2.981  16.029  0.4554 -0.2739  0.0565
19417TIP3    H179742   2.042   3.058  16.030  0.7077 -0.0397 -1.5324
19417TIP3    H279743   2.047   2.913  16.074 -2.4267 -0.9264 -3.6996
19418TIP3   OH279744   4.032   5.219   1.122 -0.2059  0.0128 -0.0216
19418TIP3    H179745   4.058   5.295   1.071 -1.4702  0.6956  0.3060
19418TIP3    H279746   3.944   5.197   1.089 -0.8942  0.2311  1.5551
19419TIP3   OH279747   6.391   4.971  14.966 -0.2734  0.0599 -0.2170
19419TIP3    H179748   6.368   4.988  15.058  0.2817 -3.7031  0.7954
19419TIP3    H279749   6.460   5.034  14.947 -0.8166  1.3402  1.7403
19420TIP3   OH279750   1.245   2.311  15.456  0.1015 -0.4798 -0.0139
19420TIP3    H179751   1.212   2.276  15.538 -1.2318  0.3865 -0.1520
19420TIP3    H279752   1.207   2.255  15.389 -0.6073  0.1292 -0.1380
19421TIP3   OH279753   5.175   1.686  15.589  0.3650  0.2866  0.6370
19421TIP3    H179754   5.209   1.603  15.554  0.3627  0.3153  0.5649
19421TIP3    H279755   5.132   1.727  15.513 -0.0329  0.1417  0.7802
19422TIP3   OH279756   4.088   5.589   4.132  0.0403 -0.0885 -0.1762
19422TIP3    H179757   4.126   5.579   4.219 -1.0062 -0.5248  0.2459
19422TIP3    H279758   4.061   5.681   4.128  0.1160 -0.0613 -0.0653
19423TIP3   OH279759   6.178   5.832   0.673 -0.0916  0.1481 -0.5402
19423TIP3    H179760   6.263   5.859   0.708 -0.1403  0.6809 -0.8147
19423TIP3    H279761   6.118   5.838   0.747 -0.3241  1.8895 -0.8312
19424TIP3   OH279762   4.776   5.475   1.222 -0.3418  0.0135  0.1952
19424TIP3    H179763   4.763   5.478   1.317 -3.5237 -0.2552 -0.1386
19424TIP3    H279764   4.785   5.566   1.196  0.0147  0.1199  0.6716
19425TIP3   OH279765   5.482   0.358   4.879  0.2866 -0.3781 -0.2271
19425TIP3    H179766   5.426   0.383   4.952 -0.8070  0.1658 -1.2107
19425TIP3    H279767   5.465   0.265   4.866  0.8106 -0.5780  0.4691
19426TIP3   OH279768   2.745   2.300   5.351 -0.2402  0.1003 -0.1847
19426TIP3    H179769   2.739   2.388   5.387  2.3813  0.3146 -0.1001
19426TIP3    H279770   2.656   2.266   5.356 -0.5968  1.1847  3.7235
19427TIP3   OH279771   5.919   1.292   6.018 -0.2969  0.0784  0.5600
19427TIP3    H179772   5.871   1.355   6.072  0.4001  0.4680  0.7296
19427TIP3    H279773   5.942   1.340   5.939 -0.8382 -0.3342  0.1412
19428TIP3   OH279774   0.627   3.151  11.210  0.5023  0.1167  0.2784
19428TIP3    H179775   0.686   3.121  11.280  0.7953 -0.0318 -0.0330
19428TIP3    H279776   0.602   3.070  11.165  1.2102  0.3205 -0.4984
19429TIP3   OH279777   2.960   2.841  15.152  0.1515  0.7251 -0.0987
19429TIP3    H179778   2.900   2.910  15.180  0.6546  0.1452  2.6661
19429TIP3    H279779   3.040   2.857  15.202  0.8305 -0.9520 -0.5856
19430TIP3   OH279780   4.322   6.044   0.092 -0.5764  0.0856 -0.0796
19430TIP3    H179781   4.316   6.120   0.149 -2.5031 -2.6130  3.7531
19430TIP3    H279782   4.264   6.064   0.019 -0.9480  2.2749  0.7483
19431TIP3   OH279783   6.401   6.120   3.770  0.2743 -0.1298 -0.3804
19431TIP3    H179784   6.486   6.130   3.813  0.1198  1.4362 -0.3800
19431TIP3    H279785   6.414   6.050   3.706  1.5135  0.0118 -0.2939
19432TIP3   OH279786   1.434   4.540  16.670 -0.3512  0.6148  0.1587
19432TIP3    H179787   1.464   4.469  16.615 -0.7496  0.7196 -0.2060
19432TIP3    H279788   1.432   4.504  16.758  1.0025  0.6686  0.2214
19433TIP3   OH279789   5.783   3.162   5.284 -0.0498 -0.3133 -0.2017
19433TIP3    H179790   5.748   3.074   5.298  1.5872 -1.0964 -0.8242
19433TIP3    H279791   5.770   3.179   5.191  1.2822 -0.6481 -0.4551
19434TIP3   OH279792   1.928   6.747  11.971 -0.2786 -0.0987 -0.0910
19434TIP3    H179793   1.941   6.679  12.036 -0.3487 -0.5133 -0.5010
19434TIP3    H279794   1.931   6.829  12.020  2.3824 -0.2147  0.0628
19435TIP3   OH279795   4.184   5.910  16.041 -0.0313 -0.3226  0.4349
19435TIP3    H179796   4.271   5.882  16.069  0.8891  0.1455 -1.6983
19435TIP3    H279797   4.170   5.993  16.086  0.8380 -0.1987  0.5057
19436TIP3   OH279798   6.476   4.831   0.173  0.2396  0.5996 -0.1729
19436TIP3    H179799   6.557   4.873   0.203  0.0553  0.4992  0.4949
19436TIP3    H279800   6.422   4.826   0.252 -1.3386  2.7127 -1.0041
19437TIP3   OH279801   1.715   1.528  16.626 -0.1676  0.4517  0.1231
19437TIP3    H179802   1.728   1.437  16.599  0.7221  0.7545 -0.5248
19437TIP3    H279803   1.754   1.534  16.713  1.2780  0.5920 -0.5123
19438TIP3   OH279804   0.204   6.310  13.370 -0.0142  1.0321 -0.1556
19438TIP3    H179805   0.257   6.230  13.373 -0.4843  0.7323  0.1959
19438TIP3    H279806   0.116   6.280  13.349  0.1132  1.6183 -1.6676
19439TIP3   OH279807   2.964   0.789   4.706  1.1051  0.2138  0.0801
19439TIP3    H179808   2.952   0.806   4.612 -0.4288 -0.8860  0.0419
19439TIP3    H279809   2.937   0.699   4.718  0.0103  0.7207  1.7953
19440TIP3   OH279810   3.117   6.322  16.923  0.1988  0.1568  0.0361
19440TIP3    H179811   3.083   6.392  16.867 -1.0219 -2.9382 -3.5124
19440TIP3    H279812   3.041   6.295  16.975  0.3146  0.5288  0.4084
19441TIP3   OH279813   1.887   0.209   1.994 -0.5841  0.0561  0.7329
19441TIP3    H179814   1.970   0.187   2.035 -0.7778  1.4966  1.9679
19441TIP3    H279815   1.823   0.209   2.066 -1.4904 -0.1455 -0.0444
19442TIP3   OH279816   3.961   3.004  15.200  0.2426  0.1349  0.1939
19442TIP3    H179817   3.893   2.976  15.262  0.0149 -0.6562 -0.3996
19442TIP3    H279818   3.987   2.924  15.155 -0.5712  0.8755 -1.7071
19443TIP3   OH279819   1.505   6.266   1.261  0.0248  0.8646 -0.0908
19443TIP3    H179820   1.414   6.239   1.257  0.1460  0.5437 -0.9170
19443TIP3    H279821   1.537   6.231   1.344 -1.1207  2.6988  1.1901
19444TIP3   OH279822   3.774   3.470  11.028  0.2003 -0.1863 -0.3270
19444TIP3    H179823   3.836   3.407  11.066  1.1387  0.8963 -0.0105
19444TIP3    H279824   3.805   3.481  10.938 -0.6032 -0.9645 -0.7094
19445TIP3   OH279825   0.215   6.703  13.395  0.0229  0.2104  0.1091
19445TIP3    H179826   0.144   6.737  13.449  0.3389 -1.3029  1.5619
19445TIP3    H279827   0.294   6.726  13.443  0.4378  0.6377 -0.7734
19446TIP3   OH279828   4.063   3.876   0.819 -0.1625 -0.5177  0.5716
19446TIP3    H179829   4.018   3.886   0.735  0.2779  0.1200  0.4042
19446TIP3    H279830   4.069   3.781   0.833  0.2775 -0.6360 -0.3945
19447TIP3   OH279831   4.147   3.445   1.084 -0.1671 -0.4501 -0.8208
19447TIP3    H179832   4.182   3.356   1.084 -0.8645 -0.7967  1.3677
19447TIP3    H279833   4.089   3.448   1.160 -0.5391  1.7512 -1.1104
19448TIP3   OH279834   4.157   4.870  16.000  0.5031  0.4010  0.2893
19448TIP3    H179835   4.215   4.918  15.941  1.2229 -0.3407  0.3770
19448TIP3    H279836   4.099   4.821  15.942  0.5110  0.5001  0.1971
19449TIP3   OH279837   2.053   2.691   0.597  0.3672 -0.1444  0.5264
19449TIP3    H179838   2.096   2.776   0.601 -1.6256  0.9584 -0.1260
19449TIP3    H279839   2.009   2.690   0.512  1.0700 -2.2302  0.1236
19450TIP3   OH279840   4.363   5.086  13.778  0.0529 -0.1362 -0.5318
19450TIP3    H179841   4.334   5.139  13.704 -1.4460 -0.2303 -0.0430
19450TIP3    H279842   4.451   5.118  13.797 -0.3879  1.4139 -0.9651
19451TIP3   OH279843   6.359   2.387  12.677 -0.6578  0.0191  0.8216
19451TIP3    H179844   6.403   2.403  12.594 -0.4905 -1.3165  0.6454
19451TIP3    H279845   6.422   2.415  12.744  0.5580 -1.9694  0.5832
19452TIP3   OH279846   1.057   1.704  13.038 -0.7499  0.1510 -0.3095
19452TIP3    H179847   1.041   1.797  13.022 -1.2222  0.3680  1.2529
19452TIP3    H279848   0.977   1.660  13.007  0.0591  0.0462 -2.4585
19453TIP3   OH279849   2.229   2.912  13.254 -0.4399 -0.2712  0.1793
19453TIP3    H179850   2.312   2.956  13.275  0.1795 -1.4748  0.3019
19453TIP3    H279851   2.196   2.960  13.178  0.5348  0.0105 -0.0847
19454TIP3   OH279852   5.804   5.000  15.146 -0.1571 -0.5014 -0.1416
19454TIP3    H179853   5.888   4.976  15.106  0.3411 -0.0779  0.6194
19454TIP3    H279854   5.803   5.096  15.143  0.0116 -0.4428  1.0678
19455TIP3   OH279855   0.765   6.744  13.388 -0.4320  0.4680  0.1448
19455TIP3    H179856   0.745   6.726  13.479 -0.3320 -0.1475  0.0544
19455TIP3    H279857   0.823   6.820  13.390  1.1582 -0.7092  0.7376
19456TIP3   OH279858   1.177   3.445   2.715  0.2477 -0.3387  0.1040
19456TIP3    H179859   1.196   3.465   2.807  0.8527 -0.6911  0.0568
19456TIP3    H279860   1.100   3.388   2.719 -0.5486  0.7079  0.3151
19457TIP3   OH279861   6.041   2.180   2.309  0.1591  0.5374 -0.0403
19457TIP3    H179862   5.976   2.141   2.367 -0.4197  1.1236 -0.2764
19457TIP3    H279863   6.060   2.113   2.244  0.7858 -0.1144  0.7974
19458TIP3   OH279864   3.903   3.706   4.364 -0.3140 -0.0070  0.0719
19458TIP3    H179865   3.950   3.625   4.384 -0.7913 -0.2456  0.2567
19458TIP3    H279866   3.945   3.740   4.284 -0.6769 -0.8993 -0.5124
19459TIP3   OH279867   0.987   2.287   0.580  1.0997  0.3404  0.3285
19459TIP3    H179868   0.908   2.276   0.634 -0.3361 -1.4663 -1.9778
19459TIP3    H279869   0.959   2.345   0.509  2.2216  0.6615  0.1307
19460TIP3   OH279870   3.359   5.954   5.630  0.8154  0.6008 -0.2076
19460TIP3    H179871   3.364   6.048   5.611  0.4959  0.6056 -0.2721
19460TIP3    H279872   3.275   5.943   5.675  0.3382  0.1779 -1.1649
19461TIP3   OH279873   6.664   1.719  13.488  0.2255 -0.4909 -0.3610
19461TIP3    H179874   6.741   1.715  13.430  1.2882 -1.7351  1.0360
19461TIP3    H279875   6.594   1.754  13.433  1.4042 -0.7776 -2.1359
19462TIP3   OH279876   4.988   3.042  16.265 -0.2477 -0.3344 -0.4573
19462TIP3    H179877   4.922   2.978  16.292 -1.6518 -0.1492 -3.1560
19462TIP3    H279878   5.071   3.002  16.292 -1.2501 -2.0567  0.2768
19463TIP3   OH279879   1.597   5.483   2.346 -0.9072 -0.0219 -0.1552
19463TIP3    H179880   1.632   5.566   2.315 -0.1916 -0.7613 -1.4083
19463TIP3    H279881   1.674   5.427   2.357 -1.4344 -0.7412 -0.0557
19464TIP3   OH279882   0.889   5.996  11.784 -0.4062  0.2967  0.6165
19464TIP3    H179883   0.880   5.968  11.693  1.5281 -1.2707  0.8485
19464TIP3    H279884   0.806   5.971  11.825 -0.9929  0.3132 -0.5152
19465TIP3   OH279885   3.204   0.999   2.845  0.2970 -0.5827  0.3358
19465TIP3    H179886   3.227   0.910   2.817  1.6978 -0.5016  1.1772
19465TIP3    H279887   3.181   0.990   2.938  1.6377  0.1084  0.7555
19466TIP3   OH279888   1.190   2.384   1.309  0.6042  0.4362 -0.3690
19466TIP3    H179889   1.227   2.396   1.221  0.4136  1.5905 -0.3044
19466TIP3    H279890   1.117   2.446   1.313 -0.1413 -0.4560  0.1887
19467TIP3   OH279891   5.355   1.322   6.048 -0.3584  0.4487  0.3512
19467TIP3    H179892   5.364   1.230   6.075 -0.7921  0.0085 -0.9422
19467TIP3    H279893   5.293   1.359   6.111  0.7412  0.2025  1.6337
19468TIP3   OH279894   5.058   6.647   5.943  0.1385  0.2453 -0.0963
19468TIP3    H179895   5.023   6.578   5.999 -1.5255  0.8027 -0.3940
19468TIP3    H279896   5.148   6.619   5.924 -0.5727 -2.0383 -0.5105
19469TIP3   OH279897   1.498   2.164   2.655 -0.0394 -0.3563  0.2676
19469TIP3    H179898   1.573   2.105   2.648 -0.9340 -1.5586  0.5388
19469TIP3    H279899   1.454   2.138   2.736 -1.1765 -0.1915 -0.2684
19470TIP3   OH279900   5.672   3.717  11.730  0.7691 -0.1576  0.0328
19470TIP3    H179901   5.745   3.687  11.784 -0.7536  0.4313  2.5931
19470TIP3    H279902   5.614   3.641  11.724 -1.1687  0.8934  3.1361
19471TIP3   OH279903   3.215   5.963  15.310  0.7509  0.2811 -0.1930
19471TIP3    H179904   3.141   5.932  15.258  0.8024  1.8091 -1.2529
19471TIP3    H279905   3.289   5.909  15.282  0.1220 -1.0899  0.6896
19472TIP3   OH279906   3.875   4.364  15.666 -0.3289 -0.5972 -0.8239
19472TIP3    H179907   3.861   4.451  15.628  0.0378 -1.2482 -2.5747
19472TIP3    H279908   3.967   4.366  15.694 -0.2366 -0.4989 -1.1207
19473TIP3   OH279909   1.436   0.409  15.816  0.3151 -0.0520 -0.1402
19473TIP3    H179910   1.380   0.482  15.789  1.2328  0.2004 -1.4482
19473TIP3    H279911   1.398   0.379  15.898 -0.8737  1.0392 -0.2609
19474TIP3   OH279912   4.396   5.361  16.137  0.0582  0.0398  0.1385
19474TIP3    H179913   4.348   5.281  16.115 -0.2432  0.4402 -0.6836
19474TIP3    H279914   4.454   5.335  16.208 -1.1658 -0.5318  0.9679
19475TIP3   OH279915   6.239   3.748   1.505  0.7685 -0.2652  0.0886
19475TIP3    H179916   6.258   3.702   1.424 -0.7130 -1.1472  0.2173
19475TIP3    H279917   6.192   3.685   1.559 -1.6668  1.4444  0.1382
19476TIP3   OH279918   4.214   4.347   4.452 -0.1642  0.1449  0.0810
19476TIP3    H179919   4.160   4.410   4.404 -0.4864  0.6878  1.1120
19476TIP3    H279920   4.168   4.335   4.535  1.0108  0.1956  0.7634
19477TIP3   OH279921   6.763   0.517   6.010  0.2298 -0.3683 -0.4379
19477TIP3    H179922   6.691   0.570   5.976  2.6490  2.9726 -0.7762
19477TIP3    H279923   6.770   0.541   6.102  0.4328 -1.3181 -0.1932
19478TIP3   OH279924   4.255   4.652  11.676  0.4293  0.0779 -0.2257
19478TIP3    H179925   4.219   4.677  11.762 -0.9702 -0.0985 -0.7430
19478TIP3    H279926   4.261   4.735  11.628  0.4388  0.0691 -0.2401
19479TIP3   OH279927   6.170   2.934   4.452 -0.3022  0.0391  0.0164
19479TIP3    H179928   6.116   3.013   4.457  1.2137  1.0386  2.4289
19479TIP3    H279929   6.146   2.883   4.530  0.5343 -0.6489 -0.1577
19480TIP3   OH279930   0.759   1.637   3.273 -0.3760 -0.0081  0.4208
19480TIP3    H179931   0.799   1.603   3.193  0.9678 -0.1376  1.1182
19480TIP3    H279932   0.789   1.578   3.341  0.0057  1.1598  1.2955
19481TIP3   OH279933   3.523   2.865  12.253  0.5153  0.5675 -0.0198
19481TIP3    H179934   3.519   2.778  12.293 -3.1689  0.8006  0.4669
19481TIP3    H279935   3.514   2.925  12.327  0.9199  1.2911 -0.5494
19482TIP3   OH279936   1.861   4.330   1.681 -0.1996 -0.5395 -0.6836
19482TIP3    H179937   1.944   4.285   1.695 -0.4298 -0.7934 -0.1104
19482TIP3    H279938   1.821   4.283   1.608  0.1099 -0.4824 -0.8934
19483TIP3   OH279939   1.137   5.719  12.743  0.2450  0.1327  0.0618
19483TIP3    H179940   1.120   5.716  12.837  0.3744 -1.4428  0.0621
19483TIP3    H279941   1.104   5.635  12.710  1.0763  0.2583 -1.1487
19484TIP3   OH279942   5.015   6.742  16.702  0.7381 -0.1036  0.0262
19484TIP3    H179943   5.083   6.678  16.679  0.1385 -1.1470  1.0407
19484TIP3    H279944   5.001   6.792  16.621  1.0457 -1.4293 -0.8768
19485TIP3   OH279945   5.714   0.420   1.871 -0.0678 -0.2476  0.0456
19485TIP3    H179946   5.630   0.433   1.915  0.8836  1.4322  1.4545
19485TIP3    H279947   5.710   0.476   1.793  0.1170  0.6482  0.6675
19486TIP3   OH279948   3.157   3.535  15.325  0.0488 -0.1030 -0.0314
19486TIP3    H179949   3.117   3.520  15.411 -0.6601 -0.4106 -0.4039
19486TIP3    H279950   3.084   3.529  15.263  0.5899 -0.1437 -0.6796
19487TIP3   OH279951   4.095   2.877  15.871 -0.2270  0.3171 -0.5868
19487TIP3    H179952   4.123   2.941  15.805 -1.9543  0.6953 -1.0134
19487TIP3    H279953   4.160   2.807  15.866  1.8466  2.0907  0.0268
19488TIP3   OH279954   3.411   2.796  14.535  0.1661 -0.1835  0.2318
19488TIP3    H179955   3.429   2.736  14.462 -0.1526  0.2337 -0.1941
19488TIP3    H279956   3.434   2.746  14.613 -0.4550 -1.0008 -0.0942
19489TIP3   OH279957   4.985   6.527   0.235  0.6772 -0.4319 -0.4981
19489TIP3    H179958   4.942   6.471   0.170 -0.7203  0.2410 -0.1975
19489TIP3    H279959   4.920   6.537   0.304  1.9870 -0.7922  0.8358
19490TIP3   OH279960   3.754   3.401  12.272 -0.1312 -0.3905  0.1798
19490TIP3    H179961   3.793   3.434  12.353  0.4437 -2.1887  0.6775
19490TIP3    H279962   3.819   3.421  12.205  1.9479 -3.5427  1.0345
19491TIP3   OH279963   1.779   1.193  15.490 -0.4773 -0.2824  0.1460
19491TIP3    H179964   1.806   1.267  15.543  0.2548 -1.1893  1.0795
19491TIP3    H279965   1.686   1.181  15.510 -1.2617  1.8035 -1.8084
19492TIP3   OH279966   1.630   4.862   1.555 -0.6559  0.9773 -0.0651
19492TIP3    H179967   1.652   4.787   1.501 -0.8330 -0.0715  1.2750
19492TIP3    H279968   1.540   4.885   1.530 -1.2214 -0.3212  0.6411
19493TIP3   OH279969   3.529   2.467   2.903  0.3019 -0.6549 -0.9570
19493TIP3    H179970   3.599   2.433   2.848 -0.2779 -1.9976 -0.8995
19493TIP3    H279971   3.564   2.465   2.992  0.2599 -1.1393 -0.9505
19494TIP3   OH279972   6.383   0.696   4.009  0.4952  0.2380 -0.4651
19494TIP3    H179973   6.302   0.745   4.024  1.2285  1.0619  0.8890
19494TIP3    H279974   6.402   0.710   3.916 -0.2970  0.9536 -0.5328
19495TIP3   OH279975   5.945   1.470  15.594 -0.0332 -0.5909 -0.2503
19495TIP3    H179976   5.863   1.423  15.581 -0.9838  1.4955 -2.5540
19495TIP3    H279977   5.919   1.558  15.620  1.5622 -0.3504  0.6709
19496TIP3   OH279978   0.702   4.363  12.622  0.1515  0.3052 -0.0595
19496TIP3    H179979   0.769   4.431  12.622  0.1406  0.5541 -4.2477
19496TIP3    H279980   0.652   4.379  12.703  2.0897  3.1999  0.7296
19497TIP3   OH279981   5.355   0.748  15.247 -0.5218 -0.1607  0.0022
19497TIP3    H179982   5.392   0.767  15.334 -1.1330 -1.5089  0.5829
19497TIP3    H279983   5.419   0.784  15.186 -0.5154  1.6296  1.0021
19498TIP3   OH279984   2.336   1.347  15.357  0.4172 -0.4088  0.2177
19498TIP3    H179985   2.377   1.431  15.336 -1.8540  0.8132  0.2739
19498TIP3    H279986   2.368   1.325  15.444  1.0930  0.3871  0.1807
19499TIP3   OH279987   4.254   0.077  12.116 -0.6590  0.1846  0.4065
19499TIP3    H179988   4.239   0.059  12.023 -2.0844  0.0970  0.6336
19499TIP3    H279989   4.282   0.169  12.119 -1.9146  0.5969 -0.0069
19500TIP3   OH279990   6.681   0.286   0.557 -0.4285  0.4231  0.0115
19500TIP3    H179991   6.757   0.327   0.599  0.4594 -0.0825 -1.0759
19500TIP3    H279992   6.643   0.231   0.626  1.1291 -0.5584  0.1272
19501TIP3   OH279993   2.806   4.056   3.686 -0.0378  0.5492 -0.3838
19501TIP3    H179994   2.718   4.049   3.651  0.1703  2.1404 -1.3153
19501TIP3    H279995   2.797   4.112   3.763  0.0766  0.1738 -0.0915
19502TIP3   OH279996   6.404   6.236  12.389  0.6609 -0.3710 -0.1233
19502TIP3    H179997   6.428   6.252  12.480  1.5591  0.3887 -0.4716
19502TIP3    H279998   6.309   6.245  12.386  0.5788 -0.8934  0.8293
19503TIP3   OH279999   1.289   4.166   4.617  0.1286 -0.1163 -0.4765
19503TIP3    H180000   1.308   4.162   4.711 -0.6799  1.3842 -0.2154
19503TIP3    H280001   1.219   4.102   4.604 -0.5813  0.5077  0.1873
19504TIP3   OH280002   0.285   0.082  15.424  0.1535 -0.7263 -0.3672
19504TIP3    H180003   0.207   0.059  15.475 -0.0786 -1.1800 -0.9154
19504TIP3    H280004   0.294   0.176  15.436  0.0565 -0.8161  0.4474
19505TIP3   OH280005   4.026   5.668   4.736  0.4950 -0.6278 -0.8360
19505TIP3    H180006   4.029   5.710   4.822  1.1192 -0.1520 -1.0837
19505TIP3    H280007   3.977   5.587   4.750 -0.7343  0.1701 -0.3488
19506TIP3   OH280008   4.981   5.995  15.012 -0.1104 -0.2724  0.1071
19506TIP3    H180009   5.013   6.071  14.963 -0.4218  0.4182  0.9494
19506TIP3    H280010   4.888   5.990  14.992 -0.1258 -0.3264  0.1922
19507TIP3   OH280011   4.912   4.090  15.587 -0.1234 -0.5367 -0.3129
19507TIP3    H180012   4.826   4.059  15.561 -0.3998  0.0187 -0.0924
19507TIP3    H280013   4.920   4.176  15.545 -0.1347 -0.1120  0.5224
19508TIP3   OH280014   0.365   6.496  16.975 -0.1736 -0.5421 -0.0772
19508TIP3    H180015   0.396   6.408  16.997 -0.2656 -1.2522 -2.5211
19508TIP3    H280016   0.443   6.542  16.944 -0.4936 -0.4270 -0.7218
19509TIP3   OH280017   6.565   1.315  14.756  0.6955 -0.1639  0.9112
19509TIP3    H180018   6.634   1.254  14.728  2.2522  1.2322  1.5505
19509TIP3    H280019   6.531   1.351  14.674  3.6283  2.1612  0.5131
19510TIP3   OH280020   0.868   4.280   5.118  0.1233  0.1033 -0.9087
19510TIP3    H180021   0.942   4.328   5.156 -1.3189  2.2348 -0.5974
19510TIP3    H280022   0.864   4.199   5.168  1.3627  0.5995  0.0607
19511TIP3   OH280023   5.452   6.586   2.359 -0.0420 -0.2996 -0.5970
19511TIP3    H180024   5.527   6.537   2.393 -0.0530  1.3235  2.0813
19511TIP3    H280025   5.375   6.541   2.394 -0.0714  0.9927  1.1804
19512TIP3   OH280026   6.729   6.025  15.039 -0.2685  0.5216 -0.5198
19512TIP3    H180027   6.802   6.009  15.099 -0.1014 -0.9215 -1.0752
19512TIP3    H280028   6.770   6.046  14.956 -0.4809  0.3448 -0.6711
19513TIP3   OH280029   1.257   3.734   3.317 -0.0087 -0.8254 -0.0482
19513TIP3    H180030   1.171   3.756   3.352  0.9514  2.0308  0.7320
19513TIP3    H280031   1.240   3.706   3.227 -1.7698 -0.7167  0.2276
19514TIP3   OH280032   3.804   1.669  11.349 -0.4454  0.0718  0.1453
19514TIP3    H180033   3.765   1.687  11.435 -1.4337 -0.8694 -0.0914
19514TIP3    H280034   3.766   1.586  11.322 -1.4698  1.1566 -1.9763
19515TIP3   OH280035   4.618   3.734  15.682  0.0754  0.2964  0.5514
19515TIP3    H180036   4.598   3.823  15.654  0.7625  0.1007 -0.5975
19515TIP3    H280037   4.532   3.693  15.695 -0.2416  1.0012  0.7228
19516TIP3   OH280038   0.330   3.568   1.750  0.1163 -0.2539 -0.2186
19516TIP3    H180039   0.291   3.639   1.802  1.1916  0.5291 -0.4508
19516TIP3    H280040   0.359   3.504   1.815 -0.8417 -0.4866 -0.0057
19517TIP3   OH280041   3.381   0.437   3.712 -0.2232 -0.6349 -0.7411
19517TIP3    H180042   3.367   0.415   3.620 -0.2064 -2.1960 -0.3932
19517TIP3    H280043   3.361   0.530   3.718 -0.1475 -0.4969 -2.3382
19518TIP3   OH280044   0.465   0.293   4.970  0.4987  0.3907  0.3971
19518TIP3    H180045   0.483   0.286   4.876  0.5670  1.1727  0.3449
19518TIP3    H280046   0.479   0.205   5.004  1.4335  0.3206 -0.1597
19519TIP3   OH280047   5.128   6.194   2.726  0.1667  0.3891 -0.0765
19519TIP3    H180048   5.184   6.126   2.763 -1.2441 -1.5626 -1.3120
19519TIP3    H280049   5.071   6.221   2.798 -1.5037 -2.2239 -0.3137
19520TIP3   OH280050   4.017   0.235  16.866 -0.7057 -0.1824  0.0148
19520TIP3    H180051   4.026   0.168  16.799  0.1002  0.4528 -0.5336
19520TIP3    H280052   4.107   0.249  16.899 -0.6042  1.6138 -0.8856
19521TIP3   OH280053   5.121   2.058  16.567 -0.1349 -0.8084  0.9025
19521TIP3    H180054   5.166   2.042  16.484 -0.5145  0.0008  0.5324
19521TIP3    H280055   5.057   1.987  16.574 -0.7718 -0.3301  0.0267
19522TIP3   OH280056   5.356   1.348  15.151 -0.2622  0.3274  0.1308
19522TIP3    H180057   5.370   1.443  15.154  2.2215  0.1304 -1.6329
19522TIP3    H280058   5.369   1.326  15.059 -1.1156 -1.7197  0.4574
19523TIP3   OH280059   4.110   0.566  16.678  0.9924  0.5470  0.0434
19523TIP3    H180060   4.178   0.499  16.687  1.1093  0.7702  0.9683
19523TIP3    H280061   4.055   0.534  16.606  0.7647 -0.8114  0.7756
19524TIP3   OH280062   3.708   6.514   2.699 -0.4250 -0.3061 -0.0772
19524TIP3    H180063   3.679   6.540   2.787  0.1444 -1.1327  0.3728
19524TIP3    H280064   3.783   6.570   2.681 -0.9928  0.3785 -0.3585
19525TIP3   OH280065   0.568   1.319  13.634  0.2621  0.2300  0.2217
19525TIP3    H180066   0.487   1.323  13.686  0.3010 -2.7714  0.7251
19525TIP3    H280067   0.635   1.356  13.692 -0.3933  0.8083  0.6321
19526TIP3   OH280068   4.182   3.650  12.256  0.2529 -0.9029  0.2607
19526TIP3    H180069   4.086   3.652  12.264  0.2542  0.2967  0.0639
19526TIP3    H280070   4.214   3.693  12.334  0.5131  1.6914 -1.1756
19527TIP3   OH280071   2.036   5.525   2.969 -0.5584 -0.8102  0.7956
19527TIP3    H180072   2.131   5.526   2.959 -0.7514 -2.4539 -3.2603
19527TIP3    H280073   2.015   5.605   3.016  2.6833  1.2680 -0.9582
19528TIP3   OH280074   5.505   5.574  12.790  0.1072 -0.2086  0.6126
19528TIP3    H180075   5.486   5.518  12.715 -1.5014 -0.0466  0.8774
19528TIP3    H280076   5.580   5.627  12.762  0.2731 -0.9674 -0.4291
19529TIP3   OH280077   3.765   6.757  16.709  0.7897 -0.5522 -0.3232
19529TIP3    H180078   3.837   6.695  16.700 -0.3101 -1.6889 -1.7447
19529TIP3    H280079   3.700   6.729  16.644  0.1456  1.9607 -0.8802
19530TIP3   OH280080   3.983   0.087  12.202  0.1044  0.0091  0.0669
19530TIP3    H180081   3.995   0.162  12.260  1.3298 -1.0998  1.3271
19530TIP3    H280082   4.052   0.097  12.136  0.3124 -0.0302  0.2753
19531TIP3   OH280083   0.554   1.830  12.645  0.7923 -0.4894  0.1783
19531TIP3    H180084   0.595   1.744  12.652  0.4400 -0.8856 -2.0089
19531TIP3    H280085   0.505   1.827  12.563 -0.2448  1.3867  0.6666
19532TIP3   OH280086   0.762   5.946   3.641 -0.4415  0.5142 -0.0081
19532TIP3    H180087   0.722   5.865   3.671 -0.2620  0.5050  0.2086
19532TIP3    H280088   0.720   6.015   3.692 -1.0560  0.6268 -0.6414
19533TIP3   OH280089   3.557   4.025   0.259  0.1717 -0.1095 -0.0040
19533TIP3    H180090   3.645   4.051   0.288  0.6514 -0.3884 -1.1702
19533TIP3    H280091   3.498   4.083   0.307  0.7219 -2.1160  3.4435
19534TIP3   OH280092   2.790   1.556   5.729 -0.3921  0.0097 -0.3271
19534TIP3    H180093   2.847   1.481   5.746  0.6525  0.9820  0.6627
19534TIP3    H280094   2.746   1.535   5.647 -0.3745 -1.8206  0.0852
19535TIP3   OH280095   2.520   2.798  11.329 -0.2438  0.9093 -0.2426
19535TIP3    H180096   2.574   2.864  11.286  1.9746 -0.6866 -0.0919
19535TIP3    H280097   2.518   2.724  11.268 -0.7441  0.2528  0.5405
19536TIP3   OH280098   3.397   6.511  13.184  0.1046 -0.4040 -0.2344
19536TIP3    H180099   3.460   6.582  13.174 -0.2640  0.0701  0.6603
19536TIP3    H280100   3.434   6.456  13.254 -0.8647  0.3551  0.9153
19537TIP3   OH280101   3.932   1.417   4.833  0.4724  0.3335 -0.1695
19537TIP3    H180102   3.930   1.386   4.923  0.1182 -0.2759 -0.3794
19537TIP3    H280103   3.997   1.487   4.833  0.6545  0.1711  0.5039
19538TIP3   OH280104   6.750   3.033   5.734 -0.2119 -0.1522  0.2909
19538TIP3    H180105   6.718   3.098   5.671 -0.7230  1.5373  2.1601
19538TIP3    H280106   6.840   3.059   5.751 -0.2811 -0.2005  0.7311
19539TIP3   OH280107   4.297   1.069   1.153 -0.3517 -0.5898 -0.1502
19539TIP3    H180108   4.293   1.161   1.128  1.4011 -0.6102 -0.6758
19539TIP3    H280109   4.212   1.033   1.128 -0.0800  0.2709 -2.6090
19540TIP3   OH280110   1.153   4.083  12.636 -0.5149 -0.1720  0.2350
19540TIP3    H180111   1.125   3.993  12.651 -1.1141  0.2657  1.9414
19540TIP3    H280112   1.081   4.137  12.668  0.1688  0.9375 -0.0274
19541TIP3   OH280113   4.309   0.337  12.104 -0.3768 -1.0018 -0.1054
19541TIP3    H180114   4.325   0.370  12.192 -1.1082 -0.3208 -0.2168
19541TIP3    H280115   4.218   0.361  12.085 -0.1226 -0.8288 -1.1847
19542TIP3   OH280116   5.827   4.212   5.754  0.1994  0.0929 -0.2360
19542TIP3    H180117   5.744   4.178   5.722  0.6585 -0.1430 -1.1976
19542TIP3    H280118   5.889   4.198   5.683  1.1425  0.0032  0.5719
19543TIP3   OH280119   2.312   2.480   1.351 -0.2987 -0.1463  0.3913
19543TIP3    H180120   2.380   2.436   1.300  1.1733  2.5353 -0.0984
19543TIP3    H280121   2.255   2.521   1.286 -0.9014 -0.2151  0.8607
19544TIP3   OH280122   2.888   4.273  11.334  0.3787  0.0373 -0.0225
19544TIP3    H180123   2.882   4.331  11.258 -0.1187 -0.0843 -0.0781
19544TIP3    H280124   2.805   4.225  11.335  0.9156 -0.9255 -0.1727
19545TIP3   OH280125   4.016   0.729   1.965 -0.4167  0.0016  0.3230
19545TIP3    H180126   4.049   0.765   1.883 -1.3390  1.4388  0.5421
19545TIP3    H280127   4.017   0.634   1.952 -0.7505  0.2030 -1.4267
19546TIP3   OH280128   3.424   1.600   3.859 -0.8491 -0.0908  0.2980
19546TIP3    H180129   3.497   1.547   3.825  0.5564  3.6241 -3.3492
19546TIP3    H280130   3.465   1.659   3.922 -0.7485  1.3644 -1.0557
19547TIP3   OH280131   6.477   0.053  17.354 -0.7070 -0.4869  0.4624
19547TIP3    H180132   6.533  -0.020  17.379 -0.2208  0.0336  0.9425
19547TIP3    H280133   6.391   0.032  17.389 -0.6662 -1.0130  0.2516
19548TIP3   OH280134   0.308   0.035  11.930  0.3069  0.1383 -0.0232
19548TIP3    H180135   0.402   0.030  11.950  0.5621  1.3104 -0.8142
19548TIP3    H280136   0.277   0.109  11.981  0.4287  1.5247 -1.8413
19549TIP3   OH280137   0.549   2.416  11.303 -0.2512 -0.0474  0.8684
19549TIP3    H180138   0.579   2.425  11.393  0.2425 -2.1991  0.9817
19549TIP3    H280139   0.460   2.382  11.310  0.1438 -1.2044  0.5952
19550TIP3   OH280140   5.379   2.703   0.198 -0.0101  0.2774  0.3706
19550TIP3    H180141   5.331   2.738   0.124  1.1358  2.4439  0.5684
19550TIP3    H280142   5.348   2.754   0.273 -0.1821 -0.9599  1.1647
19551TIP3   OH280143   1.887   4.120   4.366  0.1540  0.0083 -0.5758
19551TIP3    H180144   1.944   4.157   4.298 -1.8227  0.2107 -2.2447
19551TIP3    H280145   1.848   4.043   4.324 -0.8065 -0.0987  0.4904
19552TIP3   OH280146   1.234   0.911   3.524 -0.3848  0.2677  0.3017
19552TIP3    H180147   1.218   0.901   3.618  3.8209  0.6072  1.2836
19552TIP3    H280148   1.230   0.821   3.490  0.5541 -0.2167  1.3813
19553TIP3   OH280149   4.739   3.911  13.660 -0.0372  0.1677  0.1302
19553TIP3    H180150   4.753   3.998  13.697 -0.6573 -0.0706  0.9631
19553TIP3    H280151   4.653   3.884  13.694  0.5264 -1.1289  0.6279
19554TIP3   OH280152   6.761   5.574  12.747  0.2541 -0.3220  0.0419
19554TIP3    H180153   6.693   5.639  12.767  0.7150  0.0259  0.5183
19554TIP3    H280154   6.767   5.521  12.826  0.0832 -0.7640 -0.2409
19555TIP3   OH280155   2.403   3.527   1.902 -0.0354  0.3780 -0.1354
19555TIP3    H180156   2.321   3.561   1.867 -1.3522  1.0232  3.1872
19555TIP3    H280157   2.381   3.498   1.990  2.6905 -2.3159 -0.1672
19556TIP3   OH280158   6.619   3.508   4.860  0.2668  0.0991  0.1005
19556TIP3    H180159   6.650   3.570   4.794  2.4025  0.3445  1.2654
19556TIP3    H280160   6.621   3.423   4.817  1.5471  0.2677 -0.2025
19557TIP3   OH280161   1.954   5.733  16.392 -0.1849  0.2788  0.7109
19557TIP3    H180162   2.026   5.688  16.437  0.5229  0.1096 -0.5585
19557TIP3    H280163   1.954   5.695  16.304 -0.6320  1.6006  0.1290
19558TIP3   OH280164   2.833   1.661   2.633  0.3154  0.4145  0.4148
19558TIP3    H180165   2.746   1.658   2.672  1.5389 -0.0440  3.3102
19558TIP3    H280166   2.882   1.592   2.678  2.1395  0.4583 -1.3392
19559TIP3   OH280167   1.713   4.636   2.010  0.1943  0.3295  0.4839
19559TIP3    H180168   1.751   4.723   2.021  1.1857 -0.1810  1.3058
19559TIP3    H280169   1.744   4.608   1.923 -0.6279  1.0184 -0.0456
19560TIP3   OH280170   3.117   1.620   1.026  0.0186 -0.0079 -0.1973
19560TIP3    H180171   3.143   1.668   0.948  3.5881  1.4961  1.7188
19560TIP3    H280172   3.160   1.535   1.018 -0.2759 -0.1584 -0.2091
19561TIP3   OH280173   3.937   3.929   0.101 -0.4359  0.4503  0.1905
19561TIP3    H180174   3.971   3.939   0.012  0.4621 -1.9391  0.1843
19561TIP3    H280175   3.843   3.916   0.089 -0.8637  3.2080 -0.0951
19562TIP3   OH280176   3.465   2.604   5.151 -0.6804  0.0162  0.0174
19562TIP3    H180177   3.542   2.558   5.183 -0.0009  0.7530 -0.5226
19562TIP3    H280178   3.415   2.624   5.230  1.3121  2.4201  0.8039
19563TIP3   OH280179   5.894   1.382   1.035 -0.3215 -0.0455  0.2460
19563TIP3    H180180   5.949   1.326   0.981 -1.2942  0.0786 -0.9185
19563TIP3    H280181   5.951   1.453   1.063  0.2424 -0.1860 -0.5169
19564TIP3   OH280182   3.074   5.112  14.130 -0.3277 -0.3690  0.5293
19564TIP3    H180183   2.994   5.064  14.152 -0.1741 -0.7857  0.1940
19564TIP3    H280184   3.092   5.165  14.207 -2.3515  1.7144 -0.2970
19565TIP3   OH280185   5.347   2.817   1.671  0.2125 -0.4653 -0.0794
19565TIP3    H180186   5.271   2.785   1.622 -0.1375  2.3910 -1.6106
19565TIP3    H280187   5.322   2.905   1.700  1.7663 -0.6950  2.2742
19566TIP3   OH280188   3.831   3.021   3.810 -0.2951  0.2449  0.2874
19566TIP3    H180189   3.891   3.022   3.884 -0.0980 -0.7823  0.1612
19566TIP3    H280190   3.746   2.999   3.848 -0.0943 -0.8263  0.1738
19567TIP3   OH280191   4.204   3.325   3.974 -0.0144  0.0743  0.1701
19567TIP3    H180192   4.294   3.294   3.984  0.1465  0.2375 -0.6734
19567TIP3    H280193   4.151   3.246   3.972  0.3681 -0.1867 -1.6953
19568TIP3   OH280194   4.136   2.986  11.480 -0.5698  0.1256  0.3154
19568TIP3    H180195   4.049   2.988  11.521  0.3156  3.5465  2.4681
19568TIP3    H280196   4.127   3.044  11.404 -0.5750 -1.0363 -0.5972
19569TIP3   OH280197   1.643   0.207   4.588 -0.4728  0.3614 -0.0979
19569TIP3    H180198   1.728   0.225   4.548 -0.1924 -2.2296 -0.8707
19569TIP3    H280199   1.665   0.172   4.675 -1.0125  3.9306  1.6559
19570TIP3   OH280200   1.084   0.606   0.524 -0.1352 -0.9407 -0.2633
19570TIP3    H180201   0.991   0.623   0.541 -0.0128  1.3170 -1.5035
19570TIP3    H280202   1.125   0.605   0.610 -0.9203  0.8552  0.1735
19571TIP3   OH280203   3.792   3.804  16.744 -0.0289 -0.2962  0.4661
19571TIP3    H180204   3.842   3.722  16.749  1.5624  0.6127  0.1644
19571TIP3    H280205   3.758   3.806  16.655 -0.4085 -0.8062  0.5933
19572TIP3   OH280206   3.961   4.622   5.273 -0.0654 -0.1307 -0.1076
19572TIP3    H180207   4.021   4.567   5.324  0.6261 -0.3020 -1.0846
19572TIP3    H280208   3.887   4.564   5.253 -0.5423  0.0568  1.0276
19573TIP3   OH280209   5.316   2.986  11.397  0.0454  0.0133  0.2906
19573TIP3    H180210   5.290   2.945  11.315  2.6266  0.8486 -1.0376
19573TIP3    H280211   5.395   2.940  11.424 -0.0236  0.6156  1.6322
19574TIP3   OH280212   4.913   4.812  12.271  0.3765  0.2441  0.4372
19574TIP3    H180213   4.918   4.809  12.175  1.6827  0.4730  0.4880
19574TIP3    H280214   4.953   4.730  12.300  0.2926  0.3315  0.8034
19575TIP3   OH280215   3.770   5.865  11.726  0.3517 -0.5976 -0.1156
19575TIP3    H180216   3.689   5.817  11.743  0.6789 -1.0158  0.3026
19575TIP3    H280217   3.786   5.853  11.633 -0.0004 -0.6203 -0.1745
19576TIP3   OH280218   5.493   5.072  14.505 -0.0487  0.0201 -0.1917
19576TIP3    H180219   5.521   5.127  14.431  2.2356  0.2617  0.7869
19576TIP3    H280220   5.400   5.093  14.515  0.1594  1.8318 -1.4339
19577TIP3   OH280221   5.314   4.859   5.981  0.1604  0.3294 -0.1119
19577TIP3    H180222   5.253   4.864   6.054  0.8831  1.3842  0.4574
19577TIP3    H280223   5.371   4.785   6.001 -1.3551 -1.1601 -1.0325
19578TIP3   OH280224   6.298   4.119  16.112  0.2074  0.6361 -0.2602
19578TIP3    H180225   6.271   4.142  16.024 -1.0179  0.2610 -0.0027
19578TIP3    H280226   6.384   4.160  16.123  1.6518 -1.4821 -2.5394
19579TIP3   OH280227   3.396   2.547   1.737  0.5471  0.1343 -0.0680
19579TIP3    H180228   3.482   2.584   1.759 -0.6134  2.1365  1.4147
19579TIP3    H280229   3.353   2.616   1.686 -0.9279  0.0025  0.9613
19580TIP3   OH280230   0.359   2.460   0.379  0.2667  0.0326  0.4472
19580TIP3    H180231   0.294   2.496   0.318  0.3333 -1.3058 -0.4559
19580TIP3    H280232   0.308   2.420   0.449  0.1069 -0.9435 -0.2184
19581TIP3   OH280233   1.786   3.006  14.035  0.4990 -0.5908 -0.5871
19581TIP3    H180234   1.731   3.063  13.981 -0.9026 -1.5324 -0.2076
19581TIP3    H280235   1.808   3.061  14.110  1.2162  0.2372 -1.3780
19582TIP3   OH280236   4.828   0.936   4.210  0.1838  0.3341 -0.6833
19582TIP3    H180237   4.923   0.929   4.218  0.1740  0.5354 -0.3887
19582TIP3    H280238   4.798   0.845   4.207 -0.0695 -0.0610  4.6408
19583TIP3   OH280239   3.059   5.909   1.047  0.0700 -0.4290  0.6662
19583TIP3    H180240   3.074   5.869   1.133 -0.4440  0.3771  1.1469
19583TIP3    H280241   3.103   5.851   0.985  1.3056 -0.5014  1.5708
19584TIP3   OH280242   2.922   2.366   1.234 -0.0279  0.2657  0.3353
19584TIP3    H180243   2.889   2.327   1.315 -0.3198 -1.8929 -0.7553
19584TIP3    H280244   2.989   2.305   1.203 -1.3077 -0.0870 -2.0370
19585TIP3   OH280245   2.308   1.152   2.158  0.3181 -0.4507 -0.3572
19585TIP3    H180246   2.302   1.218   2.089  2.0095 -0.2092 -0.3260
19585TIP3    H280247   2.274   1.195   2.236 -1.7532 -0.7750 -1.0373
19586TIP3   OH280248   6.468   2.173   1.505 -0.0565  0.1938 -0.2329
19586TIP3    H180249   6.557   2.139   1.510 -0.4346 -0.8323 -0.2024
19586TIP3    H280250   6.457   2.226   1.584  0.5244  0.3227 -0.2376
19587TIP3   OH280251   4.738   1.362  16.836 -0.3459  0.1841 -0.4831
19587TIP3    H180252   4.685   1.385  16.760 -3.9079 -0.4886  1.5649
19587TIP3    H280253   4.692   1.287  16.875  3.8678 -2.4893 -0.0918
19588TIP3   OH280254   6.225   0.208  13.313  0.2552  0.2958 -0.2584
19588TIP3    H180255   6.278   0.177  13.386  0.3709  0.5587 -0.2306
19588TIP3    H280256   6.138   0.171  13.329  1.1811 -3.0754 -2.1145
19589TIP3   OH280257   0.069   4.015  14.515 -0.8687 -0.2979  0.6737
19589TIP3    H180258   0.050   3.955  14.442 -1.5461 -1.5897  1.8689
19589TIP3    H280259  -0.016   4.030  14.556 -0.5187  0.5542  1.1076
19590TIP3   OH280260   0.019   2.447  10.498 -0.0025  0.1768 -0.1281
19590TIP3    H180261   0.096   2.502  10.511  0.4826 -0.7168  0.9838
19590TIP3    H280262  -0.052   2.508  10.483  0.8191  1.0413 -0.5727
19591TIP3   OH280263   0.908   0.949  10.986  1.0537 -0.5384 -0.6741
19591TIP3    H180264   0.951   0.953  10.900  2.3678 -0.5857 -0.0401
19591TIP3    H280265   0.907   0.856  11.008  0.7442 -0.5215 -0.6017
19592TIP3   OH280266   0.411   3.181  16.972 -0.2092  0.9066 -0.6338
19592TIP3    H180267   0.451   3.267  16.961  1.6763  0.0337 -0.8656
19592TIP3    H280268   0.438   3.153  17.059 -0.7362  0.4977 -0.5988
19593TIP3   OH280269   3.859   5.457   4.627 -0.1927  0.1674  0.4100
19593TIP3    H180270   3.790   5.522   4.614 -0.0100  0.2871  0.0177
19593TIP3    H280271   3.817   5.388   4.678 -0.4935  0.4201  0.5106
19594TIP3   OH280272   4.606   2.534   2.157  0.8084 -0.5934 -0.0229
19594TIP3    H180273   4.573   2.483   2.084  0.5681 -0.4711 -0.0016
19594TIP3    H280274   4.681   2.581   2.122 -0.0933  0.4891 -0.5640
19595TIP3   OH280275   3.925   2.206  16.683  0.1623  0.7134  0.1139
19595TIP3    H180276   4.009   2.248  16.667 -0.3150  2.2631  1.3914
19595TIP3    H280277   3.941   2.147  16.757  0.3530  0.2125 -0.3228
19596TIP3   OH280278   0.175   0.571  12.868 -0.5269  0.0874 -0.2100
19596TIP3    H180279   0.221   0.535  12.792  1.0080 -0.8905  1.1240
19596TIP3    H280280   0.216   0.529  12.943 -0.0641  3.0730  1.3670
19597TIP3   OH280281   1.855   2.536  12.291 -0.1975  0.5922  0.0122
19597TIP3    H180282   1.786   2.499  12.347  1.2012 -1.1313  0.6756
19597TIP3    H280283   1.906   2.592  12.350  0.7084 -0.4698  0.2524
19598TIP3   OH280284   3.397   0.854   6.028 -0.1334 -0.3544 -0.0259
19598TIP3    H180285   3.310   0.862   6.065  0.5738 -0.8790  1.8540
19598TIP3    H280286   3.441   0.789   6.083  0.7132 -1.9118 -2.3665
19599TIP3   OH280287   6.202   5.323   3.230  0.2646  0.2277 -0.1087
19599TIP3    H180288   6.208   5.418   3.219 -1.0809  0.4863  1.0088
19599TIP3    H280289   6.215   5.288   3.143 -2.2151  1.6329 -1.1642
19600TIP3   OH280290   5.549   5.652  15.613  1.0342  0.0196  0.0815
19600TIP3    H180291   5.551   5.651  15.517 -0.4789 -0.4561  0.0300
19600TIP3    H280292   5.466   5.610  15.635 -0.0475  2.6791  1.5437
19601TIP3   OH280293   4.539   3.810   4.955 -0.4218  0.1779  0.2202
19601TIP3    H180294   4.621   3.847   4.923 -0.5084 -1.1057 -1.6787
19601TIP3    H280295   4.471   3.867   4.920 -0.4624 -0.6880 -1.2354
19602TIP3   OH280296   3.700   2.329   2.697 -0.3696 -0.0710 -0.1350
19602TIP3    H180297   3.772   2.393   2.698  0.0992 -0.5565 -1.2756
19602TIP3    H280298   3.664   2.335   2.609 -1.9115  0.3255  0.4827
19603TIP3   OH280299   3.698   4.623   3.553  0.5147  0.3092  0.0214
19603TIP3    H180300   3.749   4.606   3.474  1.9111  0.9823  0.7403
19603TIP3    H280301   3.619   4.666   3.522  0.4071 -0.6614 -1.1115
19604TIP3   OH280302   1.315   4.917   5.463 -0.4076 -0.0051  0.1117
19604TIP3    H180303   1.253   4.990   5.463 -3.1437 -2.1668  0.1596
19604TIP3    H280304   1.303   4.876   5.549  1.1948 -0.4982  0.1416
19605TIP3   OH280305   5.050   0.553  16.756  0.2516  0.4114 -0.5898
19605TIP3    H180306   5.094   0.574  16.674 -0.6939  0.9937 -0.9645
19605TIP3    H280307   4.957   0.549  16.732 -0.1141  1.3810  0.6077
19606TIP3   OH280308   0.485   1.878  17.355 -0.5289  0.1729  0.4863
19606TIP3    H180309   0.541   1.807  17.324 -1.4115 -0.7164  0.8666
19606TIP3    H280310   0.465   1.929  17.276 -0.3973 -0.3697  0.1016
19607TIP3   OH280311   0.119   4.881   5.806  0.4325 -0.0792 -0.1719
19607TIP3    H180312   0.111   4.975   5.823 -0.3150 -0.2556  0.5414
19607TIP3    H280313   0.069   4.867   5.726  0.6890  0.1516 -0.3754
19608TIP3   OH280314   0.075   4.692  11.706 -0.2299  0.1664  0.4428
19608TIP3    H180315   0.124   4.723  11.630 -1.2829  1.4670  0.2406
19608TIP3    H280316   0.033   4.611  11.677 -2.0275  1.5450 -1.0032
19609TIP3   OH280317   2.284   4.337  14.599 -0.0431  0.1796  0.2154
19609TIP3    H180318   2.270   4.431  14.617  0.3804  0.5540 -1.3192
19609TIP3    H280319   2.279   4.296  14.686 -1.2706  1.4795  0.8046
19610TIP3   OH280320   0.478   1.085  13.924  0.2953 -0.0082 -0.2985
19610TIP3    H180321   0.504   1.017  13.986  1.2568  0.5472 -0.0645
19610TIP3    H280322   0.399   1.051  13.882  0.2395 -0.8566  0.4674
19611TIP3   OH280323   0.824   5.121  15.989 -0.1469  0.0317 -0.0909
19611TIP3    H180324   0.846   5.204  15.947 -1.6260  0.8286  0.6366
19611TIP3    H280325   0.796   5.145  16.078 -0.6709 -1.2240  0.1115
19612TIP3   OH280326   5.775   5.136   4.534  0.0809  0.3166  0.7036
19612TIP3    H180327   5.709   5.166   4.471  0.0447  0.1781  0.6756
19612TIP3    H280328   5.776   5.041   4.524  1.4004  0.4226 -0.4147
19613TIP3   OH280329   2.023   5.698   5.097 -0.0053 -0.1026  0.2350
19613TIP3    H180330   1.992   5.608   5.084  0.3906 -0.5527  2.1614
19613TIP3    H280331   2.086   5.712   5.026  0.3454 -1.5435  0.2314
19614TIP3   OH280332   1.776   0.406   4.220 -0.2228 -0.2525 -0.0942
19614TIP3    H180333   1.798   0.442   4.305 -0.1215  0.7987 -0.5481
19614TIP3    H280334   1.779   0.311   4.232  0.6960 -0.1147  0.8276
19615TIP3   OH280335   0.369   2.796  15.401  0.5519  0.2395  0.0714
19615TIP3    H180336   0.370   2.830  15.312 -1.3940 -1.2908 -0.5961
19615TIP3    H280337   0.443   2.735  15.404 -0.6306 -1.3624 -1.2634
19616TIP3   OH280338   2.469   0.171   4.169 -0.1090 -0.1471 -0.8722
19616TIP3    H180339   2.436   0.082   4.181  1.0418 -0.5517 -0.5899
19616TIP3    H280340   2.482   0.204   4.258  1.2378 -0.3998 -0.9455
19617TIP3   OH280341   3.049   5.373   0.564  0.3485  0.2612  0.3943
19617TIP3    H180342   3.022   5.322   0.487 -0.1143  0.7100  0.2539
19617TIP3    H280343   3.059   5.462   0.531  1.4851  0.2086  0.5666
19618TIP3   OH280344   3.341   6.609  11.407  0.4470  0.1376  0.0391
19618TIP3    H180345   3.390   6.675  11.358  0.9021  0.8729  1.4509
19618TIP3    H280346   3.397   6.531  11.404  0.2327  0.0133 -1.0300
19619TIP3   OH280347   1.546   2.333  13.844  0.4241  0.2607  0.1106
19619TIP3    H180348   1.477   2.286  13.891 -0.2214  0.8131 -0.2576
19619TIP3    H280349   1.626   2.314  13.893 -0.1804  0.5833  1.2637
19620TIP3   OH280350   0.176   4.718  17.327 -0.2014 -0.0083 -0.0398
19620TIP3    H180351   0.102   4.682  17.278 -0.5890  1.3034 -0.4535
19620TIP3    H280352   0.154   4.702  17.419 -1.5580  1.3376 -0.0924
19621TIP3   OH280353   3.999   0.138   6.527 -0.6017 -0.4013 -0.5238
19621TIP3    H180354   4.019   0.066   6.467  0.6347 -0.0865 -0.5118
19621TIP3    H280355   4.072   0.138   6.589 -1.9026 -0.8032  1.0876
19622TIP3   OH280356   6.566   1.596  12.700  0.2749  0.0114 -0.2762
19622TIP3    H180357   6.521   1.678  12.720  0.0230 -0.2987  0.4656
19622TIP3    H280358   6.657   1.613  12.721  0.1493 -0.0395  0.3191
19623TIP3   OH280359   3.058   5.798  11.269  0.2954  0.2169  0.6241
19623TIP3    H180360   3.096   5.726  11.220  0.2207  0.5749  0.0296
19623TIP3    H280361   3.058   5.872  11.207  0.6229  0.8002  1.2986
19624TIP3   OH280362   3.800   2.314   1.455 -0.1505  0.9196 -1.0363
19624TIP3    H180363   3.889   2.321   1.422  0.7903  1.2619  1.4093
19624TIP3    H280364   3.759   2.397   1.430  1.1411  2.0083  0.2893
19625TIP3   OH280365   6.138   2.034  15.495  0.0095 -0.4570  0.6876
19625TIP3    H180366   6.195   2.103  15.462  0.8928 -1.2432  0.5389
19625TIP3    H280367   6.071   2.080  15.545  0.7811  0.4845  0.8762
19626TIP3   OH280368   4.699   0.376   1.776  0.5221 -0.5266 -0.1552
19626TIP3    H180369   4.667   0.336   1.857 -2.4275  0.4375 -0.7180
19626TIP3    H280370   4.788   0.403   1.796  0.2737 -1.3458  2.4039
19627TIP3   OH280371   4.093   2.631   3.482 -0.1777  0.3029  0.1985
19627TIP3    H180372   4.152   2.666   3.550 -0.6364 -0.0102  0.7681
19627TIP3    H280373   4.090   2.537   3.498  0.5208  0.0729 -0.9148
19628TIP3   OH280374   5.652   0.339  15.626 -0.6576  0.5728  0.0320
19628TIP3    H180375   5.672   0.310  15.715 -0.5002  0.6049  0.0068
19628TIP3    H280376   5.594   0.414  15.638  0.7803  1.6954  0.1488
19629TIP3   OH280377   6.443   3.798   5.941 -0.1691  0.4207 -0.0240
19629TIP3    H180378   6.394   3.744   6.003  2.0356  0.8219  2.2097
19629TIP3    H280379   6.497   3.736   5.893 -0.2458  0.3136  0.0271
19630TIP3   OH280380   5.438   2.335   0.600  0.1595  0.3939  0.0823
19630TIP3    H180381   5.389   2.334   0.517 -1.6332  1.9836  1.0392
19630TIP3    H280382   5.465   2.244   0.612 -1.5762 -0.3455 -1.1127
19631TIP3   OH280383   3.920   5.183   2.603  0.6732  0.1458 -0.0447
19631TIP3    H180384   3.917   5.090   2.579  3.2660 -0.3357  1.1000
19631TIP3    H280385   4.000   5.191   2.655 -1.5288  2.2396  3.3615
19632TIP3   OH280386   0.981   3.749  10.894 -0.3270 -0.0109 -1.1437
19632TIP3    H180387   1.013   3.807  10.826  0.9142 -2.0053 -2.3528
19632TIP3    H280388   0.894   3.723  10.864 -0.5240  0.5011 -1.0341
19633TIP3   OH280389   0.045   5.987  12.394  0.6884  0.6368  0.3358
19633TIP3    H180390   0.043   6.073  12.353 -1.6991  1.4836  2.0191
19633TIP3    H280391   0.131   5.982  12.435  0.8822  2.2059  0.1893
19634TIP3   OH280392   5.868   1.116   1.141  0.2476  0.2348  0.2111
19634TIP3    H180393   5.823   1.153   1.217 -0.1930 -2.2164  1.2408
19634TIP3    H280394   5.941   1.067   1.179  1.2032  0.5844 -1.1232
19635TIP3   OH280395   4.823   5.950  16.081  0.2476 -0.7915  0.2966
19635TIP3    H180396   4.913   5.958  16.050  0.1919  0.0498  0.3298
19635TIP3    H280397   4.771   6.001  16.019  0.1800  1.1941  1.8775
19636TIP3   OH280398   2.269   6.646   3.836  0.4187  0.0840 -0.2546
19636TIP3    H180399   2.310   6.560   3.831 -4.5248 -2.5643 -1.6573
19636TIP3    H280400   2.236   6.652   3.926  1.2070  0.8039 -0.0028
19637TIP3   OH280401   2.654   1.035   1.380 -0.5307  0.5944  0.4407
19637TIP3    H180402   2.744   1.068   1.377 -0.6026  0.8351  0.8895
19637TIP3    H280403   2.616   1.064   1.297 -0.1520  0.3674  0.1865
19638TIP3   OH280404   0.007   4.100   6.381  0.4622  0.1730  0.3867
19638TIP3    H180405   0.053   4.027   6.423 -1.9477 -0.9792  1.2308
19638TIP3    H280406  -0.022   4.155   6.454 -2.0347 -0.7709  0.1895
19639TIP3   OH280407   0.100   5.567  15.505  0.3567  0.1884  0.1123
19639TIP3    H180408   0.185   5.526  15.485  0.2705  0.1892 -0.2658
19639TIP3    H280409   0.039   5.494  15.506  0.7059 -0.1496  2.6375
19640TIP3   OH280410   3.033   4.274  15.508  0.1188  0.3430 -0.1013
19640TIP3    H180411   2.980   4.270  15.428 -1.9535  2.8750  0.9861
19640TIP3    H280412   3.082   4.356  15.499  2.2129 -0.8628 -0.0670
19641TIP3   OH280413   4.796   0.886   4.928  0.6117  0.3666  0.2497
19641TIP3    H180414   4.873   0.900   4.873  1.6435 -0.8328  1.3328
19641TIP3    H280415   4.819   0.811   4.984 -1.2121  0.1816  0.8307
19642TIP3   OH280416   4.618   4.097  11.430  0.0691  0.1317 -0.1103
19642TIP3    H180417   4.619   4.185  11.467  0.3204 -0.3391  1.0798
19642TIP3    H280418   4.666   4.104  11.348  1.1539  0.8678  0.5554
19643TIP3   OH280419   0.781   2.708   5.584 -0.2728  0.4363  0.2309
19643TIP3    H180420   0.728   2.788   5.580  0.3229  0.7741 -1.6502
19643TIP3    H280421   0.717   2.637   5.592 -1.0693  0.8412 -1.8562
19644TIP3   OH280422   3.759   2.720   6.068 -0.3412  0.4108  0.2568
19644TIP3    H180423   3.756   2.629   6.039  1.0974 -0.1957  1.8794
19644TIP3    H280424   3.819   2.763   6.007 -2.2050  0.7077 -1.4750
19645TIP3   OH280425   2.076   2.145   2.511  0.7110  0.0602  0.1064
19645TIP3    H180426   2.121   2.207   2.454 -0.1181  1.0550  0.5148
19645TIP3    H280427   2.102   2.172   2.599 -0.5225  0.5241  0.3365
19646TIP3   OH280428   1.271   4.392   2.068  0.2977  0.0700  0.2473
19646TIP3    H180429   1.312   4.477   2.085  0.2459  0.2410 -0.4547
19646TIP3    H280430   1.183   4.414   2.036  0.2910 -0.2452  0.0476
19647TIP3   OH280431   2.440   2.736  17.211  0.1041 -0.0614 -0.1590
19647TIP3    H180432   2.443   2.819  17.164 -1.1617 -0.9514 -1.9128
19647TIP3    H280433   2.347   2.721  17.229  0.4066 -0.6189  1.0744
19648TIP3   OH280434   4.890   4.150  13.811  0.4151  0.4551  0.2831
19648TIP3    H180435   4.824   4.190  13.754 -0.5232  1.2383  1.8112
19648TIP3    H280436   4.974   4.171  13.771 -0.2368 -0.9432 -1.9556
19649TIP3   OH280437   4.223   2.721   2.035  0.1393 -0.3196  0.6184
19649TIP3    H180438   4.192   2.810   2.049 -2.2358 -1.2681  1.9288
19649TIP3    H280439   4.308   2.717   2.079  1.0943  1.6841 -0.8780
19650TIP3   OH280440   3.682   0.991  16.100  0.1248 -0.0822 -0.0794
19650TIP3    H180441   3.630   0.930  16.047  0.9929 -0.0160 -1.0244
19650TIP3    H280442   3.642   1.077  16.084 -0.4841 -0.2506  0.4854
19651TIP3   OH280443   6.730   3.682  15.792 -0.4908 -0.0993  0.1397
19651TIP3    H180444   6.813   3.693  15.746 -0.2382 -0.7684  0.4336
19651TIP3    H280445   6.743   3.724  15.877 -0.7270  0.5109 -0.1172
19652TIP3   OH280446   1.320   1.498  11.564 -0.2808 -0.1736 -0.2690
19652TIP3    H180447   1.395   1.471  11.511 -0.0454  0.4221 -0.2440
19652TIP3    H280448   1.262   1.544  11.503 -0.0228  0.4865 -0.0235
19653TIP3   OH280449   4.986   5.116  17.249 -0.1143  0.2339  0.0865
19653TIP3    H180450   5.005   5.067  17.329 -0.5065 -2.0427 -1.1254
19653TIP3    H280451   5.002   5.207  17.272  0.8751 -0.4592  2.4168
19654TIP3   OH280452   1.755   0.797   4.625  0.2760  0.0139 -0.3969
19654TIP3    H180453   1.705   0.787   4.544 -0.6080 -0.4403  0.1930
19654TIP3    H280454   1.787   0.709   4.645  0.6060  0.1494 -0.3182
19655TIP3   OH280455   6.485   4.950   5.485 -0.4064 -0.0964 -0.6206
19655TIP3    H180456   6.487   5.042   5.460  2.8271 -0.4208 -1.9372
19655TIP3    H280457   6.461   4.903   5.405  0.1255 -0.5372 -0.5263
19656TIP3   OH280458   2.254   6.487   0.419 -0.8635 -0.1184  0.2161
19656TIP3    H180459   2.315   6.498   0.346 -0.1486 -0.2148  0.7762
19656TIP3    H280460   2.268   6.397   0.448  2.0540  1.0508  3.1511
19657TIP3   OH280461   5.047   0.015  13.299  0.3662 -0.4087 -0.4340
19657TIP3    H180462   5.117  -0.021  13.354  0.6448  0.1133 -0.4447
19657TIP3    H280463   5.068  -0.015  13.211  0.6578 -0.1344 -0.4593
19658TIP3   OH280464   1.470   0.463   0.959  0.1526 -0.0970  0.1660
19658TIP3    H180465   1.391   0.502   0.922  0.6024  0.5100 -0.1552
19658TIP3    H280466   1.543   0.509   0.917  0.6945 -1.3545 -0.3243
19659TIP3   OH280467   0.573   5.011  15.910  0.4128  0.1114  0.1386
19659TIP3    H180468   0.588   4.920  15.885 -0.1658  0.2330 -0.6857
19659TIP3    H280469   0.659   5.042  15.940  0.6537 -0.6398  0.2439
19660TIP3   OH280470   0.979   3.714  11.267  0.1455 -0.3365 -0.3698
19660TIP3    H180471   1.034   3.789  11.289 -0.0166  0.0410 -1.2301
19660TIP3    H280472   1.030   3.638  11.297 -0.0417  0.1311  1.2363
19661TIP3   OH280473   6.251   3.640  16.696 -0.4637  0.0322  0.0668
19661TIP3    H180474   6.286   3.712  16.748 -1.4641  0.3859  0.2846
19661TIP3    H280475   6.237   3.678  16.609  1.0841 -0.5235 -0.4559
19662TIP3   OH280476   0.296   2.892  14.114  0.0080  0.1834 -0.1524
19662TIP3    H180477   0.220   2.950  14.104  0.1640  0.3079 -0.6159
19662TIP3    H280478   0.265   2.807  14.081  0.0388  0.2079 -0.2437
19663TIP3   OH280479   0.021   0.079  17.108  0.2661  0.4311 -0.5842
19663TIP3    H180480   0.112   0.061  17.085  0.2266  1.6446 -1.8291
19663TIP3    H280481  -0.015   0.124  17.031 -1.8569 -1.4639 -0.8089
19664TIP3   OH280482   0.256   1.296  17.363  0.1248 -0.4869  0.0599
19664TIP3    H180483   0.210   1.324  17.284  0.1635 -0.6071 -0.0054
19664TIP3    H280484   0.301   1.375  17.393 -0.0941 -0.3784  0.1042
19665TIP3   OH280485   4.496   4.369   2.255  0.1097  0.1161  0.0808
19665TIP3    H180486   4.499   4.368   2.351  2.1649 -2.1104  0.0893
19665TIP3    H280487   4.414   4.326   2.233  0.2784 -0.6322  0.8729
19666TIP3   OH280488   0.651   5.961   2.127 -0.5335  1.0893 -0.2669
19666TIP3    H180489   0.615   5.907   2.196 -1.7671 -0.0797 -1.7519
19666TIP3    H280490   0.632   6.051   2.154  0.7881  0.8103  1.8191
19667TIP3   OH280491   0.042   4.406  12.043 -0.5076 -0.5622  0.0167
19667TIP3    H180492   0.112   4.451  12.090 -1.5895 -0.8694  2.0430
19667TIP3    H280493  -0.013   4.368  12.112 -2.1254 -1.1642 -1.5184
19668TIP3   OH280494   2.095   6.394   4.690 -0.5022 -0.0400  0.2069
19668TIP3    H180495   2.150   6.339   4.635  0.9228  0.6883  0.8447
19668TIP3    H280496   2.007   6.384   4.654  0.3075  0.1158 -1.9641
19669TIP3   OH280497   0.800   1.200   3.267 -0.0056  0.5401 -0.3721
19669TIP3    H180498   0.757   1.267   3.321 -0.1529 -0.8759  1.3342
19669TIP3    H280499   0.792   1.120   3.317  3.2778 -0.1125 -0.7259
19670TIP3   OH280500   0.471   6.707  15.290  0.4166 -0.6597 -0.1446
19670TIP3    H180501   0.546   6.687  15.345 -0.2154  0.4493  1.1710
19670TIP3    H280502   0.420   6.771  15.340 -1.8691 -2.0023 -0.5858
19671TIP3   OH280503   0.322   3.079   2.028 -0.1385  0.0996 -0.8934
19671TIP3    H180504   0.266   3.018   1.980 -0.7885 -0.0207 -0.0106
19671TIP3    H280505   0.383   3.112   1.962 -0.1623 -1.0346 -1.5242
19672TIP3   OH280506   6.034   4.834   2.838 -0.3340  0.5561  0.0780
19672TIP3    H180507   6.019   4.908   2.897  0.0154  0.3283  0.4532
19672TIP3    H280508   6.129   4.828   2.832 -0.3470 -0.3217  0.6299
19673TIP3   OH280509   1.527   5.425  12.180  0.0830  0.4691 -0.1957
19673TIP3    H180510   1.555   5.492  12.242 -0.4125 -0.9233  1.6256
19673TIP3    H280511   1.490   5.474  12.107 -2.3973  2.2344  2.0404
19674TIP3   OH280512   6.042   1.461  14.846  0.0771  1.1835 -0.1702
19674TIP3    H180513   5.959   1.465  14.894 -0.1593 -0.8970 -0.2766
19674TIP3    H280514   6.096   1.400  14.897  0.0441 -0.5981 -2.1427
19675TIP3   OH280515   4.403   6.044   5.927 -0.1980 -0.0967 -0.2135
19675TIP3    H180516   4.400   6.070   6.019 -2.2636  0.6598 -0.4382
19675TIP3    H280517   4.454   5.963   5.926 -0.5118 -0.3621  1.6473
19676TIP3   OH280518   4.601   0.824  17.025 -0.1556  0.2701 -0.0834
19676TIP3    H180519   4.656   0.851  17.099 -0.3271 -0.2308  0.2286
19676TIP3    H280520   4.634   0.876  16.951  0.6201  0.1094  0.1406
19677TIP3   OH280521   1.370   1.873  16.187  0.1584  0.2012  0.0323
19677TIP3    H180522   1.303   1.861  16.120 -0.3446 -0.1281  0.5930
19677TIP3    H280523   1.407   1.786  16.201 -1.2215 -0.1587  1.7195
19678TIP3   OH280524   2.212   0.126   3.987 -0.7891 -0.0199  0.6744
19678TIP3    H180525   2.220   0.189   4.058  0.7471  1.0816 -0.4096
19678TIP3    H280526   2.203   0.041   4.031 -1.5276  0.7940  2.1604
19679TIP3   OH280527   1.871   2.196  16.235  1.1272  0.2367 -0.0404
19679TIP3    H180528   1.809   2.251  16.283  2.0299  1.4347 -0.1802
19679TIP3    H280529   1.817   2.131  16.191  0.2138 -0.4133  1.9508
19680TIP3   OH280530   6.739   3.040   0.491  0.3013  0.2364 -0.2306
19680TIP3    H180531   6.702   3.123   0.458  0.2239  1.0624  1.7861
19680TIP3    H280532   6.668   2.977   0.481 -0.5786  1.0484  0.5656
19681TIP3   OH280533   2.655   5.417   4.396  0.3093  0.3243  0.3071
19681TIP3    H180534   2.737   5.412   4.346 -0.2399  0.4951 -0.6298
19681TIP3    H280535   2.671   5.487   4.460  0.5139  1.1308 -0.5971
19682TIP3   OH280536   5.347   5.474   1.420  0.3017 -0.2509 -0.0445
19682TIP3    H180537   5.386   5.561   1.427  0.5496 -0.4938  2.0221
19682TIP3    H280538   5.257   5.486   1.452 -0.2097 -0.4631 -1.3048
19683TIP3   OH280539   2.821   0.334   3.371 -0.1577  0.3005  0.5369
19683TIP3    H180540   2.800   0.419   3.332  0.2455  0.6740  1.1193
19683TIP3    H280541   2.904   0.309   3.329 -2.4950 -2.0910 -3.2378
19684TIP3   OH280542   1.470   5.890  15.119  0.0030  0.1723 -0.4786
19684TIP3    H180543   1.495   5.902  15.027 -1.8007 -0.0960 -1.0645
19684TIP3    H280544   1.426   5.805  15.120 -1.7266  1.0237  0.1999
19685TIP3   OH280545   2.917   4.363  13.027  0.5470  0.1676 -0.2523
19685TIP3    H180546   2.868   4.310  12.964  1.5742  1.1969 -2.0285
19685TIP3    H280547   2.872   4.448  13.026 -0.5306 -0.3206  1.8584
19686TIP3   OH280548   1.874   2.811   3.586  0.2276  0.1371  0.5308
19686TIP3    H180549   1.839   2.830   3.673 -0.5512  0.4312  0.1659
19686TIP3    H280550   1.802   2.831   3.526  0.5689 -0.5751 -0.1444
19687TIP3   OH280551   1.232   0.555   2.717  0.6435 -0.1738  0.4166
19687TIP3    H180552   1.209   0.641   2.752  1.7151  0.9471 -1.4715
19687TIP3    H280553   1.298   0.521   2.776 -0.4930 -0.1703  1.7378
19688TIP3   OH280554   5.950   0.499   6.429 -1.3556  0.0901 -0.9362
19688TIP3    H180555   5.944   0.465   6.518  1.1815  2.1045  0.1431
19688TIP3    H280556   5.931   0.593   6.437  0.8058  0.7001 -2.0963
19689TIP3   OH280557   2.299   0.162  17.204  0.0692  0.4842  0.0780
19689TIP3    H180558   2.344   0.244  17.179  1.2594 -0.3165 -0.5313
19689TIP3    H280559   2.251   0.184  17.284 -0.7037  2.1210 -0.7836
19690TIP3   OH280560   6.634   4.626   0.873  0.4739 -0.0067 -0.2287
19690TIP3    H180561   6.583   4.707   0.883  0.5665 -0.0438  0.6478
19690TIP3    H280562   6.571   4.557   0.893  0.7212 -0.0782  0.3316
19691TIP3   OH280563   5.003   0.418  11.249  0.4510  0.0304 -0.5173
19691TIP3    H180564   4.942   0.458  11.187 -0.5760 -1.4484 -0.5058
19691TIP3    H280565   5.047   0.349  11.200  0.4532 -0.4119  0.0853
19692TIP3   OH280566   1.090   5.713  11.303  0.0484 -0.0661  0.1885
19692TIP3    H180567   0.999   5.742  11.291 -0.5977 -1.6859  0.8426
19692TIP3    H280568   1.113   5.741  11.391  0.6183  1.3471 -0.3775
19693TIP3   OH280569   4.947   5.531   4.865  0.1737  0.6210  0.4450
19693TIP3    H180570   4.998   5.590   4.809 -1.0329  1.2242 -0.0701
19693TIP3    H280571   4.953   5.446   4.822  0.7786  0.6713  0.4226
19694TIP3   OH280572   1.619   2.532   3.820 -0.2948 -0.1818 -0.0075
19694TIP3    H180573   1.667   2.602   3.864  0.0397 -1.3667  1.6278
19694TIP3    H280574   1.660   2.526   3.733 -0.1257  1.4041 -0.0663
19695TIP3   OH280575   6.286   1.026   3.370 -0.4485  0.5471 -0.2321
19695TIP3    H180576   6.203   1.063   3.400  0.1315  1.4169  0.3537
19695TIP3    H280577   6.346   1.038   3.444 -0.2164 -1.5860 -0.0274
19696TIP3   OH280578   2.002   3.400   4.287 -0.3529 -0.6657 -0.4296
19696TIP3    H180579   2.038   3.483   4.256  0.2231 -0.6258  0.3225
19696TIP3    H280580   1.989   3.348   4.207  1.8184 -0.8585 -0.7303
19697TIP3   OH280581   6.658   2.672   3.787 -0.7301 -0.4262 -0.4464
19697TIP3    H180582   6.625   2.674   3.877  1.6141 -0.0469  0.4774
19697TIP3    H280583   6.585   2.705   3.734 -1.7312  0.6032  1.4575
19698TIP3   OH280584   3.357   2.330  14.160  0.4649 -0.2134  0.4360
19698TIP3    H180585   3.321   2.247  14.192  1.3982 -0.7791  0.0634
19698TIP3    H280586   3.303   2.352  14.084  0.7795 -0.9445  0.0020
19699TIP3   OH280587   6.306   6.593  15.293  0.5596 -0.6605 -0.7600
19699TIP3    H180588   6.216   6.569  15.314  0.2203  0.1667 -1.2433
19699TIP3    H280589   6.345   6.511  15.262 -0.0471 -1.0077 -0.6343
19700TIP3   OH280590   6.567   0.958   0.526 -0.2402  0.2547  0.5817
19700TIP3    H180591   6.483   1.003   0.516  0.3674  1.2161 -0.5324
19700TIP3    H280592   6.570   0.932   0.618 -0.7718  2.2513  1.2178
19701TIP3   OH280593   4.514   0.155  17.262 -0.2134  0.3187  0.2514
19701TIP3    H180594   4.475   0.198  17.185  1.1411 -0.3002 -0.8116
19701TIP3    H280595   4.536   0.228  17.320  1.0688  1.0514 -1.0693
19702TIP3   OH280596   2.415   4.214   1.721 -0.6258 -0.1757  0.1490
19702TIP3    H180597   2.446   4.173   1.640 -1.2695 -0.5591  0.0872
19702TIP3    H280598   2.453   4.161   1.791 -0.4882 -0.1580  0.0873
19703TIP3   OH280599   6.390   4.596  15.114  0.1083 -0.0073 -0.7894
19703TIP3    H180600   6.368   4.596  15.207  0.2403  1.8793 -0.7290
19703TIP3    H280601   6.485   4.584  15.113  0.2088  0.7270 -0.6317
19704TIP3   OH280602   0.425   6.263  13.137 -0.2825  0.6646  0.0984
19704TIP3    H180603   0.353   6.216  13.095 -1.3337  2.1208  0.1994
19704TIP3    H280604   0.389   6.349  13.158  1.4837  1.4239  0.2013
19705TIP3   OH280605   3.956   4.673  13.323  0.1244 -0.3856  0.2654
19705TIP3    H180606   3.947   4.630  13.408  0.5515 -0.0678  0.4751
19705TIP3    H280607   3.967   4.766  13.344 -0.1286 -0.2592 -0.1533
19706TIP3   OH280608   4.648   0.593  12.382  0.0701  0.9525 -0.0720
19706TIP3    H180609   4.589   0.600  12.457 -0.4351 -0.1429 -0.3469
19706TIP3    H280610   4.628   0.670  12.329 -1.8429  0.1325 -0.6418
19707TIP3   OH280611   0.149   3.592  12.522  0.2997  0.2171 -0.1759
19707TIP3    H180612   0.124   3.501  12.538  0.6712 -0.2061 -1.7941
19707TIP3    H280613   0.159   3.630  12.609 -0.6293 -1.0676  0.5234
19708TIP3   OH280614   1.988   4.947  10.631  0.1001 -0.1971  0.0367
19708TIP3    H180615   1.974   5.042  10.623  0.1068 -0.0865  1.1184
19708TIP3    H280616   2.082   4.939  10.648 -0.2088 -0.2175  1.9753
19709TIP3   OH280617   6.738   3.531   5.998  0.6946  0.0844 -0.2037
19709TIP3    H180618   6.734   3.590   6.073 -0.0121  0.9418 -0.8913
19709TIP3    H280619   6.825   3.491   6.003  0.3593 -0.4836  1.5011
19710TIP3   OH280620   1.611   6.042  12.098  0.6604  0.6973 -0.1039
19710TIP3    H180621   1.586   5.962  12.050 -0.5611  1.5155 -0.8877
19710TIP3    H280622   1.686   6.076  12.050  2.4619 -0.9600  1.3640
19711TIP3   OH280623   1.834   1.018  13.061 -0.1996  0.0300 -0.1769
19711TIP3    H180624   1.762   0.989  13.117  0.2837 -0.7536  0.0538
19711TIP3    H280625   1.883   1.080  13.116 -1.7755  2.1266 -0.9920
19712TIP3   OH280626   0.014   4.925  14.453 -0.3362 -0.5621 -0.3117
19712TIP3    H180627  -0.077   4.933  14.424 -0.0705 -0.4473 -1.1347
19712TIP3    H280628   0.036   5.012  14.486 -0.6299 -0.6849  0.2241
19713TIP3   OH280629   3.452   6.546  11.815 -0.0115 -0.0801  0.0159
19713TIP3    H180630   3.420   6.530  11.904  1.9162  0.1405  0.7953
19713TIP3    H280631   3.537   6.588  11.827  0.0580  0.4401 -1.9543
19714TIP3   OH280632   1.506   3.893   6.319 -0.4783  0.3492  0.4341
19714TIP3    H180633   1.499   3.929   6.230 -0.2917  0.8198  0.6039
19714TIP3    H280634   1.439   3.825   6.323  1.8195 -2.2188 -1.2534
19715TIP3   OH280635   3.704   6.697   4.282  0.5953  0.2935  0.1322
19715TIP3    H180636   3.636   6.751   4.323 -1.8237 -1.7740 -0.8539
19715TIP3    H280637   3.734   6.639   4.352 -0.5024 -0.4123  0.0553
19716TIP3   OH280638   6.458   5.515  15.707 -0.7541  0.4677 -0.8448
19716TIP3    H180639   6.488   5.563  15.630 -0.3500  0.2918 -0.8011
19716TIP3    H280640   6.427   5.431  15.673 -0.2536  0.2530 -0.7833
19717TIP3   OH280641   4.102   4.090   4.398  0.5928  0.4751  0.0972
19717TIP3    H180642   4.165   4.161   4.410  0.0165  0.9041  0.6396
19717TIP3    H280643   4.017   4.133   4.394  0.4314  0.0915 -2.5179
19718TIP3   OH280644   3.488   1.024  16.929  0.1684  0.4700  0.2900
19718TIP3    H180645   3.479   1.005  16.836  0.9176 -1.7502  0.5987
19718TIP3    H280646   3.399   1.011  16.964  0.0631  0.4302  0.0125
19719TIP3   OH280647   4.967   2.426   4.688 -0.1215  0.6627 -0.4072
19719TIP3    H180648   4.958   2.489   4.616  2.8041  0.3651 -1.1948
19719TIP3    H280649   4.927   2.346   4.655 -0.6918  1.1155 -0.8467
19720TIP3   OH280650   5.691   0.241   2.828  0.3414  0.2927  0.2635
19720TIP3    H180651   5.694   0.232   2.733 -1.4949  0.2834  0.1696
19720TIP3    H280652   5.756   0.308   2.848  1.3884 -0.3336 -0.8793
19721TIP3   OH280653   1.006   5.196   0.998 -0.3407  0.5388  0.1231
19721TIP3    H180654   0.981   5.283   1.031  0.1417  1.1235 -1.0071
19721TIP3    H280655   1.097   5.206   0.970  0.4228 -0.8859  1.8342
19722TIP3   OH280656   2.028   1.976   1.081  0.0874 -0.1222 -0.5781
19722TIP3    H180657   2.078   2.054   1.057 -1.8499  1.9781  1.6755
19722TIP3    H280658   2.047   1.963   1.174  0.0661 -2.1744 -0.8105
19723TIP3   OH280659   3.364   3.128   0.975  0.1233 -0.0086  0.0925
19723TIP3    H180660   3.450   3.161   0.999  0.4459 -0.1132 -0.8577
19723TIP3    H280661   3.374   3.100   0.883 -0.6497 -0.9483  0.2772
19724TIP3   OH280662   1.920   5.629   4.828  0.6169  0.2269 -0.0539
19724TIP3    H180663   1.924   5.642   4.733 -2.4814  0.0919 -0.3340
19724TIP3    H280664   1.969   5.549   4.843  2.4537  1.0511 -1.2911
19725TIP3   OH280665   3.966   6.392   2.390  0.3486 -0.2621 -0.1284
19725TIP3    H180666   4.013   6.473   2.407 -0.3873  0.4838 -1.4430
19725TIP3    H280667   3.998   6.362   2.305 -2.1309  0.8086 -1.5691
19726TIP3   OH280668   0.719   5.363   2.897  0.1727  0.9260  0.4151
19726TIP3    H180669   0.717   5.451   2.934 -1.1313  0.6868  0.9683
19726TIP3    H280670   0.630   5.349   2.863 -0.0855 -0.7071  1.6456
19727TIP3   OH280671   5.121   6.520  14.384 -0.5041 -0.0715  0.4860
19727TIP3    H180672   5.214   6.541  14.378 -0.0157 -1.9617  0.5565
19727TIP3    H280673   5.111   6.477  14.470 -1.6867  1.1127  0.9786
19728TIP3   OH280674   4.875   3.113   2.153  0.6641 -0.0190 -0.1188
19728TIP3    H180675   4.968   3.097   2.166  0.9903  1.4711 -0.4187
19728TIP3    H280676   4.856   3.077   2.067  1.3642  1.1255 -0.7755
19729TIP3   OH280677   3.330   5.135   6.143 -0.2302  0.1856  0.7618
19729TIP3    H180678   3.309   5.199   6.211  0.2702  0.8704  0.2855
19729TIP3    H280679   3.289   5.054   6.173  0.0846  0.4436  1.9346
19730TIP3   OH280680   0.958   1.229   0.411 -0.2428 -0.1396  0.1786
19730TIP3    H180681   0.964   1.134   0.422 -0.2180 -0.1324  0.2311
19730TIP3    H280682   0.965   1.243   0.317 -2.1850 -0.3299 -0.0383
19731TIP3   OH280683   6.290   5.627   1.775  0.0925  0.2255  0.4702
19731TIP3    H180684   6.231   5.693   1.739 -1.2524 -0.6391  1.0045
19731TIP3    H280685   6.351   5.676   1.830 -1.7616  0.9298  2.0102
19732TIP3   OH280686   3.991   5.462   2.998  0.2248 -0.9908  0.0020
19732TIP3    H180687   4.052   5.451   2.925 -0.8463 -1.5770 -0.8293
19732TIP3    H280688   3.951   5.548   2.982  0.1505 -1.0213  0.0233
19733TIP3   OH280689   4.443   2.195   6.069 -0.7033 -0.2467  0.2979
19733TIP3    H180690   4.365   2.192   6.123 -2.3790  1.5963 -1.7944
19733TIP3    H280691   4.509   2.237   6.124 -2.1416  1.0123  1.1471
19734TIP3   OH280692   0.763   0.884   2.901 -0.4558 -0.8483 -0.3526
19734TIP3    H180693   0.776   0.978   2.885 -1.7369 -0.4560  0.6558
19734TIP3    H280694   0.690   0.860   2.844 -0.3528 -1.1510 -0.3578
19735TIP3   OH280695   6.690   3.581   3.384  0.0677  0.5129  0.1112
19735TIP3    H180696   6.673   3.668   3.420  0.2899 -0.2729  2.2443
19735TIP3    H280697   6.763   3.548   3.436 -0.3442 -1.1429 -0.3277
19736TIP3   OH280698   0.889   4.163   2.798 -0.0918  0.2194 -0.5928
19736TIP3    H180699   0.962   4.184   2.740  0.3788  1.3021  0.3665
19736TIP3    H280700   0.833   4.241   2.795  0.0237  0.3534  0.5405
19737TIP3   OH280701   0.114   4.696  12.358  0.0064 -0.3558 -0.1485
19737TIP3    H180702   0.096   4.618  12.411  0.4338  0.1418  0.7462
19737TIP3    H280703   0.161   4.662  12.282 -0.7068 -1.0947 -0.2862
19738TIP3   OH280704   5.265   1.308  13.709 -0.5094 -0.2121  0.2857
19738TIP3    H180705   5.298   1.324  13.621 -2.0036  0.6076 -0.1498
19738TIP3    H280706   5.251   1.395  13.746  0.0854 -0.5425  1.3573
19739TIP3   OH280707   3.544   5.295  12.567  0.4270  0.3408  0.6104
19739TIP3    H180708   3.554   5.328  12.656 -1.3189 -0.8728  1.2993
19739TIP3    H280709   3.496   5.365  12.521 -0.7710  0.0132  1.3030
19740TIP3   OH280710   4.363   3.376   4.756 -0.3663  0.2578  0.4473
19740TIP3    H180711   4.419   3.300   4.767 -0.6346 -0.0713 -0.4078
19740TIP3    H280712   4.359   3.416   4.843 -1.1011 -1.3056  1.1757
19741TIP3   OH280713   6.097   4.771  13.357  0.3316 -0.3628 -0.0548
19741TIP3    H180714   6.167   4.835  13.346 -1.3528  1.7589  0.8862
19741TIP3    H280715   6.065   4.785  13.446 -1.2148 -1.3509 -0.4160
19742TIP3   OH280716   4.520   6.732   5.635  0.4596 -0.1171 -0.4480
19742TIP3    H180717   4.458   6.688   5.577 -0.5212  0.4998  0.1150
19742TIP3    H280718   4.468   6.762   5.709  1.3746  0.6460 -0.0846
19743TIP3   OH280719   2.461   0.456   4.060 -0.0308  0.5932 -0.2965
19743TIP3    H180720   2.466   0.369   4.099  1.5199 -0.1388 -1.9760
19743TIP3    H280721   2.476   0.517   4.133  2.5482 -0.6831  0.3468
19744TIP3   OH280722   0.786   2.452  14.642 -0.0662 -0.1001  0.0975
19744TIP3    H180723   0.795   2.357  14.649 -0.4292 -0.2352 -1.0588
19744TIP3    H280724   0.875   2.485  14.634 -0.0317 -0.5394 -1.5609
19745TIP3   OH280725   1.712   0.986  11.913  0.3052  0.4775 -0.2946
19745TIP3    H180726   1.656   1.011  11.987 -0.5006  0.0057 -0.7318
19745TIP3    H280727   1.653   0.984  11.838  0.5892 -1.4431 -0.5062
19746TIP3   OH280728   3.665   4.485  11.210  0.1064 -0.0064 -0.3268
19746TIP3    H180729   3.667   4.577  11.185 -0.9289 -0.4816 -2.3531
19746TIP3    H280730   3.656   4.438  11.127  2.3471 -2.0548  0.4724
19747TIP3   OH280731   3.025   2.390   5.901 -0.4345 -0.4857 -0.4500
19747TIP3    H180732   2.979   2.318   5.859  0.6315 -0.1213 -2.3489
19747TIP3    H280733   3.096   2.413   5.840  0.0672  1.2942  0.7092
19748TIP3   OH280734   2.574   2.400  13.965 -0.0475 -1.0214 -0.0050
19748TIP3    H180735   2.500   2.460  13.962  0.7179 -0.0891 -0.7083
19748TIP3    H280736   2.643   2.449  14.009  0.9787 -0.9215 -1.6427
19749TIP3   OH280737   1.807   4.871  16.758 -0.1280  0.4772  0.2378
19749TIP3    H180738   1.830   4.946  16.813 -0.9831  1.2080 -0.3619
19749TIP3    H280739   1.854   4.886  16.676 -0.3434  0.3970  0.0980
19750TIP3   OH280740   1.518   5.896  14.840  0.3856  0.5662 -0.0512
19750TIP3    H180741   1.457   5.868  14.772 -0.5365  0.4239  0.8120
19750TIP3    H280742   1.538   5.987  14.818  1.0779  0.1479 -1.2036
19751TIP3   OH280743   3.988   2.528  12.196 -0.2718 -0.0879 -0.2039
19751TIP3    H180744   4.022   2.573  12.273  2.7006  0.1823 -1.5378
19751TIP3    H280745   3.926   2.590  12.157 -0.2278  0.6368  0.8507
19752TIP3   OH280746   4.753   4.288   4.574 -0.1838  0.1425  0.3047
19752TIP3    H180747   4.775   4.197   4.595  0.5671 -0.0114 -1.0533
19752TIP3    H280748   4.711   4.283   4.489  0.7985  1.1696 -0.2594
19753TIP3   OH280749   2.521   5.313   3.360  0.2511  1.1868 -0.0332
19753TIP3    H180750   2.583   5.271   3.419  0.0397  2.6050  1.2469
19753TIP3    H280751   2.576   5.353   3.293  0.5177  0.0075 -0.5536
19754TIP3   OH280752   3.611   1.142   3.840  0.5667 -0.8798 -0.2183
19754TIP3    H180753   3.625   1.050   3.819 -1.2070 -1.7547  1.9282
19754TIP3    H280754   3.637   1.149   3.932  3.8495  1.6391 -1.1341
19755TIP3   OH280755   4.041   2.177  17.373  0.4610 -0.1146 -0.5871
19755TIP3    H180756   3.956   2.141  17.347  1.5205 -2.6640 -0.7860
19755TIP3    H280757   4.070   2.227  17.298 -0.9358  1.0209 -0.4252
19756TIP3   OH280758   3.747   2.391  16.320  0.3041 -0.0127 -0.3994
19756TIP3    H180759   3.716   2.347  16.399 -0.4807  0.2912 -0.5345
19756TIP3    H280760   3.759   2.482  16.346  1.3710 -0.1684 -0.2769
19757TIP3   OH280761   2.159   0.839  11.807 -0.4111 -0.1292  0.6269
19757TIP3    H180762   2.064   0.844  11.808 -0.4908 -1.1214 -0.4506
19757TIP3    H280763   2.187   0.911  11.751 -0.4344  0.8819  1.8541
19758TIP3   OH280764   4.759   3.582   1.494 -0.5643  0.1780  0.8829
19758TIP3    H180765   4.710   3.556   1.572 -0.4991 -0.3196  0.7634
19758TIP3    H280766   4.737   3.674   1.481 -4.4200 -0.8410 -1.2978
19759TIP3   OH280767   3.133   3.842  16.339 -0.7148  0.7514 -0.0077
19759TIP3    H180768   3.112   3.918  16.393  0.3832  1.0117  0.0867
19759TIP3    H280769   3.105   3.866  16.251  0.1120  1.4944 -0.0773
19760TIP3   OH280770   5.740   0.035   0.080  0.3350  0.0488 -0.0326
19760TIP3    H180771   5.720  -0.050   0.039 -0.3005  0.1090  0.1461
19760TIP3    H280772   5.696   0.031   0.165  0.6377  0.4044  0.1409
19761TIP3   OH280773   4.376   4.054  11.173  0.7074  0.0067 -0.1823
19761TIP3    H180774   4.365   4.012  11.087 -0.8116 -1.3035  0.6083
19761TIP3    H280775   4.443   4.002  11.217  0.6829 -0.0058 -0.1590
19762TIP3   OH280776   1.743   2.303  17.405 -0.6442 -0.2967 -0.6927
19762TIP3    H180777   1.726   2.329  17.315  0.9521 -0.3097 -1.0244
19762TIP3    H280778   1.836   2.321  17.419 -0.3321 -2.3062  0.2646
19763TIP3   OH280779   1.701   2.938   3.771  0.0532 -0.5646 -0.2505
19763TIP3    H180780   1.615   2.950   3.730 -0.1912 -2.2557 -0.3215
19763TIP3    H280781   1.687   2.957   3.864 -0.4084 -0.8780 -0.2562
19764TIP3   OH280782   3.358   6.250   2.219 -0.4532  0.3306  0.1217
19764TIP3    H180783   3.352   6.223   2.128 -2.6696 -0.7860  0.5236
19764TIP3    H280784   3.446   6.286   2.228  0.3884 -0.9863 -2.0573
19765TIP3   OH280785   5.857   0.303  14.644 -0.0007 -0.3348  0.4279
19765TIP3    H180786   5.820   0.278  14.729  0.5897 -0.3244  0.6941
19765TIP3    H280787   5.889   0.392  14.657 -0.1780 -0.2243  0.1055
19766TIP3   OH280788   2.228   6.564   0.058 -0.3899  0.2829 -0.2207
19766TIP3    H180789   2.139   6.587   0.084 -0.8289  0.2681 -1.6289
19766TIP3    H280790   2.252   6.492   0.117 -0.4328  1.7162  1.6603
19767TIP3   OH280791   4.176   6.171   1.028 -0.0995 -0.2307  0.3655
19767TIP3    H180792   4.244   6.213   1.080 -0.4124  0.8692 -0.0826
19767TIP3    H280793   4.223   6.103   0.978  0.4904 -0.1320  0.7713
19768TIP3   OH280794   0.179   0.013   3.743  0.0833  0.2597 -0.8963
19768TIP3    H180795   0.274   0.003   3.738  0.2718  2.0713 -1.5405
19768TIP3    H280796   0.146  -0.038   3.669  0.6325  0.4340 -1.2704
19769TIP3   OH280797   6.180   2.669   2.238 -0.1207  0.1361  0.0163
19769TIP3    H180798   6.211   2.702   2.153 -1.4552  1.2547 -0.0764
19769TIP3    H280799   6.223   2.725   2.303 -0.1082  0.1311  0.0124
19770TIP3   OH280800   1.777   0.867  14.757  0.3775 -0.6537  0.3424
19770TIP3    H180801   1.716   0.861  14.684  0.8169  1.2526 -0.2340
19770TIP3    H280802   1.858   0.828  14.724  0.6719  0.4915 -0.3193
19771TIP3   OH280803   2.791   3.118  12.143 -0.1370  0.6759 -0.2982
19771TIP3    H180804   2.863   3.088  12.088 -0.7914 -0.7335 -0.4442
19771TIP3    H280805   2.742   3.038  12.165  0.0747  1.1579  2.3227
19772TIP3   OH280806   0.424   4.975  16.633  0.3579  0.3358 -0.3686
19772TIP3    H180807   0.346   4.995  16.583 -0.7070  0.3083  1.1938
19772TIP3    H280808   0.443   4.883  16.613  0.5070  0.5773 -1.3897
19773TIP3   OH280809   0.813   5.912  13.303 -0.4864  0.0880  0.4920
19773TIP3    H180810   0.835   5.858  13.226 -0.2660  0.0872  0.5537
19773TIP3    H280811   0.771   5.851  13.364 -0.6650  0.0900  0.3703
19774TIP3   OH280812   1.057   0.729  11.464 -0.2201 -0.2904 -0.3772
19774TIP3    H180813   0.966   0.710  11.445 -0.8658  1.4803  0.6709
19774TIP3    H280814   1.056   0.816  11.504  1.6865 -1.0515  1.5582
19775TIP3   OH280815   0.269   2.310   0.137 -0.5351 -0.3515 -0.4916
19775TIP3    H180816   0.326   2.280   0.208 -1.4827 -2.8313 -0.6514
19775TIP3    H280817   0.255   2.403   0.154  1.9369 -0.1198  0.6382
19776TIP3   OH280818   0.303   6.384  10.797 -0.1539 -0.0724  0.8925
19776TIP3    H180819   0.243   6.319  10.760  2.2321 -1.7175 -0.3213
19776TIP3    H280820   0.343   6.426  10.721 -0.4093  1.6732  1.6797
19777TIP3   OH280821   3.748   4.110   2.004  0.5853  0.2185  0.3152
19777TIP3    H180822   3.764   4.126   1.911  0.3676 -0.7322  0.1094
19777TIP3    H280823   3.737   4.016   2.011 -0.3032  0.3699  1.1711
19778TIP3   OH280824   3.421   2.016   4.211 -0.0073 -0.6697  0.0151
19778TIP3    H180825   3.397   2.096   4.162  0.9326 -0.1276  0.4030
19778TIP3    H280826   3.394   2.033   4.300 -0.7780 -1.2350 -0.1064
19779TIP3   OH280827   2.139   2.613  16.909 -0.0807  0.9617 -0.0155
19779TIP3    H180828   2.107   2.703  16.906 -1.3181  0.4990 -1.2677
19779TIP3    H280829   2.079   2.564  16.854 -1.0896 -1.1609  2.7587
19780TIP3   OH280830   3.962   6.524  15.326 -0.3118 -0.0677 -0.8181
19780TIP3    H180831   3.979   6.430  15.322 -1.1618 -0.2195 -1.0447
19780TIP3    H280832   3.979   6.547  15.417  0.0837 -0.4084 -0.8042
19781TIP3   OH280833   6.564   0.258  17.211 -0.0886 -0.3385 -0.4291
19781TIP3    H180834   6.658   0.261  17.194  0.1450  1.2807  0.8804
19781TIP3    H280835   6.548   0.167  17.238  1.4032 -0.3141  0.7180
19782TIP3   OH280836   5.601   6.107  17.327  0.2574 -0.6696  0.1707
19782TIP3    H180837   5.603   6.013  17.310  1.2059 -0.4773 -0.9098
19782TIP3    H280838   5.557   6.116  17.412 -1.3544 -1.9625 -0.4869
19783TIP3   OH280839   4.492   1.762   6.654  0.2237 -0.2365  0.0218
19783TIP3    H180840   4.490   1.815   6.734  1.5691 -2.3891  1.6127
19783TIP3    H280841   4.437   1.686   6.674  1.2516 -1.2204 -0.7523
19784TIP3   OH280842   6.429   4.217  14.471 -0.5947 -0.0547  0.1049
19784TIP3    H180843   6.410   4.299  14.426  1.5457 -0.7841 -2.3759
19784TIP3    H280844   6.516   4.230  14.509 -0.8332 -0.7229  0.9232
19785TIP3   OH280845   1.630   3.706  13.928 -0.3165 -0.6601  0.0647
19785TIP3    H180846   1.675   3.786  13.955 -1.0703 -0.7321  1.6180
19785TIP3    H280847   1.553   3.737  13.882  0.2616 -0.5255 -0.8417
19786TIP3   OH280848   2.812   4.701  14.976 -0.6693  0.1226  0.9415
19786TIP3    H180849   2.855   4.771  15.026 -2.2148  1.9742 -0.1520
19786TIP3    H280850   2.839   4.716  14.885 -1.7800 -0.0812  0.5550
19787TIP3   OH280851   0.044   0.086   5.991 -0.2446 -0.8251  0.1280
19787TIP3    H180852   0.111   0.106   5.925 -0.0864 -0.9375  0.2543
19787TIP3    H280853   0.081   0.015   6.043 -0.7842 -1.4076 -0.2739
19788TIP3   OH280854   0.199   4.236   5.090  0.1808 -0.4844  0.0123
19788TIP3    H180855   0.233   4.202   5.008  1.4104 -2.1425  1.1375
19788TIP3    H280856   0.218   4.330   5.088  3.0580 -0.9874 -0.3089
19789TIP3   OH280857   2.813   0.516  16.013 -0.2970  0.1998  0.1919
19789TIP3    H180858   2.792   0.609  16.001 -1.4016  0.5208  3.5187
19789TIP3    H280859   2.744   0.470  15.964 -1.3859  1.1772  0.7422
19790TIP3   OH280860   2.392   3.849  15.455  0.0167  0.0182  0.7221
19790TIP3    H180861   2.331   3.870  15.525 -1.5153  1.5967 -0.9770
19790TIP3    H280862   2.396   3.929  15.402 -0.6543 -1.7429 -2.2323
19791TIP3   OH280863   1.621   2.182   5.636  0.1479  0.1031  0.1729
19791TIP3    H180864   1.592   2.268   5.606  1.7240  2.0809  3.7120
19791TIP3    H280865   1.707   2.171   5.595 -1.2039 -1.2377 -2.5342
19792TIP3   OH280866   1.569   5.001  13.753  0.5463 -0.6705 -0.4149
19792TIP3    H180867   1.576   4.992  13.848 -0.3275 -2.0223 -0.4424
19792TIP3    H280868   1.654   5.035  13.725  0.0146  2.2376  1.0727
19793TIP3   OH280869   1.428   4.265  11.831 -0.0093 -0.4348  0.2936
19793TIP3    H180870   1.468   4.201  11.772 -1.0889 -0.7148 -0.1621
19793TIP3    H280871   1.433   4.223  11.917  0.4743 -0.5602  0.2057
19794TIP3   OH280872   0.409   4.218   4.497  0.1877  0.1720 -0.2121
19794TIP3    H180873   0.415   4.166   4.417  1.8052 -0.8497  0.4922
19794TIP3    H280874   0.317   4.239   4.507  0.2307  3.0834 -3.9846
19795TIP3   OH280875   1.542   0.022  12.686  0.1787 -0.5433  0.1447
19795TIP3    H180876   1.511  -0.062  12.651 -1.8880 -1.0754  2.9491
19795TIP3    H280877   1.629   0.002  12.721 -0.0180 -1.3355  0.2037
19796TIP3   OH280878   3.148   3.109  16.050 -0.0038 -0.1787  0.1819
19796TIP3    H180879   3.125   3.152  15.968  0.6253  0.0369  0.1137
19796TIP3    H280880   3.072   3.124  16.107 -0.9408 -1.3383 -0.7254
19797TIP3   OH280881   6.433   0.608   3.000  0.2016  0.1567 -0.6464
19797TIP3    H180882   6.463   0.670   2.934  1.0903  0.3356 -0.0978
19797TIP3    H280883   6.338   0.604   2.988  0.4283 -0.4960 -2.5047
19798TIP3   OH280884   5.108   2.922  13.146 -0.3831 -0.3089  0.3683
19798TIP3    H180885   5.027   2.938  13.099  0.1504 -0.9556 -0.7982
19798TIP3    H280886   5.157   3.004  13.139  0.2694 -0.8191 -1.4023
19799TIP3   OH280887   4.923   1.116   0.093 -0.2290 -0.7380  0.0449
19799TIP3    H180888   4.862   1.115   0.166 -1.0661  1.3513 -0.5681
19799TIP3    H280889   5.005   1.149   0.130  0.0783 -1.9519  0.5053
19800TIP3   OH280890   6.739   4.890   5.569 -0.1672  0.4806  0.4008
19800TIP3    H180891   6.646   4.914   5.576  0.1049  1.5825  0.4118
19800TIP3    H280892   6.752   4.870   5.477 -0.2358  1.1439  0.2404
19801TIP3   OH280893   3.188   5.829  12.549 -0.1059 -0.3832  0.0373
19801TIP3    H180894   3.263   5.783  12.586 -1.0902 -2.3757 -0.3384
19801TIP3    H280895   3.116   5.811  12.609 -0.3158  1.6728  0.5046
19802TIP3   OH280896   5.254   2.217  14.789 -0.1360 -0.0199 -0.5689
19802TIP3    H180897   5.339   2.185  14.759 -0.4800  0.6266 -2.3327
19802TIP3    H280898   5.250   2.191  14.881  2.1313  0.2994 -0.3255
19803TIP3   OH280899   6.370   2.869  16.269  0.5579 -0.2837  0.0934
19803TIP3    H180900   6.359   2.833  16.181  1.0394 -0.1397 -0.0294
19803TIP3    H280901   6.281   2.880  16.301  0.3915 -1.4215  0.0705
19804TIP3   OH280902   1.561   3.479   5.939 -0.3656  0.7944 -0.0970
19804TIP3    H180903   1.533   3.422   5.868 -0.1695  1.3315 -0.6214
19804TIP3    H280904   1.590   3.420   6.008 -0.0664  0.2640 -0.6672
19805TIP3   OH280905   0.621   3.492  14.517 -0.3141  0.1032 -0.2073
19805TIP3    H180906   0.568   3.447  14.452 -0.9638  1.4966 -0.6804
19805TIP3    H280907   0.570   3.487  14.598 -0.2863 -0.1712 -0.2051
19806TIP3   OH280908   1.544   3.226   4.820 -0.5588 -0.5724 -0.1630
19806TIP3    H180909   1.616   3.277   4.857  0.3251 -1.8293 -0.1009
19806TIP3    H280910   1.513   3.278   4.746  2.6453 -1.5224 -2.3381
19807TIP3   OH280911   3.344   4.120   3.180  0.4105  0.0184 -0.0030
19807TIP3    H180912   3.257   4.081   3.170  0.7836 -1.2564  1.4272
19807TIP3    H280913   3.355   4.173   3.101 -1.0288 -1.0266 -0.9678
19808TIP3   OH280914   5.855   0.408   4.115 -0.3661 -0.1653 -0.1692
19808TIP3    H180915   5.796   0.440   4.183  1.6064 -0.1756  1.6520
19808TIP3    H280916   5.816   0.325   4.086 -2.6007  1.0865 -0.9980
19809TIP3   OH280917   5.499   6.608   1.400  0.1744  0.0681 -0.4669
19809TIP3    H180918   5.544   6.584   1.481  1.3311 -0.3083 -1.1947
19809TIP3    H280919   5.410   6.575   1.411  0.5283 -0.6540  0.3407
19810TIP3   OH280920   6.199   3.394  12.237  0.0854  0.2729 -0.1186
19810TIP3    H180921   6.128   3.368  12.178  0.6903 -0.4828 -0.5364
19810TIP3    H280922   6.175   3.482  12.266 -0.3448  0.5772 -1.3229
19811TIP3   OH280923   1.592   0.269  15.626 -0.0866 -0.0750  0.1902
19811TIP3    H180924   1.539   0.254  15.548 -0.3356 -1.5974  0.6245
19811TIP3    H280925   1.531   0.304  15.690  0.0307  0.7862 -0.1608
19812TIP3   OH280926   1.535   2.281  16.711  0.2756  1.2098 -0.4457
19812TIP3    H180927   1.551   2.357  16.767 -0.2974  0.0945  1.3313
19812TIP3    H280928   1.573   2.208  16.760  0.9489  0.3468 -2.1840
19813TIP3   OH280929   3.573   1.195  13.635 -0.2268  0.2451 -0.5069
19813TIP3    H180930   3.506   1.255  13.668  0.4907  0.6286  0.3115
19813TIP3    H280931   3.567   1.202  13.540 -2.0736 -0.5626 -0.4933
19814TIP3   OH280932   6.324   3.177   5.797 -0.2083  0.3542 -0.0897
19814TIP3    H180933   6.317   3.099   5.851  0.5725 -0.2960 -0.8913
19814TIP3    H280934   6.415   3.207   5.809  0.1638 -0.1579 -1.4836
19815TIP3   OH280935   0.239   4.551   5.564 -0.8110 -0.2138 -0.6189
19815TIP3    H180936   0.282   4.489   5.505  1.4664 -1.7400  2.3924
19815TIP3    H280937   0.161   4.504   5.594 -1.0988 -0.0863 -1.1555
19816TIP3   OH280938   4.964   0.734   5.491 -0.0503 -1.1297 -0.7629
19816TIP3    H180939   4.971   0.793   5.566  2.2793 -3.2395  0.8389
19816TIP3    H280940   4.906   0.779   5.430  1.7106  2.8581  0.2250
19817TIP3   OH280941   0.978   2.944  17.327  0.5433 -0.2115  0.2794
19817TIP3    H180942   1.031   2.884  17.274 -0.3548 -0.4197 -0.4012
19817TIP3    H280943   1.031   3.023  17.334  1.0172 -0.4753 -0.2543
19818TIP3   OH280944   0.667   0.976  14.398 -0.0682 -0.1822  0.0353
19818TIP3    H180945   0.684   0.884  14.419  0.1682  0.2563  1.9003
19818TIP3    H280946   0.751   1.019  14.413 -0.8411  0.7664  1.8673
19819TIP3   OH280947   3.798   1.503  13.783 -0.1948  0.2531  0.7793
19819TIP3    H180948   3.738   1.439  13.745 -0.7242  1.0621  0.2186
19819TIP3    H280949   3.783   1.583  13.733  3.8634 -0.3530 -1.8676
19820TIP3   OH280950   4.409   5.890   2.061  0.2586 -0.0175  0.2175
19820TIP3    H180951   4.374   5.975   2.087 -2.8349 -0.2212 -2.6462
19820TIP3    H280952   4.353   5.826   2.106  0.2573 -0.4496 -0.3790
19821TIP3   OH280953   6.037   3.700   0.170 -0.6409  0.2849 -0.0341
19821TIP3    H180954   5.990   3.657   0.099 -1.6372 -0.2879  0.9517
19821TIP3    H280955   6.095   3.632   0.205 -0.0454  0.6066 -0.3885
19822TIP3   OH280956   3.193   4.193  15.740  0.1575 -0.2104  0.4051
19822TIP3    H180957   3.284   4.224  15.735  0.6757 -1.6776  0.0074
19822TIP3    H280958   3.166   4.184  15.649 -0.0139 -0.7436  0.5010
19823TIP3   OH280959   3.193   3.204  15.078  0.9023 -0.0104 -0.1336
19823TIP3    H180960   3.221   3.126  15.030  0.5268 -1.0275  1.2212
19823TIP3    H280961   3.161   3.170  15.162  0.0496  1.5474  0.2108
19824TIP3   OH280962   1.527   2.463   6.373  0.0954 -1.0600  0.2166
19824TIP3    H180963   1.483   2.381   6.395 -0.9707 -0.8219 -0.8975
19824TIP3    H280964   1.461   2.531   6.390  0.0644 -0.6773 -1.2718
19825TIP3   OH280965   0.191   4.887  16.287 -0.0588 -0.2082  0.2665
19825TIP3    H180966   0.156   4.943  16.356  1.2523  1.7848 -0.5952
19825TIP3    H280967   0.115   4.838  16.255 -1.4144  1.5521  0.6479
19826TIP3   OH280968   0.698   4.599  14.716  0.3777 -0.3663  1.0365
19826TIP3    H180969   0.672   4.691  14.712 -0.8572 -0.7208  0.3845
19826TIP3    H280970   0.767   4.596  14.783  1.3812  1.2262  0.1249
19827TIP3   OH280971   5.841   6.724  16.380  0.2896  0.5275  0.0919
19827TIP3    H180972   5.805   6.735  16.292  2.1268  0.9231 -0.6397
19827TIP3    H280973   5.785   6.779  16.436 -0.3940  0.9124 -0.9452
19828TIP3   OH280974   5.862   0.921   6.226 -0.1121  0.2037 -0.2557
19828TIP3    H180975   5.879   1.001   6.276 -0.1749  1.6413 -2.4105
19828TIP3    H280976   5.787   0.943   6.171 -1.1032 -1.8846  0.1515
19829TIP3   OH280977   0.834   0.276  16.372  0.6062  0.3227 -0.2575
19829TIP3    H180978   0.862   0.211  16.436  1.4041 -0.4798 -1.3706
19829TIP3    H280979   0.741   0.260  16.359  0.8189 -0.6921 -0.5959
19830TIP3   OH280980   4.452   4.189  15.754  0.0253 -0.8860 -0.0019
19830TIP3    H180981   4.460   4.133  15.831  1.1373 -1.1402 -0.2726
19830TIP3    H280982   4.358   4.195  15.737 -0.2152 -1.0075  1.2366
19831TIP3   OH280983   5.361   3.300   4.457  0.1659 -0.1773 -0.2146
19831TIP3    H180984   5.313   3.247   4.393  0.7884  0.2372 -1.0315
19831TIP3    H280985   5.356   3.249   4.538  0.6049 -1.4110 -0.9440
19832TIP3   OH280986   3.405   3.115   2.346  0.7746 -0.0252 -0.6416
19832TIP3    H180987   3.380   3.110   2.253  0.7229  0.9114 -0.6873
19832TIP3    H280988   3.489   3.161   2.345  0.2386  1.0037 -0.1580
19833TIP3   OH280989   1.062   4.919  14.416 -0.1478 -0.4446 -0.0011
19833TIP3    H180990   1.016   4.875  14.487  0.6859  0.7329  1.3335
19833TIP3    H280991   1.132   4.859  14.391  1.5221  0.3450  2.3925
19834TIP3   OH280992   1.105   2.465   5.726  0.2081 -0.3914  0.0763
19834TIP3    H180993   1.052   2.479   5.648 -0.7713  0.1052  0.8176
19834TIP3    H280994   1.044   2.430   5.791  1.1929 -1.6230  0.3637
19835TIP3   OH280995   4.610   5.937   2.832  0.3992 -0.5224  0.0896
19835TIP3    H180996   4.517   5.942   2.810  0.3461 -1.3594  0.1149
19835TIP3    H280997   4.632   6.026   2.860  0.3362  0.4816 -2.7061
19836TIP3   OH280998   4.607   5.859   5.892  0.0326 -0.2351  0.3819
19836TIP3    H180999   4.625   5.870   5.985  0.3705 -1.1698  0.4280
19836TIP3    H281000   4.682   5.899   5.848  0.8590 -1.5557  0.5437
19837TIP3   OH281001   3.664   6.008   5.290  0.1095  0.1243  0.5361
19837TIP3    H181002   3.616   5.943   5.238 -1.3179  0.7061  1.0673
19837TIP3    H281003   3.720   6.052   5.228  0.4222 -0.9934 -0.0056
19838TIP3   OH281004   5.383   2.154  15.351 -0.0157  0.2695 -0.1069
19838TIP3    H181005   5.362   2.247  15.350 -0.4393  0.1915  0.7691
19838TIP3    H281006   5.371   2.126  15.260  1.6708  1.3863 -0.7399
19839TIP3   OH281007   4.199   5.717   5.285 -0.2713  0.8098 -0.0012
19839TIP3    H181008   4.190   5.625   5.260 -1.3013  1.1955 -1.1342
19839TIP3    H281009   4.133   5.730   5.353 -0.0441  0.6860  0.2444
19840TIP3   OH281010   4.847   2.661   2.075 -1.0340 -0.0093 -0.2805
19840TIP3    H181011   4.887   2.620   1.998 -0.9884 -1.7426  0.6187
19840TIP3    H281012   4.885   2.615   2.150 -1.3749  1.3734  0.7920
19841TIP3   OH281013   6.476   4.207  13.971  0.3272 -0.5333  0.4519
19841TIP3    H181014   6.502   4.296  13.995  1.8278 -0.2809 -1.7765
19841TIP3    H281015   6.546   4.177  13.912 -0.8990 -2.6224 -0.0376
19842TIP3   OH281016   6.723   5.755   6.090 -0.0036  0.3065  0.2721
19842TIP3    H181017   6.725   5.813   6.015  2.2273  0.3853  0.3379
19842TIP3    H281018   6.780   5.797   6.155  0.9288 -1.4906  0.6657
19843TIP3   OH281019   1.344   2.102  13.193 -0.4641 -0.0813 -0.2590
19843TIP3    H181020   1.361   2.171  13.129 -2.4706  1.6601  0.9265
19843TIP3    H281021   1.425   2.095  13.243  1.2566 -1.7037 -3.0732
19844TIP3   OH281022   2.663   5.230   6.422  0.3003 -0.3684  0.2267
19844TIP3    H181023   2.586   5.182   6.392 -0.2760  0.1579  0.8385
19844TIP3    H281024   2.662   5.220   6.518  1.7855 -1.5376  0.1720
19845TIP3   OH281025   0.471   3.227   6.334 -0.4162 -0.7246 -0.4761
19845TIP3    H181026   0.477   3.300   6.272  1.1367 -2.3355 -2.3605
19845TIP3    H281027   0.561   3.195   6.342 -0.9438 -1.9778  0.8757
19846TIP3   OH281028   0.434   6.123   0.653  0.1542 -0.0836 -0.5360
19846TIP3    H181029   0.360   6.076   0.613 -0.8532  1.6890 -0.8552
19846TIP3    H281030   0.419   6.215   0.630  0.6920  0.7511  2.1381
19847TIP3   OH281031   0.628   2.776  14.622 -0.2252  0.0931  0.2518
19847TIP3    H181032   0.674   2.854  14.592 -2.2579  0.6633 -1.6478
19847TIP3    H281033   0.686   2.703  14.602  1.6309  1.0188  1.8831
19848TIP3   OH281034   0.158   5.821  12.664 -0.0831  0.3337 -0.2749
19848TIP3    H181035   0.120   5.736  12.642  1.5470 -0.6264  0.3876
19848TIP3    H281036   0.237   5.799  12.714  0.8292  2.2244 -0.7985
19849TIP3   OH281037   3.323   0.853  13.302  0.3120  0.1598  0.6569
19849TIP3    H181038   3.381   0.824  13.372 -0.2445 -0.3519  0.9201
19849TIP3    H281039   3.278   0.929  13.338 -0.0907 -0.1994  0.9216
19850TIP3   OH281040   1.259   5.514   0.957 -0.3396 -0.1499 -0.1540
19850TIP3    H181041   1.214   5.586   1.000 -0.5262 -1.3033  1.6679
19850TIP3    H281042   1.352   5.537   0.961 -0.5432  1.1240 -1.8279
19851TIP3   OH281043   6.216   4.086  14.279 -0.4318 -0.4497  0.4442
19851TIP3    H181044   6.194   3.993  14.266  1.2099 -0.9761  1.1114
19851TIP3    H281045   6.310   4.091  14.258 -0.1882  0.7939  1.7035
19852TIP3   OH281046   4.645   6.422  11.759 -0.3209 -0.1291  0.1985
19852TIP3    H181047   4.558   6.407  11.722 -0.2896  0.8777 -0.3454
19852TIP3    H281048   4.705   6.381  11.697 -0.3012  1.0759 -0.6169
19853TIP3   OH281049   6.132   5.678  13.609 -0.0776 -0.1411 -0.5764
19853TIP3    H181050   6.161   5.682  13.700  0.2322  1.5418 -0.7180
19853TIP3    H281051   6.038   5.694  13.613 -0.1505 -0.5644 -0.5256
19854TIP3   OH281052   1.375   1.834   1.539  0.6765 -0.0278  0.1353
19854TIP3    H181053   1.377   1.749   1.584 -0.2874  0.6107  1.4525
19854TIP3    H281054   1.292   1.834   1.492  0.2388  0.5209  0.8792
19855TIP3   OH281055   1.632   4.438  15.042  0.5028 -0.2494  0.5975
19855TIP3    H181056   1.674   4.380  14.978  1.3570  1.0370 -0.0651
19855TIP3    H281057   1.705   4.483  15.086 -0.1092  1.3894  0.0422
19856TIP3   OH281058   2.052   3.915  15.841  0.0722  0.2459  0.1445
19856TIP3    H181059   1.958   3.897  15.850 -0.0685  0.3754 -0.9408
19856TIP3    H281060   2.095   3.836  15.873 -0.3801  0.4342  1.2746
19857TIP3   OH281061   6.552   1.993  13.517  0.1128  0.3982 -0.0427
19857TIP3    H181062   6.467   1.990  13.474  0.5869  0.4356 -1.0008
19857TIP3    H281063   6.533   1.971  13.609 -0.8754  0.1015 -0.3067
19858TIP3   OH281064   5.096   6.110   4.990 -0.2836 -0.7776 -0.2366
19858TIP3    H181065   5.106   6.069   5.076 -0.2299  1.2663  0.7893
19858TIP3    H281066   5.159   6.181   4.989 -0.9706 -0.1291 -1.5828
19859TIP3   OH281067   5.266   0.194   5.771 -0.2182 -0.7026  0.1357
19859TIP3    H181068   5.260   0.188   5.867  0.7582 -2.4570  0.1282
19859TIP3    H281069   5.356   0.171   5.751 -0.9540 -2.6359 -1.3074
19860TIP3   OH281070   5.048   3.468  15.454  0.2307  0.3440  0.0452
19860TIP3    H181071   4.975   3.417  15.418 -0.2083  1.1819 -0.2856
19860TIP3    H281072   5.053   3.442  15.546 -0.6062  0.4144  0.1185
19861TIP3   OH281073   3.544   1.961  14.419 -0.2240 -0.4984  0.5098
19861TIP3    H181074   3.601   1.932  14.490  0.6328  0.1418  0.1100
19861TIP3    H281075   3.460   1.980  14.461  0.0392 -0.8672  1.2157
19862TIP3   OH281076   3.230   0.797  17.145 -0.2241 -0.2291  0.5676
19862TIP3    H181077   3.181   0.789  17.228  0.6281 -0.4570  1.0581
19862TIP3    H281078   3.241   0.707  17.115  0.6452 -0.2463  0.9127
19863TIP3   OH281079   5.742   3.039   0.073 -0.2453  0.8131 -0.2606
19863TIP3    H181080   5.707   2.970   0.129 -0.0100  0.5164 -0.4779
19863TIP3    H281081   5.816   2.998   0.028 -0.2720  1.1271 -0.5913
19864TIP3   OH281082   1.975   2.407  14.571  0.2973 -0.2327 -0.1579
19864TIP3    H181083   1.928   2.378  14.649 -1.0274  0.0362 -0.8298
19864TIP3    H281084   1.912   2.461  14.524  0.5398 -1.6382 -2.1953
19865TIP3   OH281085   2.276   1.355  16.573 -0.7876 -0.2196  0.1694
19865TIP3    H181086   2.370   1.356  16.593 -0.8999  1.2141  0.6914
19865TIP3    H281087   2.256   1.262  16.560  0.3623 -0.7240  1.7075
19866TIP3   OH281088   4.330   0.635   0.839  0.1461  0.7281 -0.2867
19866TIP3    H181089   4.424   0.633   0.822 -0.0647  0.7673 -1.5378
19866TIP3    H281090   4.323   0.658   0.932  1.3992 -0.5882  0.1852
19867TIP3   OH281091   2.587   5.641  14.595  0.5970  1.1024 -0.2449
19867TIP3    H181092   2.661   5.587  14.566 -0.8194 -1.4008  0.4748
19867TIP3    H281093   2.510   5.602  14.553 -0.7271  1.3341  1.7951
19868TIP3   OH281094   3.932   6.128   4.903 -0.1981  0.1992 -0.6309
19868TIP3    H181095   3.882   6.162   4.978 -1.5244 -1.2329 -0.8095
19868TIP3    H281096   3.998   6.071   4.942 -0.2586  0.2209 -0.4935
19869TIP3   OH281097   2.240   6.316  12.800 -0.5014 -0.7499 -0.4227
19869TIP3    H181098   2.194   6.371  12.863  1.5900  1.3799 -0.5874
19869TIP3    H281099   2.253   6.232  12.845 -0.6624  0.0918  1.2711
19870TIP3   OH281100   1.622   1.460  14.380 -0.2197  0.4731 -0.1260
19870TIP3    H181101   1.581   1.375  14.369 -0.0619  0.3623  0.1454
19870TIP3    H281102   1.661   1.458  14.467 -0.5682  0.9750  0.0479
19871TIP3   OH281103   4.150   1.115   2.326 -0.2685 -0.5106  0.2248
19871TIP3    H181104   4.097   1.170   2.269  2.4980 -0.7841 -2.9471
19871TIP3    H281105   4.199   1.177   2.380 -0.0048  0.0179 -0.5902
19872TIP3   OH281106   5.845   3.125  15.860 -0.4065 -0.4152  1.3003
19872TIP3    H181107   5.904   3.189  15.897 -0.5029 -0.5540  1.6953
19872TIP3    H281108   5.864   3.126  15.766 -1.8247  1.6883  0.9595
19873TIP3   OH281109   0.735   1.147   6.374  0.0113 -0.0092 -0.1761
19873TIP3    H181110   0.700   1.058   6.381 -0.2903  0.2253  1.6375
19873TIP3    H281111   0.803   1.151   6.441 -0.6804  1.4257  0.4820
19874TIP3   OH281112   6.298   4.246  12.203 -0.1399  0.3492  0.5662
19874TIP3    H181113   6.222   4.302  12.220 -0.3340  0.4377 -0.5485
19874TIP3    H281114   6.347   4.247  12.285 -1.0629  0.7187  1.1293
19875TIP3   OH281115   6.055   1.839  10.795  0.6634 -0.0088 -0.2559
19875TIP3    H181116   6.136   1.804  10.758  0.5894  1.7549 -2.3521
19875TIP3    H281117   6.076   1.930  10.816  0.1481 -0.4501  2.5314
19876TIP3   OH281118   1.093   0.502  13.357 -0.3146 -0.2213 -0.1719
19876TIP3    H181119   1.137   0.467  13.280 -0.4758 -0.5325 -0.1243
19876TIP3    H281120   1.038   0.573  13.323  1.7409  1.5529  0.0270
19877TIP3   OH281121   5.537   3.624   0.390  0.0129  0.0632  0.3251
19877TIP3    H181122   5.586   3.641   0.471  1.2830  2.1389 -0.8110
19877TIP3    H281123   5.494   3.707   0.370  0.3027 -0.1865 -1.5035
19878TIP3   OH281124   5.399   5.503  14.483 -0.3495  0.2124 -0.2340
19878TIP3    H181125   5.390   5.475  14.392 -0.0748  0.0423 -0.2084
19878TIP3    H281126   5.408   5.599  14.477  0.0017  0.1716 -0.4109
19879TIP3   OH281127   2.644   6.578   4.018 -0.4881 -0.3146  0.3959
19879TIP3    H181128   2.595   6.554   3.940  0.2411 -0.6147  0.0197
19879TIP3    H281129   2.698   6.501   4.038  0.2563  0.2041  0.4499
19880TIP3   OH281130   2.082   2.158  12.062  0.0664 -0.6620 -0.2992
19880TIP3    H181131   2.033   2.239  12.050  0.0357 -0.7219 -0.5776
19880TIP3    H281132   2.159   2.184  12.112  0.2047 -0.4076 -0.6367
19881TIP3   OH281133   4.676   5.384  16.567  0.5783  0.1872  0.1767
19881TIP3    H181134   4.690   5.289  16.565  2.4019  0.4178  0.8184
19881TIP3    H281135   4.593   5.394  16.614  0.5865 -1.0573  0.5080
19882TIP3   OH281136   2.865   5.955   0.732 -0.0823 -0.1200  0.5638
19882TIP3    H181137   2.783   5.981   0.772 -0.1304  1.4935 -0.4934
19882TIP3    H281138   2.841   5.922   0.645  0.4622  2.2322 -0.5715
19883TIP3   OH281139   4.443   5.884   6.470  0.0843  0.0686  0.3872
19883TIP3    H181140   4.376   5.855   6.531  1.3631 -2.2561  0.8089
19883TIP3    H281141   4.521   5.896   6.524  1.3816 -2.5282 -0.7341
19884TIP3   OH281142   5.275   1.615  12.670 -0.1396 -0.0232 -0.3571
19884TIP3    H181143   5.259   1.551  12.740 -0.6730  0.9281  0.4241
19884TIP3    H281144   5.326   1.567  12.604  0.1207 -1.0309  0.5472
19885TIP3   OH281145   0.623   1.144   2.055  0.3564  0.1456 -0.3345
19885TIP3    H181146   0.592   1.114   2.140 -0.5447  1.0190 -0.3390
19885TIP3    H281147   0.593   1.078   1.993  2.3053 -1.2966  0.1583
19886TIP3   OH281148   6.175   1.910  12.302  0.2527 -0.7343  0.1843
19886TIP3    H181149   6.116   1.873  12.367 -1.2252  1.0790 -0.0292
19886TIP3    H281150   6.241   1.957  12.353 -0.4270 -0.0076  0.4205
19887TIP3   OH281151   1.269   1.732   1.865  0.2528  0.4763  0.4558
19887TIP3    H181152   1.183   1.732   1.824 -0.6521 -1.4537  2.1701
19887TIP3    H281153   1.273   1.814   1.913  0.1147  1.3710 -0.9914
19888TIP3   OH281154   5.080   5.347  13.410  0.0720  0.3050  0.2421
19888TIP3    H181155   5.028   5.327  13.333 -0.7078  0.7485  0.6405
19888TIP3    H281156   5.156   5.395  13.376  0.1095 -0.1466 -0.3186
19889TIP3   OH281157   6.603   0.040   5.825  0.0724  0.1250 -0.7978
19889TIP3    H181158   6.577   0.131   5.810  1.6285  0.2788 -2.8388
19889TIP3    H281159   6.671   0.046   5.892 -1.3495  0.1800  0.7356
19890TIP3   OH281160   5.229   1.646   2.454 -0.5398 -0.5396 -0.0767
19890TIP3    H181161   5.288   1.640   2.379 -0.4893  0.2839 -0.1089
19890TIP3    H281162   5.145   1.612   2.421 -0.4549 -0.4031 -0.4328
19891TIP3   OH281163   2.683   3.945  11.225  0.1689 -0.4142 -0.2387
19891TIP3    H181164   2.675   3.859  11.266 -0.9045 -1.9360 -3.2703
19891TIP3    H281165   2.595   3.964  11.192  0.9576  0.5157 -1.9693
19892TIP3   OH281166   6.288   0.496  14.010 -0.1687 -0.2027 -0.5098
19892TIP3    H181167   6.358   0.477  13.947  0.0036  1.9125 -1.0343
19892TIP3    H281168   6.235   0.563  13.967 -1.2982 -0.2515  0.7520
19893TIP3   OH281169   2.654   2.466   1.362  0.2982  0.3077  0.1533
19893TIP3    H181170   2.624   2.379   1.389 -0.8351  0.2267 -1.2809
19893TIP3    H281171   2.749   2.463   1.374  0.3855 -1.4312 -0.6528
19894TIP3   OH281172   2.503   3.336  17.308 -0.0174 -0.6699 -0.2352
19894TIP3    H181173   2.511   3.417  17.258 -0.2134 -0.5961 -0.1483
19894TIP3    H281174   2.477   3.364  17.396  4.6189 -0.3987  1.3077
19895TIP3   OH281175   4.436   4.213  10.854  0.0551  0.0850 -0.3423
19895TIP3    H181176   4.375   4.283  10.831 -0.1984 -0.0470 -0.0740
19895TIP3    H281177   4.494   4.252  10.919  1.0674  0.6043 -1.5159
19896TIP3   OH281178   5.414   1.124   3.157  0.2438  0.0836 -0.0634
19896TIP3    H181179   5.456   1.055   3.209 -1.9481 -0.4905  1.0939
19896TIP3    H281180   5.383   1.078   3.079 -1.6764 -0.4434  0.9477
19897TIP3   OH281181   1.839   2.587  15.376 -0.1015 -0.2024  0.0216
19897TIP3    H181182   1.881   2.546  15.301  0.4810  0.8507 -0.2458
19897TIP3    H281183   1.775   2.522  15.406  1.4725 -1.7559  0.2568
19898TIP3   OH281184   0.634   4.742  15.648  0.3488  0.5044  0.2397
19898TIP3    H181185   0.586   4.667  15.614 -0.1396  0.9762 -0.1211
19898TIP3    H281186   0.668   4.713  15.733  2.7092 -1.1542 -1.1717
19899TIP3   OH281187   5.734   1.681  12.527  0.4359 -0.2442  0.5608
19899TIP3    H181188   5.702   1.593  12.508 -3.0059  1.1447 -0.8753
19899TIP3    H281189   5.754   1.679  12.621 -0.1183 -2.3704  0.6829
19900TIP3   OH281190   3.623   5.319   1.253 -0.1395  0.0012  0.3598
19900TIP3    H181191   3.581   5.235   1.234 -0.1808 -0.2567  1.4981
19900TIP3    H281192   3.550   5.377   1.277  0.0079 -0.0133  0.8469
19901TIP3   OH281193   5.589   4.381   3.015 -0.5910  0.7430  0.3252
19901TIP3    H181194   5.632   4.349   2.936 -0.1120  1.8236  0.1206
19901TIP3    H281195   5.651   4.362   3.086  0.1592  2.0297  0.0711
19902TIP3   OH281196   6.711   3.966  11.278 -0.6081 -0.2461 -0.1325
19902TIP3    H181197   6.639   3.939  11.334 -0.7447 -0.5290 -0.4378
19902TIP3    H281198   6.761   3.885  11.263 -1.1409 -0.3919 -1.2243
19903TIP3   OH281199   5.094   4.952   1.163 -0.0334  0.0564  0.2560
19903TIP3    H181200   5.184   4.982   1.171 -0.1645  0.9157 -1.1541
19903TIP3    H281201   5.102   4.857   1.149  0.9169  0.4771 -2.9255
19904TIP3   OH281202   4.894   1.362  12.824 -0.2064 -0.0071  0.2662
19904TIP3    H181203   4.878   1.385  12.732  0.9971 -0.5397 -0.0943
19904TIP3    H281204   4.870   1.441  12.873  1.1895  1.0616 -0.7070
19905TIP3   OH281205   6.771   1.715   3.596 -0.1104 -0.6956 -0.1835
19905TIP3    H181206   6.760   1.752   3.508 -1.5913  0.0710  0.2793
19905TIP3    H281207   6.708   1.643   3.599 -3.1160  1.7017  1.4522
19906TIP3   OH281208   4.000   1.312   4.154  0.0646 -0.0671  0.5213
19906TIP3    H181209   4.006   1.216   4.157  1.9996  0.0161  0.4913
19906TIP3    H281210   3.935   1.334   4.221  0.0773 -1.3711  0.9950
19907TIP3   OH281211   6.401   0.725   2.069  0.2484 -0.3184  0.3479
19907TIP3    H181212   6.351   0.799   2.033  2.9781  1.3318 -0.3454
19907TIP3    H281213   6.359   0.706   2.153 -2.3593 -0.0305 -0.7765
19908TIP3   OH281214   1.382   2.733  16.853 -0.2268 -0.0201 -0.0428
19908TIP3    H181215   1.340   2.791  16.789  0.7238  0.3305 -0.3703
19908TIP3    H281216   1.395   2.651  16.806 -0.2090 -0.0054 -0.0636
19909TIP3   OH281217   0.668   6.415  15.693  0.3028 -0.2014  0.2320
19909TIP3    H181218   0.597   6.446  15.636  0.0238  0.2810  0.8337
19909TIP3    H281219   0.705   6.494  15.730 -0.0372 -0.5389  1.3366
19910TIP3   OH281220   5.654   1.169  15.145  0.5063 -0.2006 -0.1639
19910TIP3    H181221   5.605   1.199  15.068 -1.1279  2.7642  1.8126
19910TIP3    H281222   5.597   1.105  15.187  0.3598 -0.0966 -0.2056
19911TIP3   OH281223   2.431   1.514  11.194  0.5565  0.4996 -0.0152
19911TIP3    H181224   2.448   1.449  11.262 -0.5027 -0.3204 -0.5115
19911TIP3    H281225   2.481   1.482  11.118 -1.2821 -0.7209 -0.7918
19912TIP3   OH281226   3.705   5.020   4.077 -0.7294 -0.2226 -0.3581
19912TIP3    H181227   3.621   4.987   4.109 -0.0432 -1.2371  0.4390
19912TIP3    H281228   3.691   5.034   3.983 -1.4937 -1.3551 -0.4319
19913TIP3   OH281229   4.446   4.585  10.880 -0.1585 -0.6043 -0.3300
19913TIP3    H181230   4.501   4.589  10.958  1.9239 -0.5875 -1.7150
19913TIP3    H281231   4.430   4.676  10.857  0.0564 -0.5969 -0.4568
19914TIP3   OH281232   5.020   1.785  13.851  0.2199 -0.5497 -0.1574
19914TIP3    H181233   5.035   1.828  13.935  1.9881  2.1466 -1.7160
19914TIP3    H281234   5.106   1.751  13.825 -0.9127 -4.4220  0.5299
19915TIP3   OH281235   3.367   3.164   3.550 -0.2318 -0.0968  0.4381
19915TIP3    H181236   3.323   3.111   3.617  3.1039 -2.8954  0.6740
19915TIP3    H281237   3.383   3.104   3.478 -0.8460  2.0391 -1.6333
19916TIP3   OH281238   0.150   6.583   3.932  0.8593 -0.0207 -0.3725
19916TIP3    H181239   0.151   6.653   3.866  2.3330  3.5277  3.0011
19916TIP3    H281240   0.243   6.563   3.945  0.4810 -2.1787 -0.7446
19917TIP3   OH281241   1.176   0.199  13.442 -0.6050 -0.6112  0.0763
19917TIP3    H181242   1.203   0.271  13.385 -1.4200 -0.4212 -0.0898
19917TIP3    H281243   1.257   0.166  13.480 -0.3637  1.6418  1.6639
19918TIP3   OH281244   2.509   5.883   5.268  0.0612  0.3180  0.8219
19918TIP3    H181245   2.414   5.870   5.260 -0.2345  0.3428  3.4032
19918TIP3    H281246   2.540   5.801   5.308  0.8993  0.8294  1.2334
19919TIP3   OH281247   1.388   4.289  12.435 -0.0642  0.0232  0.1475
19919TIP3    H181248   1.450   4.260  12.369  0.3870  0.1987  0.4948
19919TIP3    H281249   1.425   4.369  12.471 -0.0704 -0.3271  0.9436
19920TIP3   OH281250   5.590   5.965   4.684  0.2151 -0.3062  0.1935
19920TIP3    H181251   5.659   5.980   4.749  0.7793  1.5377 -0.7479
19920TIP3    H281252   5.637   5.935   4.606  0.0861  1.5500 -0.6480
19921TIP3   OH281253   0.806   3.085   0.097  0.4081 -0.3562  0.4882
19921TIP3    H181254   0.714   3.066   0.078 -0.1848  1.3598  1.4287
19921TIP3    H281255   0.830   3.151   0.033  1.4175 -1.7057 -0.5822
19922TIP3   OH281256   6.442   4.317  12.434  0.1229 -0.5918 -0.0197
19922TIP3    H181257   6.494   4.250  12.479  2.7588  1.9666  1.1339
19922TIP3    H281258   6.383   4.351  12.501  0.0746 -0.5688 -0.0744
19923TIP3   OH281259   3.338   3.621   4.052  0.5186  0.0515 -0.4585
19923TIP3    H181260   3.399   3.681   4.011 -2.3084  2.4894 -1.4843
19923TIP3    H281261   3.280   3.593   3.981 -0.6548 -0.6868  0.7283
19924TIP3   OH281262   3.071   6.569  15.527 -0.0984 -0.8951 -0.2566
19924TIP3    H181263   3.071   6.582  15.432  0.2330  0.1227 -0.1195
19924TIP3    H281264   3.060   6.656  15.564 -0.2913 -1.2879  0.6494
19925TIP3   OH281265   5.982   2.802  13.982 -0.3339 -0.6556  0.5415
19925TIP3    H181266   6.012   2.746  13.910  0.8297 -0.7673  1.0883
19925TIP3    H281267   6.009   2.890  13.957  1.0514 -0.8351  1.3106
19926TIP3   OH281268   5.553   3.005  13.985  0.0669 -0.3048 -0.0538
19926TIP3    H181269   5.538   3.007  13.891 -0.7889  0.6572  0.0868
19926TIP3    H281270   5.628   3.062  14.000  0.2980 -0.5775 -0.1599
19927TIP3   OH281271   3.073   5.340   3.206  0.1282 -0.1750 -0.1494
19927TIP3    H181272   3.022   5.375   3.133 -1.0852 -0.9411  0.3103
19927TIP3    H281273   3.164   5.345   3.176 -0.0336  2.5223 -0.4481
19928TIP3   OH281274   2.328   1.716  14.669 -0.6793 -0.2207 -0.0196
19928TIP3    H181275   2.303   1.716  14.576  1.0080  1.4760 -0.5503
19928TIP3    H281276   2.336   1.809  14.691  1.3383 -0.6200  1.1217
19929TIP3   OH281277   6.346   0.342  11.966  0.0379 -0.6029  0.6405
19929TIP3    H181278   6.320   0.285  12.038 -0.9223  0.8384  1.4788
19929TIP3    H281279   6.329   0.430  11.998  3.4219  0.3451  0.2081
19930TIP3   OH281280   5.285   4.730   0.170  0.1299  0.2026 -0.4479
19930TIP3    H181281   5.342   4.785   0.116  0.2590  0.7375  0.2218
19930TIP3    H281282   5.215   4.702   0.110  1.1302 -0.5531 -1.3045
19931TIP3   OH281283   3.317   2.428  15.685 -0.5100 -0.1330 -0.1154
19931TIP3    H181284   3.258   2.470  15.747 -0.2367  0.5355 -0.2906
19931TIP3    H281285   3.304   2.476  15.603  1.0860  0.8014  0.1354
19932TIP3   OH281286   0.440   1.996   5.157  0.3701  0.4698 -0.1690
19932TIP3    H181287   0.412   2.086   5.137 -0.3904  0.1989 -0.3547
19932TIP3    H281288   0.532   2.005   5.182  0.9490  1.0388 -2.2662
19933TIP3   OH281289   6.576   2.265   2.508  0.2980  0.0781 -0.4088
19933TIP3    H181290   6.507   2.247   2.444 -0.7576  1.6690  0.1965
19933TIP3    H281291   6.567   2.195   2.573 -2.4565  1.5134  0.9466
19934TIP3   OH281292   4.639   4.649   3.988  0.4103 -0.0295  0.5318
19934TIP3    H181293   4.556   4.656   4.036 -1.6232 -1.5076 -2.4293
19934TIP3    H281294   4.640   4.558   3.957  3.2757 -0.0825  0.5915
19935TIP3   OH281295   4.091   6.140   5.140 -0.1188  0.8196 -0.7229
19935TIP3    H181296   4.074   6.046   5.141 -0.9263  0.8301  2.8886
19935TIP3    H281297   4.186   6.148   5.139 -0.0227 -0.1106 -0.1745
19936TIP3   OH281298   4.127   2.256   0.976 -0.3037 -0.0974  0.5526
19936TIP3    H181299   4.078   2.302   1.044 -0.9578 -1.9561  1.4091
19936TIP3    H281300   4.215   2.246   1.011 -0.4278 -0.3502  0.7988
19937TIP3   OH281301   0.948   2.288   5.877 -0.5181 -0.0335  0.1172
19937TIP3    H181302   1.029   2.241   5.856  0.2612  1.4636 -0.3355
19937TIP3    H281303   0.955   2.307   5.971  2.5542  5.0818 -0.7617
19938TIP3   OH281304   6.620   0.351  15.719  0.0949  0.1857  0.1557
19938TIP3    H181305   6.565   0.284  15.678  1.0895 -1.0762  0.7807
19938TIP3    H281306   6.667   0.391  15.645 -0.0402 -0.2622 -0.1831
19939TIP3   OH281307   3.999   4.897  11.208 -0.0034  0.0125  0.0639
19939TIP3    H181308   3.933   4.964  11.222 -0.2506 -0.0704 -0.6697
19939TIP3    H281309   4.059   4.935  11.143 -0.7993 -0.9085 -1.2503
19940TIP3   OH281310   0.943   0.079   3.226 -0.3440  0.4126  0.0032
19940TIP3    H181311   0.880   0.009   3.208  0.4553 -0.7348  1.4352
19940TIP3    H281312   0.942   0.088   3.321  1.0675  0.9152 -0.0100
19941TIP3   OH281313   5.357   0.308   5.517 -0.1078  0.0295 -1.1184
19941TIP3    H181314   5.407   0.259   5.582 -1.4621 -0.5919 -0.4984
19941TIP3    H281315   5.411   0.307   5.439  0.4052 -1.5057 -0.7809
19942TIP3   OH281316   1.088   6.259   2.423 -0.4186  1.0748 -0.3188
19942TIP3    H181317   1.156   6.265   2.491  2.7291  0.1133 -3.1202
19942TIP3    H281318   1.058   6.168   2.428 -0.7917  1.2202  0.2457
19943TIP3   OH281319   0.468   1.108   1.380  0.5994  0.1422 -0.2877
19943TIP3    H181320   0.389   1.139   1.335  0.0342 -1.4798 -0.4523
19943TIP3    H281321   0.535   1.108   1.312  0.2027 -0.5212 -0.6900
19944TIP3   OH281322   3.509   0.004  13.593 -0.2556  0.0738 -0.0647
19944TIP3    H181323   3.440   0.027  13.531  1.4960  3.2026 -1.1165
19944TIP3    H281324   3.582  -0.024  13.537 -0.3298 -2.4350  0.9765
19945TIP3   OH281325   4.786   3.791  16.630  0.4939 -0.0591  0.4602
19945TIP3    H181326   4.739   3.874  16.640  1.5958  1.1486 -3.0265
19945TIP3    H281327   4.744   3.748  16.556  3.9639  0.5821 -2.1420
19946TIP3   OH281328   6.111   0.205  17.270 -0.1933  0.7436  0.1173
19946TIP3    H181329   6.044   0.272  17.280 -1.4294 -0.4544  0.2127
19946TIP3    H281330   6.078   0.131  17.322  1.7727  0.5060  1.1158
19947TIP3   OH281331   4.755   4.614  16.095 -0.6500  0.0707  0.3481
19947TIP3    H181332   4.700   4.641  16.168 -2.4712  0.1998 -0.9836
19947TIP3    H281333   4.749   4.518  16.093 -2.2168  0.1492 -0.7384
19948TIP3   OH281334   5.143   6.650   4.471 -0.5348  0.5589 -0.8216
19948TIP3    H181335   5.209   6.719   4.458  0.4622 -0.0377  0.8090
19948TIP3    H281336   5.076   6.691   4.526  1.0016 -0.2352  1.8015
19949TIP3   OH281337   4.624   1.151  12.489  0.8012 -0.0924  0.1008
19949TIP3    H181338   4.600   1.236  12.527  1.0920 -0.5840  1.4195
19949TIP3    H281339   4.556   1.135  12.424  0.3649  0.8474  0.3029
19950TIP3   OH281340   1.956   5.081  12.658  0.7150 -0.0121  0.1101
19950TIP3    H181341   2.049   5.068  12.678  0.5186 -0.3932  0.7794
19950TIP3    H281342   1.913   5.003  12.691  0.2116 -0.0734 -0.6625
19951TIP3   OH281343   5.716   0.073  16.638 -0.2005  0.4509  0.8025
19951TIP3    H181344   5.656   0.146  16.634  0.1838  0.8519  1.9089
19951TIP3    H281345   5.798   0.110  16.671  0.8745  0.0380 -1.1970
19952TIP3   OH281346   5.519   2.055  11.045  0.3424 -0.0085 -0.2660
19952TIP3    H181347   5.563   2.013  10.971  0.5541 -2.4535  1.1318
19952TIP3    H281348   5.551   2.145  11.044 -1.6078  0.9174 -4.6101
19953TIP3   OH281349   3.136   2.021  15.560 -0.1657 -0.1207  0.1464
19953TIP3    H181350   3.180   1.939  15.583 -2.7943 -1.1588  1.9411
19953TIP3    H281351   3.070   1.996  15.496 -0.8178  0.6270  0.5167
19954TIP3   OH281352   0.517   0.257   3.617 -0.4074  0.5197 -0.3041
19954TIP3    H181353   0.608   0.258   3.645  0.0164  2.3733 -1.5662
19954TIP3    H281354   0.509   0.179   3.562 -0.1969 -0.8509  1.5328
19955TIP3   OH281355   0.496   2.814  13.031 -0.4208 -0.3304 -0.6577
19955TIP3    H181356   0.497   2.795  12.938  0.4110 -1.3563 -0.4590
19955TIP3    H281357   0.580   2.782  13.063 -0.5538  0.3126  0.3884
19956TIP3   OH281358   4.315   1.681   2.178 -0.2039 -0.0933 -0.0450
19956TIP3    H181359   4.299   1.589   2.198  0.8169 -0.2421  0.1307
19956TIP3    H281360   4.351   1.681   2.090 -0.7543  0.2006 -0.2767
19957TIP3   OH281361   2.827   2.271   1.518  0.0648 -0.3472 -0.1367
19957TIP3    H181362   2.867   2.282   1.604 -1.3106  3.1539  0.2049
19957TIP3    H281363   2.738   2.240   1.537  0.6846 -2.5973 -0.5795
19958TIP3   OH281364   4.138   1.320  12.951 -0.1007  0.7249  0.1281
19958TIP3    H181365   4.097   1.283  13.030 -0.2993 -0.5828 -0.5628
19958TIP3    H281366   4.178   1.244  12.907  2.2572  1.7994  0.2768
19959TIP3   OH281367   3.796   1.731   5.420  1.0402  0.1153  0.0766
19959TIP3    H181368   3.714   1.686   5.398 -0.1823  2.9386 -1.6946
19959TIP3    H281369   3.782   1.764   5.509  0.4257  0.1777 -0.0373
19960TIP3   OH281370   6.190   4.670  11.828  0.6647  0.1747  0.2302
19960TIP3    H181371   6.257   4.618  11.783 -0.9864 -3.2148  1.3689
19960TIP3    H281372   6.230   4.693  11.912  0.9631 -0.4073  0.2511
19961TIP3   OH281373   1.070   1.508  15.587  0.3660  0.7649  0.2585
19961TIP3    H181374   1.048   1.537  15.499 -1.4700  1.1122  0.7857
19961TIP3    H281375   1.025   1.423  15.596 -0.7018  1.4168  1.3303
19962TIP3   OH281376   3.776   6.324   0.423 -0.0672  0.0242  0.1318
19962TIP3    H181377   3.840   6.391   0.405  1.9635 -2.2972 -1.9477
19962TIP3    H281378   3.696   6.353   0.378  1.3916  0.1159 -2.5825
19963TIP3   OH281379   1.591   0.408  15.019  0.0064  0.3511  0.6745
19963TIP3    H181380   1.605   0.334  14.960 -2.7708  0.0348  0.2597
19963TIP3    H281381   1.641   0.480  14.981  1.7061 -0.9284  0.3600
19964TIP3   OH281382   3.715   0.732  14.497  0.2342 -0.0971 -0.8256
19964TIP3    H181383   3.777   0.781  14.549 -0.4537 -0.2793  0.2033
19964TIP3    H281384   3.760   0.650  14.477  0.0879 -0.5415  0.5397
19965TIP3   OH281385   4.515   5.539   5.598  0.2300  0.7366 -0.1454
19965TIP3    H181386   4.587   5.523   5.538  0.2952  0.8390 -0.0947
19965TIP3    H281387   4.546   5.609   5.655  1.1429 -1.0319  1.6354
19966TIP3   OH281388   5.420   4.323   0.376  0.3286 -0.5768  0.0187
19966TIP3    H181389   5.458   4.408   0.356 -1.1684  0.2735  0.5781
19966TIP3    H281390   5.365   4.339   0.454  0.6276 -2.2289  0.6104
19967TIP3   OH281391   5.602   4.316  13.070 -0.0150 -0.8730  0.2443
19967TIP3    H181392   5.620   4.362  13.153  2.8699  1.5821 -1.5429
19967TIP3    H281393   5.636   4.228  13.084  1.0032 -0.3278  1.5027
19968TIP3   OH281394   4.156   4.505   0.924  0.0703 -0.4788 -0.0828
19968TIP3    H181395   4.156   4.556   1.004  1.0865 -0.6296  0.0330
19968TIP3    H281396   4.247   4.478   0.913 -0.0166 -0.3215 -1.3765
19969TIP3   OH281397   0.653   4.866  14.748 -0.2666  0.2811  0.3890
19969TIP3    H181398   0.566   4.904  14.742 -0.1278  0.5246 -0.1594
19969TIP3    H281399   0.694   4.910  14.822 -0.5068  0.3723  0.4674
19970TIP3   OH281400   4.305   3.018   2.966 -0.1710  0.1183  0.4458
19970TIP3    H181401   4.364   3.056   3.031 -0.0758  1.7671 -0.5382
19970TIP3    H281402   4.235   3.083   2.955 -0.4312 -0.3235 -0.7448
19971TIP3   OH281403   6.017   2.567  14.277 -0.4945 -0.1538  0.1387
19971TIP3    H181404   6.024   2.514  14.356 -1.6924  1.1945  1.2190
19971TIP3    H281405   5.995   2.505  14.208  1.1622 -1.4482  0.7034
19972TIP3   OH281406   6.007   1.337   0.608  0.3132  0.5024  0.2172
19972TIP3    H181407   6.088   1.387   0.598  0.3308  0.4344 -0.0002
19972TIP3    H281408   6.010   1.302   0.697  0.6431  0.2935  0.1272
19973TIP3   OH281409   2.158   5.153   4.818  0.2669  0.2905 -0.2469
19973TIP3    H181410   2.139   5.067   4.856  1.8657 -0.9914 -2.1730
19973TIP3    H281411   2.215   5.196   4.882 -1.3838  0.4187  1.2242
19974TIP3   OH281412   4.107   4.951  14.422  0.4784 -0.1332 -0.2713
19974TIP3    H181413   4.027   5.003  14.414 -0.2127 -0.5008  2.8966
19974TIP3    H281414   4.112   4.928  14.515  4.1972 -0.3023 -0.3449
19975TIP3   OH281415   6.187   2.380   3.778 -0.1141  0.0978  0.1046
19975TIP3    H181416   6.150   2.332   3.852 -0.1626  1.6533  1.1371
19975TIP3    H281417   6.155   2.469   3.789 -1.4002  0.0728 -2.6703
19976TIP3   OH281418   1.595   3.077   5.900 -0.4396  0.6019  0.7751
19976TIP3    H181419   1.690   3.068   5.908 -0.6308 -1.2787  1.3116
19976TIP3    H281420   1.583   3.156   5.847  1.4149  0.4910  0.1227
19977TIP3   OH281421   0.038   4.544   4.557  0.4407  0.1881 -0.2522
19977TIP3    H181422  -0.050   4.511   4.576 -0.4212  0.2969 -3.3806
19977TIP3    H281423   0.035   4.636   4.583 -0.7805  0.4734 -1.2904
19978TIP3   OH281424   3.834   2.772  12.024  0.0254  0.2374 -0.3753
19978TIP3    H181425   3.889   2.850  12.014  1.6382 -1.0484 -2.1199
19978TIP3    H281426   3.814   2.768  12.118  1.3003  1.8107 -0.0002
19979TIP3   OH281427   3.836   5.006   1.995 -0.6156 -0.2838  0.2688
19979TIP3    H181428   3.840   5.057   1.914 -2.4049  0.7642  0.8026
19979TIP3    H281429   3.781   4.930   1.973 -0.4793 -0.3979  0.3144
19980TIP3   OH281430   6.627   5.906   3.258 -0.0859 -0.5648  0.4430
19980TIP3    H181431   6.642   5.832   3.317 -1.2045 -0.0807  1.3887
19980TIP3    H281432   6.556   5.956   3.300  0.7985  1.1774 -0.0310
19981TIP3   OH281433   5.566   5.382   0.009 -0.5680  0.2769 -0.4810
19981TIP3    H181434   5.633   5.450   0.012 -1.0306  0.7023  0.7071
19981TIP3    H281435   5.612   5.302   0.035 -0.5057  0.5669  0.3302
19982TIP3   OH281436   3.184   6.281   1.975  0.5949  0.4366 -0.2969
19982TIP3    H181437   3.101   6.321   2.001  0.1134 -1.0656  0.5895
19982TIP3    H281438   3.186   6.290   1.879 -0.4295  0.7965 -0.2967
19983TIP3   OH281439   1.323   1.409  13.099  0.0004  0.3293  0.2489
19983TIP3    H181440   1.302   1.328  13.053 -0.0693  0.4172  0.1255
19983TIP3    H281441   1.388   1.452  13.043  0.7334 -0.0785  0.7723
19984TIP3   OH281442   2.690   2.227  12.707  0.4513  0.4447  0.0799
19984TIP3    H181443   2.737   2.163  12.760  1.5972 -0.2950 -1.7657
19984TIP3    H281444   2.599   2.197  12.710  0.4190  0.5767  1.7871
19985TIP3   OH281445   4.938   5.162   2.323 -0.2862  0.0422 -0.2590
19985TIP3    H181446   4.887   5.084   2.303 -0.2483  0.0526 -0.3976
19985TIP3    H281447   5.026   5.129   2.340 -0.0153  0.1528 -1.3708
19986TIP3   OH281448   0.867   3.709  13.434  0.1887  0.4835 -0.6277
19986TIP3    H181449   0.819   3.747  13.360 -1.4325 -2.1823 -1.0759
19986TIP3    H281450   0.933   3.653  13.393  2.3324  2.3792  0.0199
19987TIP3   OH281451   1.968   5.686   5.359  0.2551 -0.0860 -0.3545
19987TIP3    H181452   1.897   5.751   5.367 -0.1249 -0.5661  0.3149
19987TIP3    H281453   1.982   5.678   5.265 -0.4685  0.1519 -0.4947
19988TIP3   OH281454   4.890   5.145  15.944 -0.4173 -0.1449 -0.5210
19988TIP3    H181455   4.844   5.225  15.920  1.6855  1.3408  0.0939
19988TIP3    H281456   4.942   5.169  16.021 -0.1338 -2.2581  0.0128
19989TIP3   OH281457   4.845   1.604   5.514  0.0275 -0.6653  0.2923
19989TIP3    H181458   4.840   1.631   5.606  0.5573  0.7378 -0.0730
19989TIP3    H281459   4.936   1.577   5.503  0.1486 -0.1476  0.0039
19990TIP3   OH281460   2.985   1.546   5.264 -0.2536  0.5448  0.2540
19990TIP3    H181461   3.059   1.564   5.206  0.1410 -0.7830  0.3180
19990TIP3    H281462   2.908   1.577   5.215  0.0051 -1.0109 -1.2418
19991TIP3   OH281463   6.142   4.687   6.258  0.3924  0.4570  0.0174
19991TIP3    H181464   6.152   4.660   6.349 -0.2784  0.5065  0.1088
19991TIP3    H281465   6.064   4.743   6.258 -0.3209 -0.4935 -0.7894
19992TIP3   OH281466   4.186   4.075  14.039  0.5968 -0.3687 -0.0438
19992TIP3    H181467   4.265   4.044  14.081  1.7971  2.5937  0.1432
19992TIP3    H281468   4.189   4.037  13.951  2.8299  0.4992 -0.4026
19993TIP3   OH281469   5.355   2.955   3.445 -0.5276  0.2763  0.4123
19993TIP3    H181470   5.437   2.905   3.444 -0.9956 -0.5118  0.7447
19993TIP3    H281471   5.351   2.997   3.359 -1.4759 -2.4894 -0.9826
19994TIP3   OH281472   4.767   4.270  14.415  0.3633  0.3729 -0.0260
19994TIP3    H181473   4.715   4.345  14.386 -2.3235 -0.5085  2.1012
19994TIP3    H281474   4.771   4.213  14.338  0.3694  1.5724 -0.9573
19995TIP3   OH281475   3.540   5.515   3.195 -0.3810 -0.0582 -0.0518
19995TIP3    H181476   3.629   5.524   3.161 -0.3267 -1.0664 -0.2027
19995TIP3    H281477   3.552   5.488   3.286 -0.5328  1.3868  0.4127
19996TIP3   OH281478   0.068   2.123  17.083  0.1357 -0.3099  0.1454
19996TIP3    H181479   0.067   2.167  17.167 -3.3089  1.6446 -0.7266
19996TIP3    H281480   0.113   2.040  17.099  0.8564  0.6021  3.4860
19997TIP3   OH281481   4.595   4.890  11.244  0.2652  0.4904 -0.8897
19997TIP3    H181482   4.611   4.881  11.338 -1.5091  2.7447 -0.2776
19997TIP3    H281483   4.656   4.829  11.203  0.4085 -1.2833  1.7469
19998TIP3   OH281484   3.184   4.539   6.583 -0.3708 -0.1147  0.1079
19998TIP3    H181485   3.269   4.562   6.544 -1.2135  1.3539 -0.9713
19998TIP3    H281486   3.175   4.445   6.567  0.9770 -0.2816  0.1450
19999TIP3   OH281487   0.605   5.609  12.080 -0.7435 -0.5533  0.4615
19999TIP3    H181488   0.578   5.550  12.150 -1.6672 -0.2750  0.3518
19999TIP3    H281489   0.678   5.659  12.117 -3.3559  2.0533  2.5305
20000TIP3   OH281490   5.412   3.626   5.097  0.1423  0.4576  0.5897
20000TIP3    H181491   5.408   3.599   5.189 -1.0172  0.2651  0.4990
20000TIP3    H281492   5.397   3.721   5.099  0.1286  0.4551  0.5981
20001TIP3   OH281493   3.785   0.685  12.741  0.6302  0.5199  0.2054
20001TIP3    H181494   3.713   0.626  12.719  2.0460 -0.4515 -2.2105
20001TIP3    H281495   3.746   0.773  12.738 -0.6128 -0.0226 -0.2098
20002TIP3   OH281496   4.175   1.013  13.657  0.3399  0.2814  0.0818
20002TIP3    H181497   4.163   1.106  13.680  0.3746  0.3668 -0.2431
20002TIP3    H281498   4.201   1.014  13.565 -0.1949 -0.0777 -0.0793
20003TIP3   OH281499   4.244   2.376   0.770 -0.4178 -0.2474  0.3070
20003TIP3    H181500   4.172   2.409   0.716  0.0543  0.9907  0.3919
20003TIP3    H281501   4.202   2.338   0.846 -1.0484 -1.0919 -0.4427
20004TIP3   OH281502   2.841   3.436  13.385 -0.2207 -0.2309  0.2035
20004TIP3    H181503   2.910   3.370  13.375 -0.0890 -0.1083  0.3140
20004TIP3    H281504   2.861   3.502  13.319 -0.8403 -0.7199 -0.5000
20005TIP3   OH281505   4.851   0.083   4.077  0.0954 -0.0295 -0.3834
20005TIP3    H181506   4.783   0.083   4.144 -0.9299  0.7847 -1.3579
20005TIP3    H281507   4.804   0.060   3.996  1.4532 -1.8863 -0.7024
20006TIP3   OH281508   5.639   3.253  15.717  0.2611  0.1342 -0.2834
20006TIP3    H181509   5.655   3.230  15.626 -0.5235 -0.3979 -0.2970
20006TIP3    H281510   5.630   3.169  15.762 -3.0449  0.3000 -0.3934
20007TIP3   OH281511   5.569   6.615  11.022  0.8278  0.2392 -0.0834
20007TIP3    H181512   5.539   6.614  11.113  0.2224 -1.5815 -0.2442
20007TIP3    H281513   5.663   6.601  11.027  0.6730 -0.7908  0.2731
20008TIP3   OH281514   5.310   3.676  11.821 -0.0501  0.2676 -0.0562
20008TIP3    H181515   5.321   3.597  11.875 -3.2137  0.1210  0.5861
20008TIP3    H281516   5.275   3.644  11.738  0.7415  0.8389 -0.6197
20009TIP3   OH281517   3.089   5.013  12.488  0.3351  0.0244 -0.3908
20009TIP3    H181518   3.174   5.037  12.524 -0.2942  1.3460  0.3015
20009TIP3    H281519   3.051   5.096  12.459 -0.2542 -0.6878 -1.7517
20010TIP3   OH281520   6.521   1.692   6.006 -0.5163 -0.5927 -0.0290
20010TIP3    H181521   6.532   1.758   6.074  2.3085 -0.2865 -0.6718
20010TIP3    H281522   6.582   1.622   6.029 -0.2967 -0.9755 -1.6315
20011TIP3   OH281523   1.627   4.516  13.707  0.1774  0.1426 -0.4526
20011TIP3    H181524   1.610   4.438  13.760  1.6815 -0.7229 -1.1835
20011TIP3    H281525   1.554   4.575  13.726 -0.6011 -1.1486  0.6753
20012TIP3   OH281526   5.441   4.931  12.817 -0.5214  0.2574  0.2877
20012TIP3    H181527   5.488   4.966  12.742  2.1297 -1.2633  1.0896
20012TIP3    H281528   5.508   4.927  12.886 -1.9243 -1.7376  1.6172
20013TIP3   OH281529   3.416   4.097  11.782 -0.1771 -0.0104  0.6996
20013TIP3    H181530   3.359   4.140  11.846 -1.9074  0.1754 -0.8745
20013TIP3    H281531   3.389   4.005  11.784 -2.2769  0.4266 -1.6157
20014TIP3   OH281532   1.320   2.958   5.403  0.2402  0.2747 -0.6342
20014TIP3    H181533   1.345   2.961   5.311  2.7862 -1.4990 -0.1214
20014TIP3    H281534   1.309   2.865   5.422  1.1022  0.4963  1.1529
20015TIP3   OH281535   3.757   5.271  17.103 -0.0497  0.4234  0.6629
20015TIP3    H181536   3.765   5.202  17.169  2.1616  1.2447  1.3242
20015TIP3    H281537   3.784   5.229  17.021 -2.5043 -0.5121  0.2588
20016TIP3   OH281538   0.737   3.213   1.801 -0.1195 -0.2350  0.0316
20016TIP3    H181539   0.768   3.144   1.743  0.0027  1.1199 -1.6262
20016TIP3    H281540   0.784   3.291   1.772 -1.2845  0.8310  0.8834
20017TIP3   OH281541   0.917   1.523  12.680  0.2785 -0.2497  0.0460
20017TIP3    H181542   0.843   1.531  12.620  1.3687 -0.0023 -1.3106
20017TIP3    H281543   0.882   1.552  12.765 -1.1740 -0.1720 -0.5533
20018TIP3   OH281544   1.122   2.191  15.193 -0.3558  0.2605  0.4842
20018TIP3    H181545   1.087   2.123  15.135 -3.3246  1.2979  0.8734
20018TIP3    H281546   1.047   2.249  15.209  2.2188  4.2972 -0.7034
20019TIP3   OH281547   5.195   3.044   2.191 -0.0117 -0.2507  0.1437
20019TIP3    H181548   5.173   3.006   2.107 -0.7510  0.8262 -0.1763
20019TIP3    H281549   5.179   2.974   2.254  1.5786 -1.4177 -0.6703
20020TIP3   OH281550   2.522   0.288   0.112 -0.2650  0.0211 -0.1560
20020TIP3    H181551   2.488   0.205   0.080  1.3827 -0.8241  0.1804
20020TIP3    H281552   2.536   0.274   0.206 -0.4054  0.8326 -0.0047
20021TIP3   OH281553   3.003   1.650   3.124  0.4089  0.5522 -0.9022
20021TIP3    H181554   2.909   1.668   3.131 -0.2008 -2.2502 -0.6947
20021TIP3    H281555   3.014   1.565   3.166  3.1087  0.8925 -0.7732
20022TIP3   OH281556   2.570   6.597  11.159  0.3672  0.0622 -0.3963
20022TIP3    H181557   2.604   6.563  11.242 -2.4866 -1.1698  0.3936
20022TIP3    H281558   2.525   6.678  11.183  0.3477  0.2109 -0.9162
20023TIP3   OH281559   2.671   3.070  12.929 -0.1544 -0.3746 -0.2366
20023TIP3    H181560   2.725   3.001  12.967 -0.3699 -0.0538  0.6640
20023TIP3    H281561   2.615   3.024  12.866  1.0535 -0.7263 -1.0917
20024TIP3   OH281562   2.408   2.346   3.690  0.4148  0.1995 -0.2469
20024TIP3    H181563   2.479   2.390   3.643 -0.8591  0.5434 -1.9480
20024TIP3    H281564   2.328   2.383   3.652 -0.6851 -1.6821  0.1267
20025TIP3   OH281565   6.371   5.194  12.149  0.1824  0.4699  0.0615
20025TIP3    H181566   6.303   5.150  12.200 -0.9000 -0.3131 -1.9653
20025TIP3    H281567   6.408   5.125  12.093  2.0192  1.0869  0.4403
20026TIP3   OH281568   0.805   4.138   5.676  0.6718 -0.0967  0.0309
20026TIP3    H181569   0.792   4.188   5.595  0.8901  0.7124  0.4816
20026TIP3    H281570   0.717   4.108   5.700  0.6217 -0.4454 -0.5631
20027TIP3   OH281571   4.409   1.846   1.826 -0.0631 -0.4703 -0.1530
20027TIP3    H181572   4.344   1.786   1.790 -0.5604 -0.4837  0.7410
20027TIP3    H281573   4.378   1.933   1.803 -0.9529 -0.4252  1.1302
20028TIP3   OH281574   5.599   4.385   5.890  0.0177 -0.2275 -0.2284
20028TIP3    H181575   5.655   4.314   5.861 -0.7461 -0.9226 -0.0593
20028TIP3    H281576   5.658   4.448   5.932  1.0061  0.3080 -2.2936
20029TIP3   OH281577   0.451   6.661   3.755 -0.0303 -0.2964  0.0177
20029TIP3    H181578   0.434   6.591   3.692 -0.7116 -0.4684  0.3777
20029TIP3    H281579   0.454   6.616   3.840  0.4637 -0.0125  0.1581
20030TIP3   OH281580   6.158   1.240  14.211 -0.0705 -0.4279 -0.7112
20030TIP3    H181581   6.239   1.196  14.184 -0.5705 -0.6862 -1.8543
20030TIP3    H281582   6.187   1.317  14.258  0.8393 -1.2735  0.1532
20031TIP3   OH281583   3.596   6.394   1.267  0.1427  0.5367  0.2467
20031TIP3    H181584   3.555   6.318   1.309  1.4018 -0.6843 -0.6237
20031TIP3    H281585   3.531   6.425   1.204 -0.1825 -0.1989  0.2061
20032TIP3   OH281586   1.946   0.427  13.195  0.2098 -0.1295 -0.3479
20032TIP3    H181587   2.016   0.467  13.247 -1.1312  2.2883 -0.2416
20032TIP3    H281588   1.937   0.339  13.231  1.0900  0.5721  1.7499
20033TIP3   OH281589   1.318   3.912  16.905  0.5556 -0.2524 -0.2130
20033TIP3    H181590   1.262   3.841  16.875  0.5622 -0.4454  0.2284
20033TIP3    H281591   1.316   3.906  17.001  0.0039  0.7599 -0.1364
20034TIP3   OH281592   4.182   4.594   2.142 -0.0875 -0.6699  0.0907
20034TIP3    H181593   4.155   4.626   2.056 -2.1124 -0.9418  0.5570
20034TIP3    H281594   4.276   4.609   2.145 -0.0741 -0.0240 -1.8946
20035TIP3   OH281595   3.539   0.805  15.960  0.5716 -0.1092 -0.2056
20035TIP3    H181596   3.554   0.711  15.946 -2.6214 -0.9708  1.1707
20035TIP3    H281597   3.450   0.810  15.996  0.3050  3.5391 -0.9514
20036TIP3   OH281598   4.410   5.407  11.964 -0.1445 -0.0371 -0.9010
20036TIP3    H181599   4.501   5.433  11.952 -0.3255  1.0383 -0.1322
20036TIP3    H281600   4.412   5.311  11.964  1.1613 -0.0393  0.2744
20037TIP3   OH281601   4.458   4.850  15.470  0.7018 -0.5744 -0.0482
20037TIP3    H181602   4.404   4.929  15.469  0.2654 -0.7355  2.7957
20037TIP3    H281603   4.547   4.882  15.482  0.5420 -0.4915  0.9592
20038TIP3   OH281604   5.489   6.572   4.289  0.1553  0.0264  0.1618
20038TIP3    H181605   5.467   6.584   4.382  0.2795  0.1217  0.1787
20038TIP3    H281606   5.432   6.499   4.261  0.4861 -0.3463  0.4440
20039TIP3   OH281607   5.895   4.295  14.092 -0.3591  0.3612  0.1908
20039TIP3    H181608   5.879   4.234  14.020 -0.8892 -1.5136  1.8090
20039TIP3    H281609   5.976   4.340  14.069 -0.9764  0.4693 -1.9601
20040TIP3   OH281610   3.110   2.106   3.344 -0.0478 -0.2482  0.2451
20040TIP3    H181611   3.135   2.017   3.370 -0.1462  0.5860  3.6164
20040TIP3    H281612   3.015   2.107   3.347 -0.0534 -0.0327  0.0938
20041TIP3   OH281613   6.309   5.993  13.637  0.8556  0.4676 -0.2781
20041TIP3    H181614   6.231   5.984  13.582  1.9555  0.8123 -1.9925
20041TIP3    H281615   6.278   6.032  13.718 -0.9557 -0.6946 -0.3695
20042TIP3   OH281616   6.218   4.922   2.376  0.1912 -0.2291 -0.6988
20042TIP3    H181617   6.230   4.831   2.402 -0.1747 -0.2943 -0.7513
20042TIP3    H281618   6.123   4.934   2.373  0.1936  0.7210  1.2874
20043TIP3   OH281619   1.790   5.321   5.895 -0.2856  0.0429 -0.0143
20043TIP3    H181620   1.802   5.229   5.871 -2.0276 -0.2254  0.0039
20043TIP3    H281621   1.876   5.361   5.880  0.2783 -1.3904 -0.8498
20044TIP3   OH281622   0.218   2.391   6.098 -0.3610 -0.1816  0.9476
20044TIP3    H181623   0.260   2.459   6.046 -0.4588  0.2533  1.4252
20044TIP3    H281624   0.165   2.341   6.035  0.4681 -0.4304  0.4291
20045TIP3   OH281625   4.586   3.794  17.087 -0.0519  0.1779  0.1294
20045TIP3    H181626   4.661   3.751  17.047  0.7954  0.6190  1.1807
20045TIP3    H281627   4.555   3.732  17.153  1.2692  1.1484  1.7572
20046TIP3   OH281628   4.569   0.699  13.112 -0.4275  0.2292  0.4685
20046TIP3    H181629   4.631   0.768  13.087  0.2329  0.4429  2.4575
20046TIP3    H281630   4.558   0.711  13.207 -0.8838 -1.9292  0.7337
20047TIP3   OH281631   4.347   0.619  10.564  0.2686 -0.2205 -0.2450
20047TIP3    H181632   4.302   0.538  10.540  2.3156 -1.6395  0.5039
20047TIP3    H281633   4.439   0.603  10.544  0.6494  2.2696 -0.8900
20048TIP3   OH281634   0.875   6.257  17.388  0.5449  0.3859  0.0301
20048TIP3    H181635   0.841   6.340  17.422  0.3876 -0.6225  2.5824
20048TIP3    H281636   0.965   6.254  17.420  0.4151 -0.5996  0.3174
20049TIP3   OH281637   2.861   5.965   1.829  0.3943 -0.0507  0.1199
20049TIP3    H181638   2.823   5.993   1.913 -0.9478  0.6348 -0.6747
20049TIP3    H281639   2.866   5.870   1.835  3.8496  0.1235  2.3958
20050TIP3   OH281640   4.345   0.035   0.979  0.1932  0.1956 -0.2630
20050TIP3    H181641   4.298  -0.009   1.049 -1.0524 -1.0060 -1.7736
20050TIP3    H281642   4.423  -0.019   0.964 -0.3214 -0.4123 -0.7940
20051TIP3   OH281643   3.732   0.976  15.795  0.1324 -0.1569  0.3520
20051TIP3    H181644   3.811   1.029  15.808  0.0587 -0.2803  1.3812
20051TIP3    H281645   3.672   1.005  15.863 -0.5572 -0.3595 -0.1621
20052TIP3   OH281646   5.745   1.131   4.354  0.1477 -0.0887 -0.1596
20052TIP3    H181647   5.702   1.209   4.318  1.3541  0.9789  0.6194
20052TIP3    H281648   5.799   1.165   4.426  0.8894 -1.6195  0.0360
20053TIP3   OH281649   4.020   5.879  13.806 -0.0002 -0.1311 -0.3295
20053TIP3    H181650   4.052   5.874  13.716  1.3653 -2.2430  0.2145
20053TIP3    H281651   4.095   5.907  13.857 -0.3678 -0.3166  0.3272
20054TIP3   OH281652   1.227   4.416  12.914  0.2075 -0.1012  0.0220
20054TIP3    H181653   1.282   4.346  12.950 -0.3870  0.9079  3.1689
20054TIP3    H281654   1.157   4.426  12.978 -0.8983  1.9701 -1.4315
20055TIP3   OH281655   4.760   3.530  14.689 -0.6004 -0.3460  0.3476
20055TIP3    H181656   4.693   3.595  14.667  0.4366  0.2323 -1.2731
20055TIP3    H281657   4.834   3.583  14.721 -0.0374 -0.7702 -0.2300
20056TIP3   OH281658   6.216   5.317  11.430  0.2837 -0.0459 -0.5010
20056TIP3    H181659   6.299   5.363  11.416 -0.7483  1.5073 -1.9653
20056TIP3    H281660   6.235   5.252  11.498  1.9148  2.4258  1.5800
20057TIP3   OH281661   1.420   2.954  10.651 -0.2874  0.0828 -0.0355
20057TIP3    H181662   1.462   2.953  10.737 -0.2021 -1.2336 -0.0779
20057TIP3    H281663   1.327   2.945  10.669 -0.1642 -1.7098 -0.1039
20058TIP3   OH281664   6.110   3.758  16.475  0.1424 -0.4180 -0.2288
20058TIP3    H181665   6.128   3.828  16.412  1.4019  1.5912  2.1979
20058TIP3    H281666   6.029   3.785  16.518  0.8567 -0.2062  1.0133
20059TIP3   OH281667   2.894   6.491  14.830  0.8578  0.2891 -0.2233
20059TIP3    H181668   2.824   6.456  14.886 -0.1379 -0.1139 -1.6496
20059TIP3    H281669   2.966   6.429  14.841  0.4766 -0.1006  0.1834
20060TIP3   OH281670   2.665   5.933   4.333  0.3042  0.3127  0.4708
20060TIP3    H181671   2.721   5.866   4.293  0.1649 -1.4934  3.0483
20060TIP3    H281672   2.580   5.919   4.292  0.0706 -1.7529  1.4798
20061TIP3   OH281673   2.819   6.559  16.217  0.2999 -0.0721  0.2964
20061TIP3    H181674   2.894   6.604  16.256  1.1186 -1.5207  0.4689
20061TIP3    H281675   2.854   6.516  16.139 -0.0522 -1.7641  1.0378
20062TIP3   OH281676   0.559   3.345  10.407  0.1064  0.1635 -0.2148
20062TIP3    H181677   0.622   3.405  10.448 -1.0225  0.9468  0.3956
20062TIP3    H281678   0.615   3.279  10.365  1.4502  2.2565 -1.9573
20063TIP3   OH281679   1.554   3.114   5.119  0.0463  0.0038  0.1136
20063TIP3    H181680   1.543   3.146   5.029  1.0817  0.9087  0.2777
20063TIP3    H281681   1.468   3.127   5.160 -0.1746  0.4957 -0.4794
20064TIP3   OH281682   6.371   4.960  12.567  0.3012 -1.1841  0.4288
20064TIP3    H181683   6.378   4.893  12.499  0.2148 -2.2525  1.4424
20064TIP3    H281684   6.448   4.944  12.623 -0.8941 -1.8968  1.9322
20065TIP3   OH281685   6.430   0.424   2.093  0.2080 -0.6503  0.5941
20065TIP3    H181686   6.427   0.518   2.073  1.2695 -0.1311  2.6612
20065TIP3    H281687   6.339   0.401   2.112 -0.0125  0.0394  0.4082
20066TIP3   OH281688   2.975   0.040  13.755 -0.1486  0.0889 -0.1444
20066TIP3    H181689   3.045   0.095  13.790 -0.3200  0.4596 -0.3770
20066TIP3    H281690   2.984   0.046  13.660  0.8497 -1.6074 -0.1787
20067TIP3   OH281691   0.959   1.814   1.822  0.5003 -0.3583 -0.2529
20067TIP3    H181692   0.893   1.779   1.763  0.2819  1.1952 -0.9766
20067TIP3    H281693   0.991   1.893   1.779  3.8669 -1.7526 -0.6139
20068TIP3   OH281694   4.376   1.256  12.655 -0.1681  0.3530  0.9762
20068TIP3    H181695   4.459   1.294  12.624 -0.4731  1.4127  1.4502
20068TIP3    H281696   4.311   1.325  12.642 -0.5051  0.4787  3.0273
20069TIP3   OH281697   0.896   4.092   5.908 -0.5726 -0.5367  0.5635
20069TIP3    H181698   0.896   4.187   5.920  1.2108 -0.6856  2.1538
20069TIP3    H281699   0.874   4.080   5.815  0.0359  1.4542  0.1039
20070TIP3   OH281700   3.593   1.170   0.628  0.1242 -0.2903 -0.4168
20070TIP3    H181701   3.587   1.252   0.578 -1.2813  0.2605  0.6084
20070TIP3    H281702   3.544   1.107   0.576 -1.0220  0.1906  0.0508
20071TIP3   OH281703   5.331   4.688   3.172 -0.0864 -0.1456 -0.4794
20071TIP3    H181704   5.348   4.607   3.220  1.6365 -0.1678 -1.0780
20071TIP3    H281705   5.415   4.711   3.133 -0.9132  1.1073 -1.5917
20072TIP3   OH281706   4.374   3.354  10.892 -0.6259  0.0261  0.3751
20072TIP3    H181707   4.433   3.344  10.966  0.1637 -0.6170 -0.3198
20072TIP3    H281708   4.423   3.407  10.829 -0.7538 -0.5515 -0.2307
20073TIP3   OH281709   5.738   5.034   2.843  0.2459  0.3336 -0.3884
20073TIP3    H181710   5.816   5.022   2.898 -0.0574  1.4965  0.3270
20073TIP3    H281711   5.707   5.122   2.865 -1.0735  0.0187 -0.9232
20074TIP3   OH281712   2.856   0.627   0.929 -0.0523  0.5983 -0.2609
20074TIP3    H181713   2.792   0.562   0.957 -2.3378  2.4838 -0.7500
20074TIP3    H281714   2.881   0.673   1.009 -0.9801  1.2177 -0.3060
20075TIP3   OH281715   1.963   3.178   5.213 -1.4989  0.4747  0.0720
20075TIP3    H181716   1.984   3.186   5.306 -1.0944 -0.8530  0.1133
20075TIP3    H281717   1.897   3.108   5.209 -1.3503  0.3690 -0.6637
20076TIP3   OH281718   5.772   2.947   4.344 -0.3283  0.4699  0.4173
20076TIP3    H181719   5.676   2.945   4.334 -0.3752  0.9827  0.7466
20076TIP3    H281720   5.795   2.857   4.368 -0.7730  0.4504  0.7838
20077TIP3   OH281721   6.051   0.855   5.839 -0.3817  0.0334 -0.5003
20077TIP3    H181722   6.107   0.883   5.767  1.5506 -0.7350  0.6197
20077TIP3    H281723   6.061   0.924   5.905 -1.3522  0.2415 -0.5603
20078TIP3   OH281724   6.125   1.984   4.442  0.1838 -0.0870  0.0010
20078TIP3    H181725   6.193   2.034   4.487 -0.0404  0.9477 -0.7664
20078TIP3    H281726   6.152   1.893   4.450  1.5203  0.2908 -0.0630
20079TIP3   OH281727   4.095   5.535  11.461  0.0222  0.3829  0.0835
20079TIP3    H181728   4.031   5.563  11.527 -0.9070 -0.1067 -0.5771
20079TIP3    H281729   4.088   5.439  11.461  0.1512  0.3712 -0.5848
20080TIP3   OH281730   4.388   6.330   4.799 -0.2162 -0.0975 -0.0764
20080TIP3    H181731   4.462   6.276   4.772  0.2368 -0.3234  1.5054
20080TIP3    H281732   4.376   6.309   4.892 -1.6180  0.6941 -0.0507
20081TIP3   OH281733   3.442   1.414  14.683 -0.1352  0.4189 -0.6599
20081TIP3    H181734   3.468   1.492  14.635 -2.1649  0.2544 -2.1663
20081TIP3    H281735   3.346   1.414  14.679 -0.2592 -1.2462  0.8039
20082TIP3   OH281736   5.922   4.206  14.791  0.4654 -0.5277 -0.0035
20082TIP3    H181737   6.003   4.240  14.754 -0.1700  0.2525 -0.7480
20082TIP3    H281738   5.858   4.214  14.719 -0.6140  0.2846  1.0118
20083TIP3   OH281739   0.129   3.129   4.411  0.7526  0.4592 -0.0300
20083TIP3    H181740   0.118   3.222   4.391 -0.5966  0.2334 -0.3972
20083TIP3    H281741   0.213   3.106   4.371  0.6729  1.3148 -0.7169
20084TIP3   OH281742   1.231   3.263  15.246 -0.1915 -0.2125 -0.2708
20084TIP3    H181743   1.249   3.273  15.153 -0.4945 -1.0155 -0.4210
20084TIP3    H281744   1.313   3.232  15.283 -0.2606 -0.5232 -0.3777
20085TIP3   OH281745   4.328   6.120   2.156  0.2390  0.4585  0.5967
20085TIP3    H181746   4.374   6.195   2.121  0.5474  0.0442  0.0969
20085TIP3    H281747   4.241   6.123   2.115  0.9207 -0.5805 -1.0372
20086TIP3   OH281748   5.274   5.514  14.185  0.0255 -0.1209  0.4374
20086TIP3    H181749   5.294   5.586  14.125  1.0365  1.2329  2.3167
20086TIP3    H281750   5.187   5.534  14.219  0.7271  0.7954  1.7325
20087TIP3   OH281751   4.151   2.131   0.650 -0.1838 -0.2306 -0.6280
20087TIP3    H181752   4.170   2.163   0.562 -1.0719  0.3695 -0.6101
20087TIP3    H281753   4.215   2.174   0.706  1.3750 -1.7563 -1.1506
20088TIP3   OH281754   0.794   0.948  15.925  0.3272 -0.1339  0.0957
20088TIP3    H181755   0.801   0.865  15.879  1.1727 -1.6711  2.7548
20088TIP3    H281756   0.700   0.961  15.937  0.1839 -0.6685 -0.4085
20089TIP3   OH281757   4.010   6.365   1.930 -0.0475 -0.5922 -0.4151
20089TIP3    H181758   4.057   6.398   2.007  1.1958  0.2060 -1.4664
20089TIP3    H281759   4.055   6.405   1.855 -1.2612 -1.2814 -1.5698
20090TIP3   OH281760   1.167   0.138   4.218  0.2771 -0.1508  0.1822
20090TIP3    H181761   1.117   0.205   4.172 -1.8824 -2.2805 -0.7727
20090TIP3    H281762   1.109   0.106   4.286  1.4214 -0.8028  0.8945
20091TIP3   OH281763   3.450   0.963  14.703  0.3928 -0.6193 -0.3170
20091TIP3    H181764   3.496   1.047  14.707 -1.2442  0.3026 -0.1973
20091TIP3    H281765   3.475   0.918  14.783 -2.7805  2.0058  2.4195
20092TIP3   OH281766   2.112   4.786   6.608 -0.5133  0.1150 -0.1055
20092TIP3    H181767   2.032   4.809   6.561 -0.1424  1.3430 -0.1792
20092TIP3    H281768   2.087   4.786   6.700 -0.8925 -0.7887 -0.2066
20093TIP3   OH281769   6.562   0.419   5.223 -0.3185  0.1687  0.5714
20093TIP3    H181770   6.544   0.337   5.269 -0.7419  0.9364  1.8146
20093TIP3    H281771   6.656   0.420   5.211 -0.4437 -1.1944 -0.8195
20094TIP3   OH281772   5.695   1.590  16.408  0.0564 -0.8834 -0.4048
20094TIP3    H181773   5.739   1.636  16.480  1.5371 -1.0180 -1.2006
20094TIP3    H281774   5.616   1.553  16.448  0.3052 -0.0529  0.9005
20095TIP3   OH281775   1.389   0.120  16.947  0.2305  0.5072 -0.5557
20095TIP3    H181776   1.407   0.028  16.967 -1.5617  0.1313 -0.5227
20095TIP3    H281777   1.408   0.129  16.854  0.7939  0.2162 -0.4738
20096TIP3   OH281778   5.519   4.548   0.727  0.6489 -0.6662  0.3904
20096TIP3    H181779   5.567   4.494   0.664  2.0948 -0.4142  1.2349
20096TIP3    H281780   5.528   4.501   0.810 -0.1536 -0.3505  0.6633
20097TIP3   OH281781   2.401   4.604  12.497 -0.2400 -0.1959 -0.5045
20097TIP3    H181782   2.454   4.681  12.520  1.0400 -0.6478 -1.7483
20097TIP3    H281783   2.325   4.608  12.555 -0.1491  1.9396 -0.4644
20098TIP3   OH281784   1.223   1.302   2.602 -0.0513 -0.1787  0.1790
20098TIP3    H181785   1.239   1.291   2.509  0.8335 -2.0241  0.5065
20098TIP3    H281786   1.255   1.390   2.622 -2.1033  1.0713 -1.5873
20099TIP3   OH281787   0.358   5.827  14.490 -0.5318 -0.1600 -0.4708
20099TIP3    H181788   0.451   5.821  14.509 -0.1848  0.1771 -1.9589
20099TIP3    H281789   0.315   5.799  14.571  0.8514 -1.4319 -0.1441
20100TIP3   OH281790   5.131   2.348   1.790 -0.5844  0.4949 -0.1774
20100TIP3    H181791   5.207   2.315   1.741  0.8792 -0.2167  2.3362
20100TIP3    H281792   5.064   2.280   1.779 -0.0971  0.0961 -0.7494
20101TIP3   OH281793   2.333   3.226  16.091  0.6986 -0.0751 -0.3946
20101TIP3    H181794   2.282   3.159  16.137  1.6293  0.1852  1.0679
20101TIP3    H281795   2.274   3.258  16.022 -0.1426 -1.6208 -0.4271
20102TIP3   OH281796   4.481   1.931   2.845 -0.3726 -0.0437 -0.3613
20102TIP3    H181797   4.560   1.956   2.893  0.2128 -0.5506 -1.0218
20102TIP3    H281798   4.432   1.876   2.906  0.1272 -0.2849 -0.1677
20103TIP3   OH281799   1.435   0.612   4.545  0.0871  0.7688 -0.0683
20103TIP3    H181800   1.372   0.628   4.616 -1.2001 -1.2327 -0.6801
20103TIP3    H281801   1.413   0.679   4.480 -0.4489  0.9997  0.3374
20104TIP3   OH281802   3.601   3.624   0.130 -0.3072 -0.2844 -0.4377
20104TIP3    H181803   3.643   3.707   0.106 -0.8746 -0.1514 -1.0126
20104TIP3    H281804   3.576   3.636   0.222 -2.5366  1.1474 -1.1455
20105TIP3   OH281805   5.296   3.824   4.574  0.4970  0.2766 -0.2077
20105TIP3    H181806   5.312   3.730   4.568  1.0879  0.1966  1.8765
20105TIP3    H281807   5.332   3.849   4.659  3.2346  2.9551 -1.9398
20106TIP3   OH281808   1.152   5.833  14.934  0.4075 -0.1419 -0.2588
20106TIP3    H181809   1.106   5.841  15.018  0.4265 -0.4321 -0.2197
20106TIP3    H281810   1.087   5.795  14.875  0.5965 -0.5594 -0.2005
20107TIP3   OH281811   2.682   1.933  16.896  0.3641 -0.4110  0.0102
20107TIP3    H181812   2.612   1.999  16.897  0.8360  0.3187 -3.2077
20107TIP3    H281813   2.636   1.850  16.908 -0.6144  0.2645  1.2381
20108TIP3   OH281814   3.305   2.130  13.105 -0.3960  0.0251  0.2270
20108TIP3    H181815   3.245   2.160  13.173 -0.0797 -0.2451  0.6312
20108TIP3    H281816   3.254   2.136  13.024 -1.1996 -0.8252  0.6427
20109TIP3   OH281817   2.111   3.617  16.595  0.0203 -0.6057  0.1411
20109TIP3    H181818   2.079   3.694  16.548  2.8692  0.4501 -0.2556
20109TIP3    H281819   2.141   3.558  16.526  0.3651 -0.8713  0.5148
20110TIP3   OH281820   3.743   2.869   3.558 -0.2329 -0.4467  0.6751
20110TIP3    H181821   3.805   2.843   3.489  1.2368 -0.7930  2.0669
20110TIP3    H281822   3.785   2.945   3.599 -2.4700  1.6409 -0.6094
20111TIP3   OH281823   6.140   5.533   0.641  0.1074  0.4569  0.1191
20111TIP3    H181824   6.081   5.503   0.572 -0.5069  1.3939  0.2152
20111TIP3    H281825   6.154   5.626   0.623  1.5819  0.2590  0.0916
20112TIP3   OH281826   5.224   0.477   3.419 -0.1511 -0.1451  0.5333
20112TIP3    H181827   5.207   0.495   3.512  2.0680  0.4936  0.8741
20112TIP3    H281828   5.251   0.562   3.383 -0.8374 -0.4205 -0.6880
20113TIP3   OH281829   0.193   4.444   4.774 -0.1783 -0.2758  0.2351
20113TIP3    H181830   0.129   4.481   4.714  1.7173 -0.9735 -2.3980
20113TIP3    H281831   0.250   4.518   4.797  0.2225 -0.3716 -0.4179
20114TIP3   OH281832   0.173   2.503  12.317  0.5603 -0.3595 -0.2259
20114TIP3    H181833   0.210   2.422  12.353  1.0940  1.0259  2.6047
20114TIP3    H281834   0.249   2.558  12.300  0.1095  0.2796 -0.1761
20115TIP3   OH281835   1.678   1.576   5.491 -0.0251 -0.0300  0.5432
20115TIP3    H181836   1.699   1.654   5.542 -0.1440 -1.4181  2.8311
20115TIP3    H281837   1.756   1.521   5.498 -0.4064 -0.6567 -0.0053
20116TIP3   OH281838   0.886   1.938  13.942  0.1521  0.0310 -0.1988
20116TIP3    H181839   0.854   2.019  13.982  0.9125  0.3624 -0.2546
20116TIP3    H281840   0.909   1.963  13.853  1.5656  0.0611  0.1458
20117TIP3   OH281841   3.895   3.076  11.616 -0.7004 -0.3398  0.1144
20117TIP3    H181842   3.855   3.147  11.565 -2.4251 -0.2830  1.4505
20117TIP3    H281843   3.848   2.997  11.589 -0.2972 -0.6248  0.2287
20118TIP3   OH281844   1.233   5.672  13.475  0.3680  0.8517  0.3214
20118TIP3    H181845   1.154   5.724  13.486  0.2734  0.7768  0.0068
20118TIP3    H281846   1.270   5.665  13.563 -0.4821  0.0720  0.6289
20119TIP3   OH281847   6.620   4.231  11.259  0.3477 -0.2794  0.9171
20119TIP3    H181848   6.680   4.305  11.249 -0.4586  0.5727  2.1335
20119TIP3    H281849   6.673   4.162  11.297  1.2809 -0.6045 -0.8525
20120TIP3   OH281850   1.835   5.664  10.691 -0.7555 -0.1391 -0.4542
20120TIP3    H181851   1.908   5.726  10.697 -1.2855  0.4424  0.0561
20120TIP3    H281852   1.757   5.718  10.701 -1.2006 -1.1078  2.3835
20121TIP3   OH281853   4.066   1.062  12.387  0.5336 -0.0696 -0.2050
20121TIP3    H181854   4.150   1.094  12.420  1.1595 -0.3725 -1.4697
20121TIP3    H281855   4.009   1.140  12.388  0.4979 -0.0751  1.5984
20122TIP3   OH281856   0.445   0.732  12.501 -0.4079  0.0952 -0.6643
20122TIP3    H181857   0.367   0.692  12.464 -1.1693 -0.4319  1.3816
20122TIP3    H281858   0.426   0.826  12.499 -2.0657 -0.0923  1.6371
20123TIP3   OH281859   4.959   1.144   1.303 -0.4943 -0.2452 -0.1693
20123TIP3    H181860   4.906   1.142   1.223 -2.9611  0.3970  1.3380
20123TIP3    H281861   5.027   1.208   1.285 -2.1172  1.2852 -1.1548
20124TIP3   OH281862   6.340   3.845   1.138  0.3138  0.3351 -0.1643
20124TIP3    H181863   6.322   3.765   1.187  2.7770 -0.7136 -0.8130
20124TIP3    H281864   6.280   3.842   1.064 -0.9058  0.0871  0.7929
20125TIP3   OH281865   5.040   0.889  13.582  0.5477  0.3512 -0.3520
20125TIP3    H181866   5.051   0.944  13.659 -0.4433  1.6685 -1.1153
20125TIP3    H281867   4.998   0.946  13.517 -0.2598 -1.2091 -1.2689
20126TIP3   OH281868   5.406   1.103  11.076  0.5204  0.6938  0.0874
20126TIP3    H181869   5.420   1.101  10.981  2.5545  1.7633  0.3016
20126TIP3    H281870   5.459   1.031  11.110  1.1858  1.3549  0.5081
20127TIP3   OH281871   4.644   3.412   2.491  0.1514 -0.1186  0.2478
20127TIP3    H181872   4.550   3.398   2.483 -0.0206  0.8586  0.4648
20127TIP3    H281873   4.683   3.355   2.424 -0.6332  0.0897 -0.3949
20128TIP3   OH281874   3.264   1.189  16.511  0.4138 -0.4494  0.3768
20128TIP3    H181875   3.334   1.155  16.454  0.3720 -0.9561  0.6256
20128TIP3    H281876   3.191   1.129  16.498  0.0536  0.0132  0.2074
20129TIP3   OH281877   6.703   2.856   6.525 -0.3038 -0.1052 -0.2190
20129TIP3    H181878   6.694   2.787   6.591 -3.6622 -1.8016 -2.1372
20129TIP3    H281879   6.740   2.811   6.449 -0.0447  0.8639 -0.6748
20130TIP3   OH281880   2.337   5.376   0.045  0.1926  0.0967  0.1645
20130TIP3    H181881   2.431   5.377   0.027 -0.0788  2.1472 -1.5611
20130TIP3    H281882   2.318   5.285   0.068  1.9991 -1.2805 -3.0937
20131TIP3   OH281883   3.758   0.357   1.246 -0.9203  0.1249  0.2775
20131TIP3    H181884   3.803   0.283   1.288 -1.7950 -0.6702 -0.1387
20131TIP3    H281885   3.732   0.323   1.160  1.0494  1.7795 -1.0750
20132TIP3   OH281886   4.973   2.485   6.557 -0.2390  0.2485 -0.0574
20132TIP3    H181887   4.990   2.530   6.639  0.7091 -1.1865  0.5872
20132TIP3    H281888   4.894   2.433   6.573 -0.4797  0.5373 -0.3021
20133TIP3   OH281889   1.869   5.727  15.415  0.7039 -0.3337 -0.4132
20133TIP3    H181890   1.773   5.720  15.419  0.3210  3.2851  1.1421
20133TIP3    H281891   1.895   5.743  15.506  2.3910  1.6532 -1.1753
20134TIP3   OH281892   4.797   3.003   1.010  0.0703  0.0626 -0.6844
20134TIP3    H181893   4.755   3.088   1.026 -0.3737 -0.4022  0.8413
20134TIP3    H281894   4.726   2.946   0.980  0.3368  0.1916 -1.5622
20135TIP3   OH281895   0.552   2.615  15.402  0.0727 -0.0204  0.0306
20135TIP3    H181896   0.583   2.585  15.317 -0.1514 -2.4641  0.7322
20135TIP3    H281897   0.583   2.549  15.464 -0.8148  1.0226  1.6812
20136TIP3   OH281898   0.382   4.394   1.270  0.1226 -0.1637  0.4655
20136TIP3    H181899   0.369   4.305   1.300  1.3532  0.0541  1.7338
20136TIP3    H281900   0.383   4.447   1.349 -0.6010  0.9860 -0.2661
20137TIP3   OH281901   2.320   1.122   0.148 -0.3679  0.3766 -0.2218
20137TIP3    H181902   2.412   1.110   0.173 -0.0438 -0.7383 -1.7771
20137TIP3    H281903   2.285   1.034   0.141 -2.8388  0.6947  4.3047
20138TIP3   OH281904   4.532   0.817  11.693 -0.1224 -0.5403 -0.3395
20138TIP3    H181905   4.610   0.857  11.656 -0.5186 -1.2835 -2.0775
20138TIP3    H281906   4.539   0.724  11.671 -0.6391 -0.9456  1.0583
20139TIP3   OH281907   4.916   6.760   2.641 -0.4795 -0.1832 -0.1443
20139TIP3    H181908   4.988   6.727   2.588 -0.5002 -1.2623  0.4849
20139TIP3    H281909   4.845   6.777   2.578 -1.5040 -4.0349 -0.2923
20140TIP3   OH281910   1.463   5.459   1.832  0.7221  0.0138 -0.1968
20140TIP3    H181911   1.477   5.529   1.896 -2.0866 -0.1897  0.7746
20140TIP3    H281912   1.459   5.504   1.747 -0.2740  0.9804  0.3331
20141TIP3   OH281913   4.990   1.831   1.834 -0.7437  0.0004  0.2661
20141TIP3    H181914   4.925   1.766   1.807 -0.7306 -0.1112  0.5104
20141TIP3    H281915   4.941   1.892   1.889 -0.5855 -0.2224  0.6560
20142TIP3   OH281916   5.067   3.506   2.079  0.3965  0.3924 -0.1913
20142TIP3    H181917   5.137   3.470   2.025  0.8773  0.6616  0.2407
20142TIP3    H281918   5.014   3.558   2.019  0.3217 -0.1539 -0.6039
20143TIP3   OH281919   5.852   1.306  15.335  0.2184 -0.0569 -0.1567
20143TIP3    H181920   5.901   1.227  15.357 -0.9503 -1.2796 -1.7228
20143TIP3    H281921   5.793   1.280  15.265 -2.5589  1.3367  1.4475
20144TIP3   OH281922   5.613   3.640  15.101  0.0339  0.1542  0.3892
20144TIP3    H181923   5.520   3.638  15.079  0.3543 -1.3913 -1.0053
20144TIP3    H281924   5.647   3.717  15.055 -0.4077  0.2867  0.2816
20145TIP3   OH281925   0.666   1.411   3.530  0.0192  0.0934  0.2725
20145TIP3    H181926   0.609   1.477   3.493 -0.6134  0.4875  1.8586
20145TIP3    H281927   0.746   1.459   3.554  0.6144 -0.2474 -0.9421
20146TIP3   OH281928   0.408   0.260   3.164 -0.3154 -0.1318  0.1985
20146TIP3    H181929   0.327   0.274   3.213 -0.5710 -1.7679  0.3137
20146TIP3    H281930   0.395   0.307   3.081 -0.7063  0.9450  0.8490
20147TIP3   OH281931   3.519   3.133  11.041 -0.5685  0.3452 -0.7340
20147TIP3    H181932   3.521   3.037  11.037 -0.1316  0.3085  0.1283
20147TIP3    H281933   3.597   3.160  10.994 -0.9157  0.2968 -1.3446
20148TIP3   OH281934   6.437   1.117   0.120 -0.0136 -0.8706  0.1337
20148TIP3    H181935   6.484   1.178   0.063  0.5474 -1.8073 -0.4477
20148TIP3    H281936   6.355   1.161   0.140  1.7400  1.6087  2.6209
20149TIP3   OH281937   1.403   3.114  13.634  0.3363 -0.1120  0.1326
20149TIP3    H181938   1.344   3.112  13.559  2.3303  2.6911 -1.7141
20149TIP3    H281939   1.490   3.124  13.596  1.5180  0.7113  2.7903
20150TIP3   OH281940   2.539   3.798  17.335  0.2440 -0.0821  0.3429
20150TIP3    H181941   2.633   3.780  17.321 -0.2418 -1.1943 -1.9970
20150TIP3    H281942   2.522   3.877  17.285 -0.0789  0.0968  0.7367
20151TIP3   OH281943   6.464   1.273   0.578  0.2008 -0.1329  0.0193
20151TIP3    H181944   6.391   1.221   0.547  0.4106 -0.6888  0.4377
20151TIP3    H281945   6.424   1.347   0.623 -0.0989  0.2642 -0.8766
20152TIP3   OH281946   2.340   6.035  15.435 -0.1331 -0.1455  0.4343
20152TIP3    H181947   2.290   6.084  15.369  0.2294 -0.4344 -0.0559
20152TIP3    H281948   2.354   5.949  15.395  1.8587  0.3236  0.0259
20153TIP3   OH281949   3.603   5.625   4.792 -0.3934  0.4188 -0.1985
20153TIP3    H181950   3.653   5.686   4.847  0.5102  0.4491 -1.0282
20153TIP3    H281951   3.525   5.675   4.766 -0.1234  0.8982 -0.1051
20154TIP3   OH281952   5.562   1.481  15.886  0.3535  0.1859  0.0701
20154TIP3    H181953   5.493   1.525  15.837  1.3002  0.5560 -0.9882
20154TIP3    H281954   5.637   1.541  15.881  2.1078 -1.9746 -2.5224
20155TIP3   OH281955   2.078   2.759   4.805  0.3191  0.2347 -0.3920
20155TIP3    H181956   2.135   2.721   4.739 -1.3963 -4.4682  0.4865
20155TIP3    H281957   1.989   2.737   4.777 -0.9366  3.3465  0.6000
20156TIP3   OH281958   2.424   3.660   3.258 -0.0370 -0.1727 -0.3687
20156TIP3    H181959   2.511   3.673   3.219  0.2776 -2.4982 -0.5917
20156TIP3    H281960   2.443   3.637   3.349 -0.2985 -1.5307 -0.6230
20157TIP3   OH281961   5.854   5.774   1.213  0.0279 -0.3092 -0.3346
20157TIP3    H181962   5.851   5.688   1.256  0.6434 -0.1788 -0.0274
20157TIP3    H281963   5.947   5.796   1.210 -0.2500  1.3208  1.5181
20158TIP3   OH281964   3.389   5.927  13.163  0.0300 -0.7702  0.3518
20158TIP3    H181965   3.325   5.916  13.092  0.2140  0.3470 -0.0189
20158TIP3    H281966   3.474   5.922  13.120  0.2887 -3.3210  0.9988
20159TIP3   OH281967   3.569   4.719  12.774  0.4007 -0.2621  0.2914
20159TIP3    H181968   3.503   4.673  12.826  0.6741 -1.2798 -0.2332
20159TIP3    H281969   3.560   4.681  12.686  0.2600  1.0916 -0.2994
20160TIP3   OH281970   4.864   5.340   0.478 -0.5339 -0.1939  0.1614
20160TIP3    H181971   4.940   5.285   0.494 -0.5730 -0.1576  0.4879
20160TIP3    H281972   4.892   5.403   0.412 -0.8172 -1.2817 -1.0277
20161TIP3   OH281973   5.944   4.312   3.478  0.1681 -0.1538 -0.6446
20161TIP3    H181974   5.986   4.394   3.452 -0.3714  0.6184  0.7946
20161TIP3    H281975   5.991   4.285   3.557 -0.8675 -0.1789 -0.0036
20162TIP3   OH281976   4.994   5.219   4.172  0.3681  0.0438  0.1560
20162TIP3    H181977   4.962   5.300   4.212 -0.1651 -1.5219  3.0959
20162TIP3    H281978   4.923   5.192   4.114  0.1224  1.1193 -0.0738
20163TIP3   OH281979   5.981   1.500   4.778 -0.2112 -0.1688  0.6393
20163TIP3    H181980   6.034   1.514   4.856  0.5085  1.8155 -0.1326
20163TIP3    H281981   5.938   1.584   4.762 -1.1454 -0.8298 -0.5285
20164TIP3   OH281982   3.291   1.984   5.417  0.0504  0.0706  0.4360
20164TIP3    H181983   3.298   1.897   5.457 -1.8549 -0.1256  0.4670
20164TIP3    H281984   3.215   2.023   5.460  0.2556  1.3418 -0.3166
20165TIP3   OH281985   0.930   2.283  12.200 -0.0451 -0.3470  0.8602
20165TIP3    H181986   0.905   2.191  12.205 -1.3761 -0.2671 -1.8870
20165TIP3    H281987   0.912   2.318  12.287 -1.9490 -2.1470  1.2808
20166TIP3   OH281988   1.839   1.954  17.276 -0.3441  0.6847 -0.2994
20166TIP3    H181989   1.919   2.002  17.256  1.2368 -0.0184  3.4092
20166TIP3    H281990   1.869   1.868  17.305 -2.4907  0.0854  0.3596
20167TIP3   OH281991   2.439   5.123  11.166  0.4569 -0.3862  0.6650
20167TIP3    H181992   2.373   5.068  11.209  1.3008 -1.1740  0.9911
20167TIP3    H281993   2.519   5.071  11.170  0.8474  0.0670 -0.7418
20168TIP3   OH281994   1.233   6.043   4.625 -0.0234 -0.0848  0.3241
20168TIP3    H181995   1.307   6.104   4.634 -0.0426 -0.2546  1.9749
20168TIP3    H281996   1.156   6.096   4.645  0.0085 -0.7058  2.4154
20169TIP3   OH281997   3.429   3.594   5.381 -0.0257 -0.5400  0.1986
20169TIP3    H181998   3.462   3.660   5.443  1.2006 -0.9903  0.0490
20169TIP3    H281999   3.341   3.573   5.413 -0.1374  0.6161  0.6813
20170TIP3   OH282000   0.803   3.394  13.071 -0.3075  0.9114 -0.5561
20170TIP3    H182001   0.857   3.360  13.000 -0.8221 -1.5295  0.1286
20170TIP3    H282002   0.733   3.443  13.027 -0.3392 -0.1266 -1.6956
20171TIP3   OH282003   0.100   5.461  12.522 -0.3291  0.0831  0.4504
20171TIP3    H182004   0.073   5.529  12.584 -0.1206  0.9884 -0.4286
20171TIP3    H282005   0.121   5.509  12.442 -1.4628 -1.1451 -0.6179
20172TIP3   OH282006   4.853   6.583   3.758  0.0032 -0.2912 -0.8657
20172TIP3    H182007   4.845   6.679   3.759  0.1229 -0.2825 -0.4691
20172TIP3    H282008   4.763   6.551   3.761 -0.1201 -0.2045  3.5281
20173TIP3   OH282009   1.934   2.803   6.377 -0.2035 -0.3983 -0.0300
20173TIP3    H182010   1.967   2.771   6.461 -0.5616  1.5637  0.9089
20173TIP3    H282011   1.876   2.876   6.400 -0.7107 -0.1432 -1.9620
20174TIP3   OH282012   4.945   5.156   3.128 -0.0959  0.3424  0.4770
20174TIP3    H182013   4.926   5.063   3.139  0.7141  0.0498 -0.4547
20174TIP3    H282014   4.973   5.164   3.037 -3.5016  2.1141 -0.5805
20175TIP3   OH282015   5.282   3.103   1.757 -0.1183  0.0956  0.0229
20175TIP3    H182016   5.352   3.135   1.813  1.8740 -2.3975 -0.8312
20175TIP3    H282017   5.203   3.145   1.790  1.4995  1.6274  2.2170
20176TIP3   OH282018   1.002   1.585  14.472  0.4969 -0.2945 -1.2672
20176TIP3    H182019   0.994   1.674  14.440 -1.8069 -0.6623 -1.8799
20176TIP3    H282020   0.970   1.530  14.401 -1.3171 -1.3588  0.2522
20177TIP3   OH282021   3.252   2.976   4.101 -0.4500 -0.6194 -0.2503
20177TIP3    H182022   3.299   2.972   4.185  1.7112 -1.3692 -1.4047
20177TIP3    H282023   3.250   3.069   4.079  0.1472 -0.5378  0.0241
20178TIP3   OH282024   4.646   0.433   4.042  0.2037  0.0162  1.1207
20178TIP3    H182025   4.712   0.365   4.054  0.2503  0.0637  1.1391
20178TIP3    H282026   4.697   0.512   4.022  0.0681 -0.3519 -0.8341
20179TIP3   OH282027   1.569   2.829  15.525  0.2007  0.3885  0.6715
20179TIP3    H182028   1.562   2.856  15.433  1.0493  0.7247  0.6934
20179TIP3    H282029   1.524   2.899  15.574 -0.2152  0.2300  0.5246
20180TIP3   OH282030   3.207   3.938   1.753 -0.8313 -0.1368 -0.4068
20180TIP3    H182031   3.245   3.869   1.699 -2.7737 -3.1150  1.7594
20180TIP3    H282032   3.271   3.951   1.823 -1.3816 -1.2345  0.3016
20181TIP3   OH282033   0.834   2.901   4.207 -0.5429 -0.6214 -0.3185
20181TIP3    H182034   0.878   2.816   4.206 -1.4396 -1.1016 -0.9822
20181TIP3    H282035   0.904   2.964   4.227  0.3056 -1.4221 -0.6613
20182TIP3   OH282036   6.645   1.773  14.462 -0.4489  0.5201 -0.1025
20182TIP3    H182037   6.676   1.783  14.552  1.5342  2.0437 -0.8848
20182TIP3    H282038   6.687   1.693  14.431  0.3889  0.9952 -0.2275
20183TIP3   OH282039   3.378   2.709   3.988  0.1359  0.4271  0.2768
20183TIP3    H182040   3.309   2.681   4.048  1.8503  1.9815  3.1835
20183TIP3    H282041   3.379   2.805   3.995  0.8513  0.6300 -1.7991
20184TIP3   OH282042   2.946   3.843   4.056  0.3501  0.3786  0.0602
20184TIP3    H182043   2.898   3.829   4.137  1.7677  1.4353  1.1606
20184TIP3    H282044   2.949   3.758   4.014 -0.7550 -0.1071  0.9287
20185TIP3   OH282045   6.235   3.364  11.680  0.0351 -0.1228  0.1103
20185TIP3    H182046   6.317   3.412  11.691  0.0761  0.2784 -1.7173
20185TIP3    H282047   6.171   3.414  11.731  0.5839  0.5027  0.1987
20186TIP3   OH282048   6.600   2.758   4.312 -0.1533 -0.1041  0.1518
20186TIP3    H182049   6.557   2.698   4.372  0.1464 -0.5972 -0.1171
20186TIP3    H282050   6.674   2.793   4.361 -0.4013  0.1428  0.3507
20187TIP3   OH282051   0.519   6.577   4.955  0.2444 -0.3481 -0.3232
20187TIP3    H182052   0.464   6.537   4.888 -0.3732 -0.8395  0.4586
20187TIP3    H282053   0.459   6.595   5.028  1.0958 -0.8300  0.5178
20188TIP3   OH282054   1.242   6.064   3.665 -0.6683  0.2889 -0.2375
20188TIP3    H182055   1.282   6.139   3.711 -2.0923  0.8463  0.1491
20188TIP3    H282056   1.182   6.027   3.729  0.3266 -1.4944 -0.2781
20189TIP3   OH282057   0.544   6.591  13.095 -0.1981  0.0981 -0.3095
20189TIP3    H182058   0.495   6.610  13.015 -1.8049 -0.5262  0.4790
20189TIP3    H282059   0.476   6.580  13.162  1.0539 -0.5824  0.8812
20190TIP3   OH282060   2.823   4.845   1.855 -0.3538 -0.8580 -0.0404
20190TIP3    H182061   2.807   4.880   1.943 -4.8457 -1.1302 -0.5337
20190TIP3    H282062   2.816   4.920   1.797 -1.5675 -1.2321 -0.4177
20191TIP3   OH282063   6.190   3.646  15.043  0.3824  0.3542 -0.3934
20191TIP3    H182064   6.162   3.734  15.018  2.2057  0.7799 -1.0610
20191TIP3    H282065   6.283   3.655  15.065  0.2490 -1.1335  0.9719
20192TIP3   OH282066   3.607   5.354  12.098 -0.4035 -0.4815  0.0654
20192TIP3    H182067   3.702   5.366  12.100 -0.6419  1.9682 -0.3019
20192TIP3    H282068   3.595   5.259  12.096  2.0649 -0.8561 -1.5119
20193TIP3   OH282069   6.653   1.912  16.616  0.0742  0.0471 -0.0359
20193TIP3    H182070   6.741   1.936  16.587  0.9478 -2.5409  0.2440
20193TIP3    H282071   6.615   1.865  16.543  0.1029 -1.4763  0.8841
20194TIP3   OH282072   0.739   5.078   3.384 -0.1861 -0.1935  0.4604
20194TIP3    H182073   0.753   5.121   3.300 -1.6897 -0.7879 -0.1401
20194TIP3    H282074   0.756   4.985   3.366  1.9200 -0.0411  1.4527
20195TIP3   OH282075   1.560   2.600   2.424 -0.2762 -0.1798  0.6314
20195TIP3    H182076   1.508   2.520   2.428  2.0215 -1.7151  1.4446
20195TIP3    H282077   1.597   2.609   2.512  0.1668  1.3365  0.3201
20196TIP3   OH282078   5.246   1.548  13.816 -0.0709 -0.1647 -0.5721
20196TIP3    H182079   5.302   1.581  13.885 -1.5646  1.1955  0.0525
20196TIP3    H282080   5.269   1.599  13.738 -0.1263  0.0875 -0.4241
20197TIP3   OH282081   4.829   0.019   2.267  0.3239 -0.1007  0.8975
20197TIP3    H182082   4.870   0.096   2.307 -1.8605  0.7712  1.5772
20197TIP3    H282083   4.902  -0.029   2.227  1.6398  3.0123 -0.7709
20198TIP3   OH282084   4.279   1.528  11.545 -0.2849 -0.2720  0.1082
20198TIP3    H182085   4.363   1.550  11.584 -0.0961  0.5215 -0.6958
20198TIP3    H282086   4.269   1.434  11.560  1.3954 -0.6710 -0.9435
20199TIP3   OH282087   6.127   1.239   4.695 -0.4686  0.2415  0.6194
20199TIP3    H182088   6.054   1.302   4.699 -1.1943 -0.4434 -1.0285
20199TIP3    H282089   6.089   1.161   4.655  1.1971 -0.1073 -0.3606
20200TIP3   OH282090   6.036   6.552   2.874  0.2720 -0.3109 -0.4191
20200TIP3    H182091   6.003   6.504   2.798  0.0368 -1.2526  0.2573
20200TIP3    H282092   6.011   6.643   2.858 -0.5965 -0.6455 -1.0310
20201TIP3   OH282093   0.168   5.485  14.866  0.1563  0.0176  0.3602
20201TIP3    H182094   0.085   5.456  14.828 -0.4720 -0.0633  1.7303
20201TIP3    H282095   0.144   5.552  14.930  0.9463 -1.2164  2.0329
20202TIP3   OH282096   5.149   0.845  15.998  0.1523  0.0376  0.0932
20202TIP3    H182097   5.143   0.885  15.911  0.1550 -2.0323 -0.9223
20202TIP3    H282098   5.089   0.771  15.995  1.8478 -1.4702  1.0196
20203TIP3   OH282099   3.694   1.923   3.361 -0.2237 -0.1193 -0.0874
20203TIP3    H182100   3.738   1.840   3.380  1.9550  1.1298  0.7451
20203TIP3    H282101   3.603   1.899   3.344  0.4077 -2.6923 -0.2084
20204TIP3   OH282102   5.462   5.215  11.771 -0.0005 -0.2049  0.3018
20204TIP3    H182103   5.505   5.246  11.851  0.4481 -3.3203  1.3901
20204TIP3    H282104   5.531   5.216  11.705  0.3228 -0.0889  0.6339
20205TIP3   OH282105   3.072   4.368  13.571 -0.3817 -0.4675 -0.0361
20205TIP3    H182106   3.120   4.299  13.526  3.1329  1.1025  0.9940
20205TIP3    H282107   3.077   4.443  13.512  2.1765  0.8913  1.7126
20206TIP3   OH282108   1.177   6.368  17.132 -0.3400 -0.2920  0.2219
20206TIP3    H182109   1.233   6.328  17.066  0.6992  2.7415 -0.9213
20206TIP3    H282110   1.089   6.363  17.096  0.0480  0.1806 -0.8189
20207TIP3   OH282111   0.305   3.233  10.408  0.1539  0.8163  0.4120
20207TIP3    H182112   0.309   3.170  10.481 -0.7822  0.7437  0.4210
20207TIP3    H282113   0.379   3.292  10.423  0.7672 -0.0033  0.6667
20208TIP3   OH282114   3.102   3.771  17.170  0.0977  0.1144  0.0411
20208TIP3    H182115   3.058   3.704  17.222  0.4842 -0.5186 -0.4444
20208TIP3    H282116   3.177   3.726  17.130  0.6211  0.9358  0.0666
20209TIP3   OH282117   3.710   5.425  11.725  0.0351 -0.4590 -0.0837
20209TIP3    H182118   3.748   5.348  11.768 -0.9273 -2.6673 -2.8446
20209TIP3    H282119   3.780   5.455  11.666  0.0085  0.0856  0.1609
20210TIP3   OH282120   1.336   1.190   6.083 -0.2565 -0.1537 -0.2339
20210TIP3    H182121   1.248   1.217   6.060 -0.4471 -0.5532  0.0095
20210TIP3    H282122   1.341   1.098   6.056 -0.1389 -0.3244  0.3455
20211TIP3   OH282123   4.825   6.144  11.813 -0.1817 -0.1344 -0.0319
20211TIP3    H182124   4.776   6.104  11.741  1.7970  0.1650 -1.6270
20211TIP3    H282125   4.834   6.236  11.789 -1.1363  0.4345  1.5955
20212TIP3   OH282126   5.659   1.259  12.136 -0.0344 -0.4981 -0.6337
20212TIP3    H182127   5.608   1.275  12.056 -1.2793  0.3900  0.3004
20212TIP3    H282128   5.717   1.334  12.144  1.7317 -1.6679 -1.8741
20213TIP3   OH282129   2.719   5.040   0.800  0.2361  0.2714 -0.1459
20213TIP3    H182130   2.698   4.977   0.869 -0.0115 -0.0232 -0.4851
20213TIP3    H282131   2.720   4.987   0.719  3.5454 -0.0161 -0.0374
20214TIP3   OH282132   5.692   1.941  14.480 -0.2256 -0.0163 -0.5335
20214TIP3    H182133   5.742   1.890  14.544 -1.7342 -1.1108 -0.1580
20214TIP3    H282134   5.758   1.979  14.423  1.1111  0.0712  1.0026
20215TIP3   OH282135   0.558   0.310  13.006 -0.0873 -0.7616 -0.0915
20215TIP3    H182136   0.529   0.282  12.919 -0.4937  0.3205 -0.3280
20215TIP3    H282137   0.477   0.323  13.055 -0.0262  1.4515 -0.4826
20216TIP3   OH282138   4.586   5.015   1.961  0.3273  0.1711 -0.0118
20216TIP3    H182139   4.511   5.030   2.019  0.1681 -1.5632  0.3042
20216TIP3    H282140   4.631   4.940   2.000  2.1364  1.0672 -0.3102
20217TIP3   OH282141   3.311   0.515  13.109  0.3650 -0.8351  0.0566
20217TIP3    H182142   3.396   0.552  13.131  0.4635 -0.0451 -1.5491
20217TIP3    H282143   3.330   0.430  13.070  0.3723 -0.9492  0.3076
20218TIP3   OH282144   6.442   3.285   4.262  0.0698  0.4567 -0.2206
20218TIP3    H182145   6.503   3.242   4.321 -0.1762  1.0843  0.5116
20218TIP3    H282146   6.479   3.272   4.175 -0.0313 -1.2540 -0.0374
20219TIP3   OH282147   6.422   3.808   2.665  0.5983  0.5298  0.3859
20219TIP3    H182148   6.358   3.804   2.594  0.3755  3.2580  0.3620
20219TIP3    H282149   6.467   3.892   2.654  0.3864  1.2057  3.5797
20220TIP3   OH282150   1.225   4.441  14.278 -0.1025  0.0231 -0.2303
20220TIP3    H182151   1.215   4.408  14.367  0.9435 -0.7544 -0.3843
20220TIP3    H282152   1.137   4.435  14.241 -1.4469  3.7613  1.8156
20221TIP3   OH282153   2.932   6.330   2.098 -0.1201 -0.2019  0.0747
20221TIP3    H182154   2.890   6.365   2.176  0.1989  2.2679 -0.7553
20221TIP3    H282155   2.926   6.235   2.107  0.1324 -0.0083  3.1911
20222TIP3   OH282156   2.723   4.707  10.409 -0.4852  0.1975 -0.2367
20222TIP3    H182157   2.656   4.641  10.427  0.5671 -0.6199  0.8611
20222TIP3    H282158   2.806   4.659  10.410  0.1306  1.1666 -1.6926
20223TIP3   OH282159   6.515   4.804   0.541 -0.1473  0.2168 -0.0487
20223TIP3    H182160   6.535   4.715   0.572  1.3245  0.5788  0.1359
20223TIP3    H282161   6.561   4.861   0.603 -1.1054  1.1197 -0.1445
20224TIP3   OH282162   0.507   2.122  13.193  0.4436 -0.2201  0.2515
20224TIP3    H182163   0.460   2.189  13.242 -1.2544  0.2554 -1.8794
20224TIP3    H282164   0.600   2.146  13.202 -0.0617  1.8854  0.3159
20225TIP3   OH282165   1.385   1.836  17.462 -0.3567 -0.2444 -0.1324
20225TIP3    H182166   1.463   1.889  17.471 -1.1495  0.8526  0.4486
20225TIP3    H282167   1.407   1.772  17.394  0.4898  1.0706 -1.1317
20226TIP3   OH282168   4.707   1.734   3.850  0.1622 -0.0359  0.5246
20226TIP3    H182169   4.771   1.665   3.866  0.7927  0.7123  1.3310
20226TIP3    H282170   4.624   1.698   3.881  0.2955 -0.7946  0.0084
20227TIP3   OH282171   2.536   0.075  13.130  0.4578 -0.2817  0.0479
20227TIP3    H182172   2.546   0.163  13.095  0.4568 -0.6800 -0.9993
20227TIP3    H282173   2.471   0.034  13.072  0.8103 -1.1146  0.2315
20228TIP3   OH282174   5.277   2.251   2.275 -0.5279  0.2619  0.1071
20228TIP3    H182175   5.358   2.212   2.307  0.1747  0.9811 -0.7516
20228TIP3    H282176   5.226   2.270   2.354  0.7662  1.1573  0.7587
20229TIP3   OH282177   6.644   6.606  13.678 -0.0334 -0.0335  0.0470
20229TIP3    H182178   6.559   6.582  13.715 -0.7445  0.4349 -1.2301
20229TIP3    H282179   6.662   6.537  13.614  1.0451 -0.6776  1.0148
20230TIP3   OH282180   4.924   1.689  12.591 -0.2165  0.2262 -0.2613
20230TIP3    H182181   4.908   1.614  12.534 -0.5613 -0.4254  0.6483
20230TIP3    H282182   4.855   1.751  12.569 -1.7998 -0.9715  0.9690
20231TIP3   OH282183   2.828   3.037   4.763 -0.4914  0.5883  0.1499
20231TIP3    H182184   2.799   2.948   4.745 -1.3312  0.9574 -0.3704
20231TIP3    H282185   2.749   3.084   4.788 -0.3219  1.5435 -0.9831
20232TIP3   OH282186   4.751   2.646  11.368 -0.0261 -0.1756  0.2858
20232TIP3    H182187   4.705   2.725  11.341 -0.5142 -0.3259  0.6711
20232TIP3    H282188   4.840   2.658  11.334  0.8431  2.0104  2.9783
20233TIP3   OH282189   3.247   3.239   4.002  0.2180  0.3100  0.3928
20233TIP3    H182190   3.314   3.281   3.948 -1.4485  0.9886 -1.2440
20233TIP3    H282191   3.218   3.307   4.062 -0.6113  0.7281 -0.4656
20234TIP3   OH282192   0.396   0.748  13.612 -0.1167  0.0445  0.0282
20234TIP3    H182193   0.369   0.769  13.523 -1.6840 -1.0251  0.2079
20234TIP3    H282194   0.451   0.671  13.603 -0.0886  0.0723 -0.0364
20235TIP3   OH282195   4.449   0.553   2.793  0.2031  0.4019 -0.2468
20235TIP3    H182196   4.368   0.568   2.744 -0.6060 -0.1100  0.8832
20235TIP3    H282197   4.518   0.559   2.728 -0.9358 -1.9408 -1.8025
20236TIP3   OH282198   3.651   2.956  13.907  0.8979  0.2317 -0.0538
20236TIP3    H182199   3.594   2.956  13.983  2.0688 -0.3558  0.8541
20236TIP3    H282200   3.691   2.869  13.907 -0.4452 -0.4820 -2.4068
20237TIP3   OH282201   5.928   5.811  12.153  0.1754  0.0896  0.2328
20237TIP3    H182202   5.954   5.903  12.147 -1.2035  0.4649 -0.4422
20237TIP3    H282203   6.010   5.764  12.172  1.1403  1.2927 -0.7780
20238TIP3   OH282204   1.542   5.346   3.465  0.2184 -0.0951 -0.4053
20238TIP3    H182205   1.518   5.255   3.451 -0.8943  0.2276 -0.7332
20238TIP3    H282206   1.604   5.366   3.394  2.7113 -1.3473  1.3005
20239TIP3   OH282207   0.108   4.643   0.375  0.2597  0.0809  0.1189
20239TIP3    H182208   0.028   4.621   0.327  0.8545 -0.9573 -0.4382
20239TIP3    H282209   0.079   4.652   0.466 -0.2149 -2.3748  0.2901
20240TIP3   OH282210   3.687   5.744  13.586 -0.2586 -0.0080 -0.1834
20240TIP3    H182211   3.602   5.704  13.607  0.5577 -2.0838 -0.5501
20240TIP3    H282212   3.668   5.837  13.578 -2.9443 -0.5910 -2.2203
20241TIP3   OH282213   0.138   2.036  12.374  0.0248  0.3778  0.1139
20241TIP3    H182214   0.077   2.065  12.306  1.4500 -0.2196 -1.4864
20241TIP3    H282215   0.164   2.116  12.419 -1.5098  0.6958  0.4954
20242LIG      S82216   3.476   3.314  16.481  0.2092 -0.3680 -0.4929
20242LIG     O182217   3.250   3.356  16.771 -0.7795 -0.0102  0.0702
20242LIG     O282218   3.283   3.933  16.596 -0.2685  0.2451 -0.8796
20242LIG     O382219   3.397   4.009  16.774 -0.0030  0.2135  0.0043
20242LIG     N182220   3.233   3.613  16.963 -0.1490 -0.7497 -0.9507
20242LIG     N282221   3.484   3.739  16.533 -0.0148  0.3598 -0.2695
20242LIG     N382222   3.678   3.855  16.474  0.3078  0.2426  0.1219
20242LIG     N482223   3.380   3.988  16.651  0.3093  0.0387  0.0591
20242LIG     N582224   3.754   3.966  16.458 -0.0591 -0.6910 -0.1106
20242LIG     C182225   3.193   3.473  16.978 -1.3670 -0.1275  0.1610
20242LIG     C282226   3.284   3.375  16.904 -0.1347 -0.4110  0.3803
20242LIG     C382227   3.344   3.258  16.731  0.1723 -0.3763 -0.3516
20242LIG     C482228   3.349   3.227  16.582  0.0425  0.0630  0.1051
20242LIG     C582229   3.381   3.282  16.944 -0.0130 -0.2717 -0.3070
20242LIG     C682230   3.433   3.492  16.527 -0.0559  0.6215  0.1073
20242LIG     C782231   3.419   3.211  16.835  0.8945  0.5524  0.2070
20242LIG     C882232   3.523   3.604  16.471  0.1116  0.1318 -0.0746
20242LIG     C982233   3.369   3.637  17.018  0.7239 -0.1473  1.3020
20242LIG    C1082234   3.191   3.679  16.843  0.0692  0.3238 -0.1005
20242LIG    C1182235   3.548   3.864  16.523 -0.2842 -0.2306  0.2514
20242LIG    C1282236   3.499   3.988  16.568 -0.0862 -0.0027 -0.1994
20242LIG    C1382237   3.587   4.103  16.560 -0.1408 -0.7910  0.0496
20242LIG    C1482238   3.718   4.085  16.503  0.2656 -1.0165 -0.6757
20242LIG     H182239   3.089   3.453  16.945 -1.8172  0.0034  1.4227
20242LIG     H282240   3.192   3.450  17.087 -0.6856  2.0581  0.6809
20242LIG     H382241   3.362   3.120  16.554 -0.9830  0.6178 -2.8225
20242LIG     H482242   3.250   3.259  16.542  0.8214  3.6315  0.7191
20242LIG     H582243   3.407   3.265  17.048  0.6724  2.2593  0.0153
20242LIG     H682244   3.437   3.507  16.637  0.8835 -0.4925  0.2488
20242LIG     H782245   3.332   3.510  16.485  0.7359  4.0806 -0.6683
20242LIG     H882246   3.493   3.133  16.826  0.0876 -0.9900  4.5857
20242LIG     H982247   3.622   3.577  16.515 -0.1906 -1.4926 -0.3556
20242LIG    H1082248   3.515   3.600  16.360 -0.0458  1.8611 -0.1577
20242LIG    H1182249   3.444   3.576  16.963  1.2372  1.3159  0.3271
20242LIG    H1282250   3.371   3.598  17.122 -2.6643  0.1386  1.5989
20242LIG    H1382251   3.396   3.745  17.012 -0.9728  0.2793  0.6761
20242LIG    H1482252   3.083   3.658  16.827 -0.8041  1.8033  3.0620
20242LIG    H1582253   3.235   3.637  16.750 -2.3594  0.4516 -1.3878
20242LIG    H1682254   3.209   3.787  16.861  0.7303 -0.2874  3.8750
20242LIG    H1782255   3.387   3.742  16.563 -0.2270  1.1119 -0.9882
20242LIG    H1882256   3.560   4.198  16.603  2.0636  0.0811 -0.3346
20242LIG    H1982257   3.788   4.167  16.505 -0.3733 -0.3633  2.7815
   6.77632   6.77632  17.46996
